INSANE! Membrane UpperLeaflet>loPI:POPI:DPPI:PYPI:ERGO=180.0:5.0:3.0:2.0:10.0 LowerLeaflet>PSPI:POPI:POPS:YOPS:POPE:YOPE:POPC:YOPC:ERGO=6.0:14.0:21.0:9.0:9.0:21.0:12.0:48.0:60.0
49606
    1loPI    C1    1  13.502  18.338  10.192 -0.1763 -0.0960 -0.0316
    1loPI    C2    2  13.813  18.135  10.044 -0.0868  0.2538 -0.3402
    1loPI    C3    3  13.875  18.446  10.287 -0.2273 -0.1708  0.2638
    1loPI   PO4    4  13.277  18.220   9.988  0.1125  0.1388 -0.1169
    1loPI   GL1    5  13.110  18.178   9.511 -0.1296  0.0906 -0.1741
    1loPI   GL2    6  12.977  18.438   9.590 -0.0031 -0.3030 -0.1272
    1loPI   C1A    7  13.435  18.137   9.186  0.0317 -0.2285 -0.0376
    1loPI   C2A    8  13.669  17.835   8.906  0.0337 -0.0150 -0.2386
    1loPI   C3A    9  14.097  17.888   8.627 -0.0272 -0.1503  0.0248
    1loPI   C4A   10  14.216  17.956   8.255  0.0028  0.2165  0.1080
    1loPI   C5A   11  14.083  18.212   8.030  0.1087 -0.2655  0.2536
    1loPI   C6A   12  14.377  18.371   7.636  0.1384  0.0309 -0.1870
    1loPI   C1B   13  13.026  18.539   9.188 -0.0881  0.0540  0.0436
    1loPI   C2B   14  13.246  18.453   8.799 -0.2514 -0.0602  0.1090
    1loPI   C3B   15  13.444  18.244   8.636 -0.0365 -0.0207 -0.0225
    1loPI   C4B   16  13.691  18.066   8.336  0.1380 -0.0183  0.0174
    2loPI    C1   17  17.369  18.586  10.037 -0.0088  0.0876 -0.1189
    2loPI    C2   18  17.240  18.755  10.375 -0.1653 -0.2222 -0.0189
    2loPI    C3   19  17.376  18.380  10.380  0.1427 -0.1170 -0.2431
    2loPI   PO4   20  17.437  18.771   9.833 -0.2167  0.1359 -0.0177
    2loPI   GL1   21  17.510  18.545   9.417 -0.2849  0.0865 -0.1768
    2loPI   GL2   22  17.765  18.322   9.535 -0.1482  0.2873  0.0756
    2loPI   C1A   23  17.448  18.704   9.051 -0.2262  0.0104 -0.2329
    2loPI   C2A   24  17.371  18.670   8.599 -0.2904 -0.1550 -0.0966
    2loPI   C3A   25  17.302  18.742   8.264 -0.2912 -0.0073 -0.1993
    2loPI   C4A   26  17.414  18.685   7.851 -0.3617  0.1518 -0.1414
    2loPI   C5A   27  17.352  18.499   7.410  0.1838  0.0441  0.1402
    2loPI   C6A   28  17.442  18.294   7.017 -0.0060  0.2373 -0.0037
    2loPI   C1B   29  17.567  18.209   9.087 -0.1678  0.2259 -0.0362
    2loPI   C2B   30  17.518  18.217   8.649 -0.0728  0.1520 -0.1582
    2loPI   C3B   31  17.563  18.216   8.190  0.1447  0.3830 -0.1259
    2loPI   C4B   32  17.461  18.116   7.725 -0.2140  0.2004  0.0978
    3loPI    C1   33   6.012   9.919  10.084 -0.0071  0.1454  0.0651
    3loPI    C2   34   6.256   9.725   9.833 -0.0745  0.1551 -0.0081
    3loPI    C3   35   6.137   9.549  10.172 -0.0899  0.0902 -0.0469
    3loPI   PO4   36   5.883  10.002   9.946  0.1012  0.3610 -0.1863
    3loPI   GL1   37   5.688  10.293   9.651 -0.0066  0.0492 -0.0426
    3loPI   GL2   38   5.666  10.018   9.501  0.1598  0.0185  0.0908
    3loPI   C1A   39   5.904  10.349   9.197 -0.3260 -0.0515 -0.2579
    3loPI   C2A   40   6.097  10.322   8.773 -0.0236  0.2438 -0.0995
    3loPI   C3A   41   6.398  10.276   8.432  0.3269  0.0341 -0.2411
    3loPI   C4A   42   6.473  10.352   8.006 -0.0833  0.1793 -0.0191
    3loPI   C5A   43   6.592  10.049   7.683  0.1966  0.0760 -0.0015
    3loPI   C6A   44   6.380   9.858   7.412 -0.2394  0.2017 -0.0509
    3loPI   C1B   45   6.064   9.825   9.379  0.0539 -0.0278  0.0287
    3loPI   C2B   46   6.146   9.783   8.985 -0.1198  0.0195  0.3021
    3loPI   C3B   47   6.249   9.848   8.574 -0.5098  0.3407  0.0473
    3loPI   C4B   48   6.147   9.916   8.155  0.0243 -0.1080 -0.0827
    4loPI    C1   49  13.722  17.444  10.325 -0.2690 -0.0390  0.0640
    4loPI    C2   50  13.623  17.537  10.701 -0.2456 -0.0809  0.0806
    4loPI    C3   51  13.850  17.216  10.628 -0.2402 -0.0658  0.0317
    4loPI   PO4   52  13.818  17.653  10.245  0.1436 -0.1850 -0.0731
    4loPI   GL1   53  14.060  17.617   9.848 -0.0283 -0.1135 -0.0469
    4loPI   GL2   54  13.953  17.301   9.769  0.3566 -0.2265 -0.0971
    4loPI   C1A   55  14.196  17.914   9.624  0.0553 -0.1339  0.1207
    4loPI   C2A   56  14.470  18.037   9.437  0.0187 -0.0162  0.1056
    4loPI   C3A   57  14.478  18.191   9.002  0.0823 -0.1065  0.1038
    4loPI   C4A   58  14.816  18.147   8.730 -0.4506 -0.1082  0.0010
    4loPI   C5A   59  15.034  18.382   8.443  0.1174  0.0100 -0.1400
    4loPI   C6A   60  15.050  18.749   8.151  0.1140 -0.0805  0.1364
    4loPI   C1B   61  14.320  17.344   9.463  0.4681 -0.0858 -0.2153
    4loPI   C2B   62  14.274  17.177   9.043 -0.1100 -0.2802  0.2546
    4loPI   C3B   63  14.466  17.143   8.673 -0.0747  0.1091 -0.1282
    4loPI   C4B   64  14.280  17.400   8.430  0.2414 -0.0532 -0.3488
    5loPI    C1   65   8.446   5.418  10.019  0.0242 -0.0004 -0.0278
    5loPI    C2   66   8.210   5.192  10.250 -0.1278  0.1731 -0.0112
    5loPI    C3   67   8.416   5.495  10.411  0.0274  0.0863 -0.0445
    5loPI   PO4   68   8.618   5.293   9.914  0.3337  0.0407 -0.0669
    5loPI   GL1   69   8.678   5.156   9.507  0.0377 -0.2292  0.2488
    5loPI   GL2   70   8.412   5.225   9.290  0.0378 -0.0634  0.0078
    5loPI   C1A   71   8.862   5.222   9.119  0.1492  0.1601 -0.0966
    5loPI   C2A   72   8.936   5.178   8.660 -0.0132  0.1009  0.3133
    5loPI   C3A   73   8.751   4.996   8.335 -0.1456  0.0527 -0.0587
    5loPI   C4A   74   8.640   5.091   7.918  0.0649 -0.2329 -0.2045
    5loPI   C5A   75   8.427   5.249   7.526 -0.0006 -0.0408  0.1534
    5loPI   C6A   76   8.265   5.504   7.335 -0.1591 -0.4785  0.0916
    5loPI   C1B   77   8.206   5.389   8.941  0.1059 -0.3004  0.2143
    5loPI   C2B   78   8.031   5.627   8.704  0.0378  0.0713 -0.0792
    5loPI   C3B   79   8.052   5.844   8.387  0.2162 -0.2883  0.1953
    5loPI   C4B   80   8.045   6.052   7.979  0.0506  0.1818  0.2139
    6loPI    C1   81  11.346   0.094  10.636 -0.0784 -0.0709  0.0197
    6loPI    C2   82  11.023  -0.125  10.725 -0.0765 -0.0855 -0.0093
    6loPI    C3   83  11.389  -0.278  10.777 -0.0736 -0.0554  0.0588
    6loPI   PO4   84  11.268   0.172  10.408 -0.2663  0.2476 -0.0286
    6loPI   GL1   85  11.275   0.119   9.946  0.0513  0.2281 -0.1924
    6loPI   GL2   86  11.071   0.131   9.549 -0.2220 -0.1960 -0.1104
    6loPI   C1A   87  11.536  -0.078   9.521  0.1573 -0.1463 -0.3014
    6loPI   C2A   88  11.632  -0.169   9.102  0.0599  0.2280  0.0068
    6loPI   C3A   89  11.689  -0.343   8.727  0.0509  0.0085 -0.1394
    6loPI   C4A   90  11.537  -0.147   8.273 -0.2189 -0.1838  0.1183
    6loPI   C5A   91  11.420   0.114   8.067  0.3741 -0.1313 -0.1113
    6loPI   C6A   92  10.955   0.241   7.999 -0.2745  0.0583  0.0994
    6loPI   C1B   93  11.185   0.047   9.187  0.1356 -0.5555  0.0740
    6loPI   C2B   94  11.244   0.100   8.681  0.2058 -0.1392 -0.1291
    6loPI   C3B   95  11.019  -0.102   8.348 -0.0754  0.1361  0.1299
    6loPI   C4B   96  10.674  -0.242   8.043 -0.2192 -0.3158 -0.0335
    7loPI    C1   97   9.131   3.717  10.600  0.0515 -0.2455  0.0619
    7loPI    C2   98   9.166   3.433  10.879  0.0324 -0.1257  0.1872
    7loPI    C3   99   8.828   3.645  10.850 -0.0201 -0.2351 -0.0211
    7loPI   PO4  100   9.268   3.573  10.399 -0.1163  0.1824  0.0231
    7loPI   GL1  101   9.120   3.648   9.928  0.3067 -0.1433 -0.0058
    7loPI   GL2  102   8.945   3.424   9.835  0.0061  0.2205  0.0098
    7loPI   C1A  103   9.363   3.619   9.534  0.0788 -0.2145  0.1487
    7loPI   C2A  104   9.389   3.514   9.135  0.3047 -0.0381 -0.2765
    7loPI   C3A  105   9.360   3.534   8.733  0.1771 -0.0586 -0.0740
    7loPI   C4A  106   9.461   3.670   8.364 -0.1827 -0.0692 -0.1257
    7loPI   C5A  107   9.595   3.626   7.997  0.0358 -0.3421 -0.0104
    7loPI   C6A  108  10.018   3.596   7.757  0.1570 -0.2155 -0.3580
    7loPI   C1B  109   8.887   3.674   9.444  0.1321  0.5408 -0.1119
    7loPI   C2B  110   9.112   3.918   9.153  0.0938  0.1473 -0.1715
    7loPI   C3B  111   8.882   4.227   8.829  0.0284 -0.2717 -0.0643
    7loPI   C4B  112   8.846   4.231   8.301  0.3070  0.0114  0.3271
    8loPI    C1  113   6.542   9.722  10.257 -0.0331  0.1482 -0.0830
    8loPI    C2  114   6.775   9.411  10.351 -0.1472  0.0043 -0.2690
    8loPI    C3  115   6.443   9.482  10.562 -0.0874  0.0388 -0.1859
    8loPI   PO4  116   6.749   9.858  10.093 -0.1725  0.0546 -0.1689
    8loPI   GL1  117   6.746   9.895   9.636 -0.2583  0.2200 -0.2719
    8loPI   GL2  118   6.971   9.830   9.593  0.4129  0.1277 -0.0116
    8loPI   C1A  119   6.563   9.570   9.306  0.1041  0.2788  0.2330
    8loPI   C2A  120   6.497   9.445   8.853 -0.0546 -0.0985 -0.1895
    8loPI   C3A  121   6.602   9.477   8.454  0.1722 -0.0389 -0.3528
    8loPI   C4A  122   6.539   9.569   7.982  0.0580 -0.1465 -0.2195
    8loPI   C5A  123   6.580   9.434   7.525  0.1209  0.0203 -0.0804
    8loPI   C6A  124   7.056   9.534   7.334 -0.0531 -0.0009 -0.2884
    8loPI   C1B  125   6.973   9.941   9.159  0.2184 -0.2130 -0.1279
    8loPI   C2B  126   7.246  10.062   8.754  0.0000  0.0918  0.1189
    8loPI   C3B  127   7.369  10.146   8.376 -0.0312 -0.1708 -0.2170
    8loPI   C4B  128   7.385  10.226   7.943 -0.1134  0.0160  0.2415
    9loPI    C1  129   0.187   8.377  10.398 -0.1648  0.0473  0.0918
    9loPI    C2  130   0.238   7.991  10.305 -0.0567  0.0982 -0.0635
    9loPI    C3  131   0.258   8.109  10.686  0.2269 -0.0018 -0.0450
    9loPI   PO4  132   0.010   8.418  10.046 -0.1051 -0.0934 -0.2156
    9loPI   GL1  133  -0.278   8.160   9.739  0.0995  0.0374 -0.0329
    9loPI   GL2  134  -0.342   7.901   9.671 -0.0004  0.0674 -0.0049
    9loPI   C1A  135  -0.504   8.304   9.369  0.4544  0.1850  0.1883
    9loPI   C2A  136  -0.492   8.282   8.874  0.0308 -0.2539  0.2737
    9loPI   C3A  137  -0.590   8.021   8.521  0.1183 -0.1302 -0.4814
    9loPI   C4A  138  -1.009   8.090   8.259  0.0530 -0.0011 -0.0526
    9loPI   C5A  139  -1.124   7.983   7.842  0.0998 -0.1176 -0.3745
    9loPI   C6A  140  -1.219   7.685   7.457  0.0514  0.0731  0.2029
    9loPI   C1B  141  -0.318   7.870   9.236  0.0465 -0.2683 -0.2442
    9loPI   C2B  142  -0.155   7.872   8.785 -0.0588  0.1900  0.2650
    9loPI   C3B  143  -0.162   7.874   8.369 -0.0428 -0.4493  0.2020
    9loPI   C4B  144  -0.069   8.050   7.991 -0.2333  0.2093 -0.2473
   10loPI    C1  145  16.968   6.444  10.279 -0.2413 -0.2329  0.1017
   10loPI    C2  146  16.736   6.464  10.604 -0.3561 -0.0610  0.0112
   10loPI    C3  147  16.571   6.420  10.243 -0.2704  0.3554 -0.0841
   10loPI   PO4  148  17.230   6.731  10.281 -0.0344 -0.3928  0.0469
   10loPI   GL1  149  17.210   6.791   9.859  0.1759  0.3098  0.1747
   10loPI   GL2  150  17.362   6.509   9.863 -0.1543 -0.1437 -0.1563
   10loPI   C1A  151  17.278   6.868   9.370 -0.0076 -0.3853 -0.2054
   10loPI   C2A  152  17.283   6.849   9.047  0.1289 -0.4328  0.0649
   10loPI   C3A  153  17.394   6.877   8.631  0.0994 -0.4250  0.0750
   10loPI   C4A  154  17.426   6.628   8.240 -0.1414  0.0143  0.0787
   10loPI   C5A  155  17.452   6.309   7.845  0.2403  0.1740  0.1091
   10loPI   C6A  156  17.656   6.025   7.580 -0.0997 -0.3406 -0.0013
   10loPI   C1B  157  17.617   6.473   9.500  0.0492 -0.0179 -0.0223
   10loPI   C2B  158  17.781   6.140   9.322 -0.0800  0.0323 -0.1642
   10loPI   C3B  159  17.877   5.823   9.038 -0.2093 -0.1898  0.1624
   10loPI   C4B  160  17.878   5.701   8.531  0.0677  0.0500  0.3119
   11loPI    C1  161  15.073  10.758  10.465  0.0725  0.3437  0.0043
   11loPI    C2  162  14.863  10.563  10.744  0.1127 -0.1045 -0.2683
   11loPI    C3  163  14.678  10.716  10.424  0.0897  0.2640 -0.0842
   11loPI   PO4  164  15.239  10.978  10.540 -0.2609  0.0185  0.0770
   11loPI   GL1  165  15.466  11.259  10.188  0.0033  0.0258 -0.1555
   11loPI   GL2  166  15.784  11.146  10.116 -0.0317  0.0819 -0.0938
   11loPI   C1A  167  15.646  11.497   9.775 -0.1136 -0.2380 -0.0116
   11loPI   C2A  168  15.625  11.541   9.283  0.1722 -0.0139 -0.1521
   11loPI   C3A  169  15.662  11.596   8.954 -0.1546  0.2128  0.1784
   11loPI   C4A  170  15.568  11.587   8.513 -0.1313 -0.0109  0.4908
   11loPI   C5A  171  15.401  11.611   8.096 -0.2158  0.0544 -0.1796
   11loPI   C6A  172  15.219  12.000   7.968 -0.0582 -0.1766 -0.2063
   11loPI   C1B  173  15.561  11.059   9.616 -0.3692  0.0362 -0.0202
   11loPI   C2B  174  15.501  11.022   9.090 -0.2836  0.1336 -0.2428
   11loPI   C3B  175  15.524  11.020   8.712 -0.2290  0.0518 -0.0354
   11loPI   C4B  176  15.554  11.156   8.273  0.0214  0.1367 -0.3577
   12loPI    C1  177   8.430   7.967  10.071 -0.2521 -0.0388 -0.1305
   12loPI    C2  178   8.445   8.043  10.463  0.2488  0.0488 -0.1613
   12loPI    C3  179   8.383   7.670  10.335 -0.2662  0.0732 -0.0059
   12loPI   PO4  180   8.730   8.040   9.994 -0.1903  0.1251 -0.1104
   12loPI   GL1  181   9.026   7.936   9.589 -0.0767 -0.1789 -0.0803
   12loPI   GL2  182   9.343   8.014   9.513 -0.2203  0.1512 -0.1962
   12loPI   C1A  183   9.009   7.880   9.181 -0.1873 -0.0739  0.1298
   12loPI   C2A  184   9.127   7.906   8.768 -0.0110 -0.1072 -0.1314
   12loPI   C3A  185   9.181   8.079   8.284 -0.0482  0.0675  0.2132
   12loPI   C4A  186   9.175   7.927   7.910  0.3140  0.0735 -0.1726
   12loPI   C5A  187   8.911   7.855   7.564  0.0946  0.0299 -0.1271
   12loPI   C6A  188   8.652   7.596   7.285 -0.2410  0.0812  0.2166
   12loPI   C1B  189   9.440   8.125   9.113 -0.0595 -0.0964  0.0000
   12loPI   C2B  190   9.576   8.199   8.688 -0.1439 -0.2541 -0.1816
   12loPI   C3B  191   9.890   8.554   8.579  0.0158  0.1151 -0.1172
   12loPI   C4B  192  10.238   8.662   8.789 -0.1422  0.1400 -0.0305
   13loPI    C1  193  14.661   6.336  10.388  0.0777 -0.0433 -0.1535
   13loPI    C2  194  14.679   6.651  10.634 -0.0276 -0.0400 -0.1499
   13loPI    C3  195  14.326   6.481  10.552  0.0550 -0.3155  0.0487
   13loPI   PO4  196  14.852   6.479  10.210  0.0767 -0.1604 -0.1043
   13loPI   GL1  197  14.825   6.595   9.800 -0.2785  0.1567  0.1118
   13loPI   GL2  198  14.618   6.693   9.620  0.1591 -0.1902 -0.1508
   13loPI   C1A  199  15.128   6.595   9.509 -0.0936  0.0927  0.0076
   13loPI   C2A  200  15.471   6.519   9.241  0.0700  0.4008  0.1963
   13loPI   C3A  201  15.645   6.520   8.868  0.2310  0.0089  0.1425
   13loPI   C4A  202  15.832   6.596   8.492 -0.0236 -0.0355 -0.0790
   13loPI   C5A  203  16.063   6.383   8.176 -0.0063  0.1215 -0.0625
   13loPI   C6A  204  16.427   6.230   8.045  0.0651  0.0090 -0.0352
   13loPI   C1B  205  14.690   6.900   9.224  0.0471 -0.0359  0.1245
   13loPI   C2B  206  14.610   6.815   8.802 -0.0553  0.2527  0.0621
   13loPI   C3B  207  14.738   6.630   8.398 -0.1431  0.0660 -0.1550
   13loPI   C4B  208  14.811   6.575   8.007  0.1148 -0.0602  0.0173
   14loPI    C1  209  17.613   3.249  10.573  0.0010 -0.2094 -0.0696
   14loPI    C2  210  17.681   2.928  10.802  0.0824 -0.0312  0.1609
   14loPI    C3  211  17.382   3.177  10.892 -0.0266 -0.0801 -0.0596
   14loPI   PO4  212  17.603   3.177  10.337  0.1648  0.0371 -0.2216
   14loPI   GL1  213  17.384   3.156  10.029 -0.0384 -0.3705 -0.0031
   14loPI   GL2  214  17.164   2.885   9.838  0.0010 -0.1515  0.1018
   14loPI   C1A  215  17.536   3.452   9.649 -0.2852  0.0451 -0.1556
   14loPI   C2A  216  17.441   3.622   9.249  0.0927  0.0325  0.3304
   14loPI   C3A  217  17.495   3.621   8.833 -0.0045  0.0628  0.0752
   14loPI   C4A  218  17.338   3.580   8.390  0.0489  0.1265 -0.0299
   14loPI   C5A  219  17.125   3.645   8.073  0.0073  0.1034  0.3828
   14loPI   C6A  220  17.026   3.749   7.624  0.3236 -0.0273  0.0806
   14loPI   C1B  221  16.771   2.789   9.477 -0.1451 -0.1681  0.4002
   14loPI   C2B  222  16.777   2.777   9.038 -0.1829  0.2466 -0.1114
   14loPI   C3B  223  16.797   2.787   8.639 -0.3278 -0.0019  0.1150
   14loPI   C4B  224  16.846   2.870   8.166  0.2394 -0.0360  0.1346
   15loPI    C1  225  13.155  14.912  10.252 -0.0094 -0.0432 -0.3002
   15loPI    C2  226  13.060  15.087  10.599  0.1675 -0.0461 -0.2491
   15loPI    C3  227  12.772  14.987  10.339  0.0497  0.1376 -0.1911
   15loPI   PO4  228  13.255  15.068  10.155 -0.0913  0.1307  0.0537
   15loPI   GL1  229  13.308  15.030   9.759 -0.2778 -0.1316 -0.2362
   15loPI   GL2  230  13.303  15.127   9.517  0.1210  0.0987  0.1659
   15loPI   C1A  231  13.228  14.620   9.577  0.0068 -0.0816  0.2398
   15loPI   C2A  232  13.269  14.487   9.123  0.1074 -0.0505 -0.0235
   15loPI   C3A  233  13.241  14.404   8.619 -0.1424  0.1368 -0.1100
   15loPI   C4A  234  13.360  14.456   8.190 -0.1711 -0.0658  0.1013
   15loPI   C5A  235  13.240  14.295   7.782 -0.0504 -0.1085 -0.2617
   15loPI   C6A  236  13.247  14.318   7.359 -0.2198 -0.0402 -0.2622
   15loPI   C1B  237  13.227  14.981   9.148 -0.1506 -0.0785 -0.1514
   15loPI   C2B  238  12.974  14.799   8.809 -0.1792  0.0277 -0.0051
   15loPI   C3B  239  12.758  14.750   8.428 -0.1733 -0.3938  0.0502
   15loPI   C4B  240  12.859  14.738   7.961 -0.1076  0.2185 -0.0724
   16loPI    C1  241  10.186   8.229  10.458 -0.2443 -0.0923  0.1359
   16loPI    C2  242  10.126   8.005  10.132 -0.0354  0.2131 -0.1189
   16loPI    C3  243   9.837   8.040  10.406 -0.0399 -0.4361 -0.0246
   16loPI   PO4  244  10.335   8.411  10.357  0.0485  0.2360 -0.2085
   16loPI   GL1  245  10.383   8.444   9.952  0.1310  0.2288 -0.0794
   16loPI   GL2  246  10.072   8.430   9.711  0.1997  0.0416 -0.0230
   16loPI   C1A  247  10.609   8.447   9.612 -0.2851 -0.1902  0.2883
   16loPI   C2A  248  10.691   8.752   9.232  0.4192  0.0118  0.1542
   16loPI   C3A  249  10.725   8.747   8.814  0.0789  0.3609 -0.2510
   16loPI   C4A  250  10.563   8.883   8.452  0.0666 -0.0586  0.1730
   16loPI   C5A  251  10.590   9.024   8.048 -0.1913 -0.3726  0.1166
   16loPI   C6A  252  10.782   8.931   7.716  0.0486  0.0586  0.0972
   16loPI   C1B  253   9.908   8.107   9.562 -0.0085  0.0264 -0.2748
   16loPI   C2B  254   9.898   7.971   9.109 -0.0573  0.4199 -0.1546
   16loPI   C3B  255  10.145   8.130   8.810 -0.1103  0.1637 -0.3170
   16loPI   C4B  256  10.071   8.136   8.434  0.1759  0.1852 -0.2947
   17loPI    C1  257   5.150  13.098  10.413 -0.1493  0.1487 -0.2618
   17loPI    C2  258   4.795  13.127  10.595 -0.0095 -0.0094  0.0450
   17loPI    C3  259   5.003  13.458  10.507 -0.2116  0.0816 -0.0979
   17loPI   PO4  260   5.113  12.880  10.206 -0.0193  0.0594 -0.1905
   17loPI   GL1  261   5.293  12.883   9.823  0.0088  0.0630  0.1037
   17loPI   GL2  262   5.127  13.141   9.674  0.0847 -0.1659  0.1339
   17loPI   C1A  263   5.527  12.920   9.390 -0.0736 -0.0681  0.1323
   17loPI   C2A  264   5.713  12.986   8.966 -0.0747 -0.0572 -0.0942
   17loPI   C3A  265   5.784  13.044   8.612  0.0734  0.3036 -0.1099
   17loPI   C4A  266   6.002  13.258   8.320 -0.0878  0.2830  0.1572
   17loPI   C5A  267   6.008  13.148   7.842 -0.0012  0.2871 -0.1956
   17loPI   C6A  268   5.917  13.500   7.657  0.0131  0.3020  0.1646
   17loPI   C1B  269   5.399  13.370   9.236 -0.1770  0.0655  0.3414
   17loPI   C2B  270   5.444  13.761   9.095  0.0176  0.1775  0.0819
   17loPI   C3B  271   5.578  14.050   8.748 -0.0348 -0.0613 -0.2149
   17loPI   C4B  272   5.613  14.146   8.373  0.0305 -0.0131  0.0011
   18loPI    C1  273  15.949   6.595  10.505  0.1470  0.2480 -0.1142
   18loPI    C2  274  16.251   6.374  10.644 -0.2972 -0.1529  0.2485
   18loPI    C3  275  16.097   6.667  10.869 -0.0070  0.2394 -0.0490
   18loPI   PO4  276  16.037   6.595  10.258  0.0371 -0.0170  0.0766
   18loPI   GL1  277  15.889   6.812   9.855  0.0773 -0.1074 -0.1277
   18loPI   GL2  278  16.055   7.139   9.802 -0.0985 -0.0568  0.1986
   18loPI   C1A  279  15.942   6.607   9.309 -0.1333 -0.1622 -0.0691
   18loPI   C2A  280  16.153   6.491   8.937 -0.2144 -0.0666  0.1846
   18loPI   C3A  281  16.367   6.425   8.555  0.1918 -0.4122 -0.1336
   18loPI   C4A  282  16.579   6.768   8.308 -0.0142  0.0009  0.2605
   18loPI   C5A  283  16.888   6.936   8.100  0.1174  0.1173  0.0685
   18loPI   C6A  284  16.749   7.226   7.896  0.1178  0.1275 -0.2144
   18loPI   C1B  285  15.954   7.362   9.420 -0.2576  0.1388  0.5233
   18loPI   C2B  286  15.913   7.331   8.936 -0.0492  0.0783  0.3460
   18loPI   C3B  287  15.753   7.430   8.582 -0.0294  0.0304 -0.0513
   18loPI   C4B  288  15.803   7.406   8.123  0.0139 -0.6149  0.0181
   19loPI    C1  289  16.907   1.780  10.613  0.0885 -0.0910  0.0667
   19loPI    C2  290  17.074   1.463  10.791  0.1157 -0.0924  0.0389
   19loPI    C3  291  17.097   1.824  10.963 -0.1271 -0.1478  0.1931
   19loPI   PO4  292  17.000   1.656  10.267  0.2299  0.2103  0.0542
   19loPI   GL1  293  17.005   1.740   9.769  0.1070 -0.2567 -0.4359
   19loPI   GL2  294  17.283   1.888   9.903 -0.1220 -0.0200  0.0797
   19loPI   C1A  295  17.044   1.820   9.381 -0.0279  0.4406 -0.3800
   19loPI   C2A  296  17.132   1.862   8.914 -0.5176 -0.1816 -0.2588
   19loPI   C3A  297  17.200   1.771   8.364  0.0675 -0.1081 -0.0760
   19loPI   C4A  298  17.346   1.594   7.980  0.0386  0.1368 -0.1487
   19loPI   C5A  299  17.709   1.593   7.679  0.1543  0.0684  0.0930
   19loPI   C6A  300  18.139   1.526   7.708  0.0427 -0.1341  0.1843
   19loPI   C1B  301  17.474   2.068   9.498  0.0343  0.0356  0.3075
   19loPI   C2B  302  17.495   2.234   9.037 -0.1804 -0.0653  0.1537
   19loPI   C3B  303  17.484   2.185   8.555  0.0513  0.1114  0.0244
   19loPI   C4B  304  17.476   2.141   8.103  0.0962  0.4430 -0.4414
   20loPI    C1  305  16.549   1.392  10.755 -0.0127 -0.0650 -0.4888
   20loPI    C2  306  16.354   1.741  10.729  0.0571  0.0183  0.0140
   20loPI    C3  307  16.159   1.410  10.842  0.1231  0.0251  0.1500
   20loPI   PO4  308  16.631   1.313  10.505 -0.3175  0.2588  0.0790
   20loPI   GL1  309  16.713   1.253  10.071 -0.0724 -0.0822 -0.0239
   20loPI   GL2  310  16.890   1.045   9.928  0.1955 -0.1121  0.1895
   20loPI   C1A  311  16.835   1.384   9.563 -0.0418  0.0847 -0.0683
   20loPI   C2A  312  16.811   1.439   9.082 -0.0448 -0.2229 -0.0988
   20loPI   C3A  313  16.834   1.474   8.581  0.3879  0.0952  0.0998
   20loPI   C4A  314  16.860   1.404   8.183  0.0680  0.3138 -0.1798
   20loPI   C5A  315  16.940   1.252   7.822 -0.1325 -0.0587  0.0008
   20loPI   C6A  316  17.174   1.257   7.449  0.0483 -0.1396 -0.1893
   20loPI   C1B  317  17.013   0.830   9.572  0.1787 -0.3107  0.1696
   20loPI   C2B  318  17.126   0.883   9.111 -0.2648 -0.2781 -0.0825
   20loPI   C3B  319  17.065   0.907   8.610 -0.0096 -0.1283 -0.0044
   20loPI   C4B  320  17.077   0.939   8.200 -0.3333 -0.2034 -0.0076
   21loPI    C1  321  16.760  14.743  10.337  0.0723  0.1252  0.1393
   21loPI    C2  322  17.079  14.626  10.548  0.0151  0.0675  0.1944
   21loPI    C3  323  16.970  15.011  10.547  0.0151  0.0680  0.2707
   21loPI   PO4  324  16.720  14.623  10.170 -0.1363 -0.0694  0.1242
   21loPI   GL1  325  16.439  14.519   9.913  0.0816 -0.2347 -0.2101
   21loPI   GL2  326  16.452  14.236   9.680  0.1262  0.1436 -0.2218
   21loPI   C1A  327  16.405  14.720   9.533  0.1208 -0.1853  0.0454
   21loPI   C2A  328  16.419  14.775   9.064  0.2094 -0.3104 -0.2546
   21loPI   C3A  329  16.457  14.859   8.588  0.1277 -0.2850 -0.4609
   21loPI   C4A  330  16.313  14.794   8.227 -0.0899 -0.0215 -0.0784
   21loPI   C5A  331  16.172  14.481   7.934  0.0078 -0.1408 -0.2205
   21loPI   C6A  332  16.305  13.989   7.860 -0.0832 -0.1028  0.1157
   21loPI   C1B  333  16.383  14.333   9.302  0.0521  0.0214 -0.0074
   21loPI   C2B  334  16.375  14.309   8.882 -0.0436  0.1447  0.1385
   21loPI   C3B  335  16.461  14.370   8.452  0.1045  0.0198  0.3812
   21loPI   C4B  336  16.593  14.333   8.132  0.1621 -0.1303 -0.0071
   22loPI    C1  337   5.664   1.018   9.872 -0.0235 -0.1923  0.0204
   22loPI    C2  338   5.273   1.100   9.896  0.0711  0.2880  0.0267
   22loPI    C3  339   5.467   0.954  10.214 -0.1300 -0.1055 -0.0244
   22loPI   PO4  340   5.736   1.128   9.647  0.0986  0.2744  0.0039
   22loPI   GL1  341   5.967   0.974   9.390 -0.0864  0.3236  0.1333
   22loPI   GL2  342   5.887   0.715   9.378  0.3996 -0.2027  0.1306
   22loPI   C1A  343   6.383   0.914   9.069  0.1240 -0.2114 -0.0923
   22loPI   C2A  344   6.530   0.885   8.656 -0.0686  0.0874 -0.1757
   22loPI   C3A  345   6.541   1.158   8.326  0.1234  0.3300  0.0560
   22loPI   C4A  346   6.782   1.200   7.868 -0.0494 -0.0531 -0.0024
   22loPI   C5A  347   7.012   1.161   7.491 -0.3897 -0.1279  0.0955
   22loPI   C6A  348   7.378   1.028   7.456  0.0069  0.0714  0.0502
   22loPI   C1B  349   5.967   0.560   8.938  0.0139 -0.0178 -0.0637
   22loPI   C2B  350   5.953   0.770   8.631 -0.1337  0.1530 -0.2667
   22loPI   C3B  351   6.085   1.007   8.424 -0.0777  0.0735  0.0800
   22loPI   C4B  352   6.120   1.341   8.077  0.0198  0.0378 -0.1247
   23loPI    C1  353   4.888  11.038  10.132  0.0196 -0.0938  0.3740
   23loPI    C2  354   5.261  11.138  10.028 -0.0255 -0.3508 -0.0588
   23loPI    C3  355   5.196  10.926  10.361  0.1593  0.1516  0.3098
   23loPI   PO4  356   4.801  10.822   9.941  0.2646  0.2104  0.0091
   23loPI   GL1  357   5.016  10.710   9.555 -0.0599  0.3238  0.1146
   23loPI   GL2  358   5.159  10.344   9.581  0.1919 -0.1471  0.0819
   23loPI   C1A  359   4.823  10.682   9.101 -0.0070 -0.1514 -0.2931
   23loPI   C2A  360   4.685  10.666   8.772 -0.0598 -0.0804 -0.3938
   23loPI   C3A  361   4.744  10.903   8.429  0.0753 -0.1208  0.0303
   23loPI   C4A  362   4.796  10.904   8.002  0.1716 -0.3045 -0.0967
   23loPI   C5A  363   4.729  10.809   7.585  0.3488  0.0015  0.1289
   23loPI   C6A  364   5.049  11.052   7.327 -0.0428 -0.1892 -0.3531
   23loPI   C1B  365   5.350  10.250   9.217  0.1519 -0.0661 -0.0818
   23loPI   C2B  366   5.452  10.301   8.903  0.1694 -0.1360 -0.2296
   23loPI   C3B  367   5.568  10.465   8.522 -0.1184  0.1831 -0.3245
   23loPI   C4B  368   5.773  10.357   8.251 -0.0434 -0.2168 -0.1933
   24loPI    C1  369  12.294   2.321  10.674 -0.0632  0.1440 -0.0901
   24loPI    C2  370  12.538   2.275  10.988  0.0209  0.1316 -0.1570
   24loPI    C3  371  12.347   1.959  10.834 -0.1315  0.1604 -0.0296
   24loPI   PO4  372  12.280   2.573  10.498 -0.1410  0.1124  0.1839
   24loPI   GL1  373  12.267   2.790  10.086 -0.2649  0.2083 -0.3812
   24loPI   GL2  374  11.950   2.806   9.868 -0.2546 -0.0779  0.1109
   24loPI   C1A  375  12.430   2.822   9.635  0.0566 -0.0082 -0.0015
   24loPI   C2A  376  12.718   2.693   9.326  0.0836  0.1512  0.0077
   24loPI   C3A  377  12.761   2.610   8.839  0.2476  0.1844 -0.0424
   24loPI   C4A  378  12.808   2.491   8.489  0.2225 -0.2185 -0.1142
   24loPI   C5A  379  12.975   2.452   8.184  0.1368  0.0453  0.0621
   24loPI   C6A  380  13.299   2.319   7.825 -0.1315  0.0950  0.0079
   24loPI   C1B  381  11.982   2.809   9.479 -0.0104  0.3930  0.0097
   24loPI   C2B  382  12.214   2.869   9.171  0.1014 -0.2870 -0.0917
   24loPI   C3B  383  12.265   2.715   8.780  0.0588  0.0563 -0.1704
   24loPI   C4B  384  12.421   2.783   8.364  0.1838  0.1924 -0.1385
   25loPI    C1  385   2.437  15.999   9.557  0.0644  0.1860 -0.2338
   25loPI    C2  386   2.444  16.035   9.158  0.0236  0.3262 -0.2222
   25loPI    C3  387   2.443  16.362   9.389  0.1887  0.2447 -0.1045
   25loPI   PO4  388   2.208  15.807   9.562 -0.2875 -0.1691 -0.0458
   25loPI   GL1  389   1.955  15.747   9.254  0.0900 -0.0913  0.1760
   25loPI   GL2  390   1.721  15.659   9.229 -0.2867  0.0911  0.0530
   25loPI   C1A  391   2.014  15.875   8.773  0.0953  0.1651 -0.3090
   25loPI   C2A  392   1.914  15.842   8.338  0.4081 -0.1582 -0.1762
   25loPI   C3A  393   1.755  15.790   7.920 -0.2663 -0.2425 -0.0727
   25loPI   C4A  394   1.632  15.684   7.585  0.0338 -0.0624 -0.3052
   25loPI   C5A  395   1.741  15.428   7.208 -0.1100  0.1522  0.0754
   25loPI   C6A  396   1.771  15.512   6.703 -0.1868 -0.2042  0.0789
   25loPI   C1B  397   1.641  15.551   8.742  0.2372 -0.0676 -0.1397
   25loPI   C2B  398   1.442  15.676   8.307 -0.2105 -0.0555 -0.1201
   25loPI   C3B  399   1.225  15.632   7.951 -0.1387 -0.1883 -0.4405
   25loPI   C4B  400   1.198  15.855   7.558  0.0272  0.1349  0.0898
   26loPI    C1  401   4.887   1.375  10.089 -0.0120 -0.0128 -0.0056
   26loPI    C2  402   5.045   1.646  10.338  0.2057  0.1130 -0.2745
   26loPI    C3  403   5.096   1.255  10.407  0.1056  0.1428 -0.0229
   26loPI   PO4  404   4.589   1.528   9.992  0.1854  0.3086 -0.0817
   26loPI   GL1  405   4.407   1.379   9.510 -0.2592 -0.0841 -0.1374
   26loPI   GL2  406   4.626   1.340   9.293 -0.4912 -0.2488 -0.1135
   26loPI   C1A  407   4.139   1.353   9.115  0.0274 -0.0140 -0.6282
   26loPI   C2A  408   4.028   1.430   8.710  0.2778  0.1769 -0.1710
   26loPI   C3A  409   4.081   1.450   8.226 -0.0058 -0.0666 -0.1268
   26loPI   C4A  410   4.305   1.235   7.874  0.2220  0.0455 -0.1229
   26loPI   C5A  411   4.663   0.964   7.577 -0.0763 -0.1187 -0.0052
   26loPI   C6A  412   5.057   0.782   7.528  0.0823  0.1423 -0.3720
   26loPI   C1B  413   4.560   1.554   8.909 -0.4211  0.1200  0.5196
   26loPI   C2B  414   4.801   1.857   8.659  0.0002 -0.0782  0.1346
   26loPI   C3B  415   4.828   1.977   8.242  0.3052  0.1986  0.0799
   26loPI   C4B  416   4.806   2.072   7.855  0.4183 -0.0672  0.1182
   27loPI    C1  417  14.588   4.103  10.265 -0.1821  0.0509 -0.3389
   27loPI    C2  418  14.460   4.250  10.614  0.1228 -0.0353 -0.1872
   27loPI    C3  419  14.669   4.482  10.363 -0.0781  0.0205 -0.3057
   27loPI   PO4  420  14.393   4.077  10.118  0.4334  0.1499 -0.2960
   27loPI   GL1  421  14.216   4.182   9.766 -0.1391  0.3566  0.1554
   27loPI   GL2  422  14.446   3.883   9.691 -0.2084  0.0384 -0.0413
   27loPI   C1A  423  14.138   4.045   9.328  0.0764  0.3143  0.2823
   27loPI   C2A  424  14.271   3.949   8.991 -0.1163  0.1669  0.3631
   27loPI   C3A  425  14.143   3.887   8.513  0.1892  0.1187  0.0107
   27loPI   C4A  426  14.070   3.929   8.036  0.0436  0.3803  0.1261
   27loPI   C5A  427  14.096   3.881   7.736 -0.1203  0.0534  0.0834
   27loPI   C6A  428  14.104   3.532   7.613  0.0337  0.1634  0.0027
   27loPI   C1B  429  14.770   3.809   9.439 -0.0161 -0.0845  0.1782
   27loPI   C2B  430  14.773   3.863   9.013  0.2971 -0.0145 -0.1582
   27loPI   C3B  431  14.622   3.928   8.584 -0.0882  0.0768 -0.1246
   27loPI   C4B  432  14.648   3.882   8.187 -0.3202 -0.2192 -0.2491
   28loPI    C1  433   9.021   6.623  10.191  0.3701  0.0107 -0.2251
   28loPI    C2  434   9.345   6.603  10.424 -0.1315  0.0670  0.5141
   28loPI    C3  435   9.106   6.922  10.442 -0.1654  0.0908 -0.1271
   28loPI   PO4  436   9.006   6.590   9.971  0.0891 -0.2304  0.1356
   28loPI   GL1  437   9.168   6.611   9.668  0.1058 -0.0253  0.4362
   28loPI   GL2  438   9.135   6.933   9.497  0.0053 -0.2143  0.2713
   28loPI   C1A  439   9.357   6.561   9.284  0.0109 -0.1628 -0.1437
   28loPI   C2A  440   9.447   6.530   8.904  0.1316 -0.1704  0.2569
   28loPI   C3A  441   9.484   6.534   8.584  0.2863  0.4080  0.0479
   28loPI   C4A  442   9.393   6.410   8.129 -0.1156  0.0366 -0.0104
   28loPI   C5A  443   9.579   6.336   7.702  0.3485  0.2350  0.0100
   28loPI   C6A  444   9.843   6.062   7.555  0.1378  0.1151  0.0561
   28loPI   C1B  445   9.062   6.896   9.140 -0.1951 -0.0465  0.1389
   28loPI   C2B  446   9.096   6.878   8.721 -0.2372  0.4028 -0.1263
   28loPI   C3B  447   9.156   7.014   8.292  0.1194  0.1480 -0.2902
   28loPI   C4B  448   9.143   6.783   7.831 -0.2306 -0.0655  0.0461
   29loPI    C1  449   9.583  12.203  11.123 -0.1327  0.0795 -0.1694
   29loPI    C2  450   9.938  12.256  11.298 -0.0698 -0.2158 -0.2019
   29loPI    C3  451   9.605  12.251  11.519 -0.0638  0.1323 -0.1793
   29loPI   PO4  452   9.514  12.311  10.943 -0.0384 -0.0823 -0.0253
   29loPI   GL1  453   9.363  12.324  10.400  0.4138 -0.1867 -0.1204
   29loPI   GL2  454   9.653  12.077  10.273 -0.2526 -0.0459  0.0237
   29loPI   C1A  455   9.075  12.368  10.013  0.3212 -0.2052  0.1296
   29loPI   C2A  456   9.280  12.504   9.635 -0.0434  0.0087  0.1648
   29loPI   C3A  457   9.186  12.508   9.152  0.0022 -0.3399 -0.2155
   29loPI   C4A  458   9.388  12.404   8.733 -0.1802  0.0620  0.1183
   29loPI   C5A  459   9.219  12.389   8.336 -0.2947 -0.2812 -0.0016
   29loPI   C6A  460   8.918  12.514   7.983  0.1742  0.2224 -0.1346
   29loPI   C1B  461   9.582  12.191   9.818 -0.2138  0.1651  0.1123
   29loPI   C2B  462   9.256  12.068   9.435 -0.5075  0.1777  0.0239
   29loPI   C3B  463   9.319  11.991   9.048  0.0941 -0.0838  0.0356
   29loPI   C4B  464   9.229  11.746   8.512  0.1145  0.1669 -0.3194
   30loPI    C1  465   9.259  10.823  10.180 -0.0394 -0.2631  0.1848
   30loPI    C2  466   9.274  10.907  10.571 -0.0803  0.0121  0.1291
   30loPI    C3  467   9.187  11.195  10.307  0.2924 -0.0904 -0.1135
   30loPI   PO4  468   9.101  10.535  10.260  0.0062 -0.0418  0.0831
   30loPI   GL1  469   8.800  10.375   9.948  0.1820  0.1100 -0.0329
   30loPI   GL2  470   9.077  10.388   9.663 -0.0737  0.0373  0.0640
   30loPI   C1A  471   8.680  10.663   9.624  0.0155  0.1430  0.1457
   30loPI   C2A  472   8.885  10.728   9.137 -0.0794 -0.2215  0.0402
   30loPI   C3A  473   8.807  10.815   8.805 -0.0155 -0.1010  0.0292
   30loPI   C4A  474   9.118  10.882   8.525  0.0488 -0.0567 -0.1117
   30loPI   C5A  475   9.342  10.768   8.108 -0.2062  0.0748 -0.0998
   30loPI   C6A  476   9.392  10.776   7.668  0.2365 -0.0217  0.0324
   30loPI   C1B  477   9.323  10.626   9.347 -0.5215  0.1287  0.2067
   30loPI   C2B  478   9.365  10.783   8.897  0.1681  0.3029 -0.2204
   30loPI   C3B  479   9.622  10.834   8.594  0.0763  0.0923 -0.0736
   30loPI   C4B  480   9.867  10.794   8.299  0.1786 -0.2721  0.0842
   31loPI    C1  481   0.747  16.020  10.192  0.2431 -0.1134 -0.1045
   31loPI    C2  482   0.932  15.695  10.335 -0.1154 -0.3108 -0.0789
   31loPI    C3  483   0.795  15.975  10.587  0.0297 -0.2282 -0.0904
   31loPI   PO4  484   0.749  16.013   9.945  0.4346 -0.3641 -0.0890
   31loPI   GL1  485   0.947  15.900   9.525 -0.1613  0.2169 -0.0021
   31loPI   GL2  486   0.744  15.704   9.560  0.1285  0.0199  0.0812
   31loPI   C1A  487   0.928  15.753   9.069 -0.1557 -0.2014 -0.0020
   31loPI   C2A  488   0.622  15.683   8.783  0.2165  0.3378 -0.0824
   31loPI   C3A  489   0.544  15.915   8.478  0.0942 -0.0039  0.0586
   31loPI   C4A  490   0.326  15.955   8.102 -0.1889  0.0094 -0.0743
   31loPI   C5A  491  -0.122  15.930   7.817  0.0752 -0.1849 -0.2815
   31loPI   C6A  492  -0.530  16.074   7.592  0.3842 -0.4448  0.1689
   31loPI   C1B  493   0.437  15.523   9.262  0.0777 -0.0015  0.5743
   31loPI   C2B  494   0.301  15.103   9.160 -0.0876 -0.0811  0.1321
   31loPI   C3B  495   0.023  14.983   8.831 -0.2465 -0.1970  0.2819
   31loPI   C4B  496  -0.163  15.237   8.471 -0.1061 -0.0104 -0.2030
   32loPI    C1  497  16.642  15.464  10.613 -0.0947 -0.0132 -0.0883
   32loPI    C2  498  16.691  15.235  10.937  0.1157 -0.1626 -0.2233
   32loPI    C3  499  16.994  15.459  10.802 -0.0916  0.2108 -0.0842
   32loPI   PO4  500  16.512  15.242  10.468  0.4205  0.1815 -0.1374
   32loPI   GL1  501  16.588  15.158  10.089  0.1266  0.1014  0.2372
   32loPI   GL2  502  16.945  15.066  10.004 -0.1442  0.0311  0.1772
   32loPI   C1A  503  16.423  15.219   9.691  0.3668 -0.0355  0.0557
   32loPI   C2A  504  16.181  15.156   9.343 -0.1530  0.0853  0.1688
   32loPI   C3A  505  16.197  15.167   8.935  0.1394 -0.1539  0.2253
   32loPI   C4A  506  16.040  15.178   8.458  0.0656  0.2756  0.1576
   32loPI   C5A  507  15.923  15.404   8.147 -0.1521  0.0855  0.0484
   32loPI   C6A  508  15.770  15.858   8.158  0.0448 -0.2003  0.3543
   32loPI   C1B  509  16.853  15.060   9.579  0.0406  0.1177 -0.1830
   32loPI   C2B  510  16.717  15.125   9.211 -0.0759  0.0081 -0.2868
   32loPI   C3B  511  16.677  15.221   8.833  0.0724  0.0491 -0.1257
   32loPI   C4B  512  16.469  15.376   8.459 -0.0819 -0.0483  0.3706
   33loPI    C1  513  15.654   0.275  10.447 -0.0309 -0.1634 -0.0259
   33loPI    C2  514  15.799   0.537  10.712 -0.3455  0.2206 -0.2211
   33loPI    C3  515  15.517   0.276  10.822 -0.1517  0.0720 -0.0684
   33loPI   PO4  516  15.796   0.086  10.330 -0.0599 -0.1270 -0.0472
   33loPI   GL1  517  15.926  -0.130   9.942  0.0358 -0.2826  0.0647
   33loPI   GL2  518  16.328  -0.014  10.070 -0.1208  0.0270  0.0560
   33loPI   C1A  519  15.843   0.154   9.503 -0.0664 -0.2692  0.0151
   33loPI   C2A  520  15.390   0.416   9.469 -0.1917 -0.0110  0.2045
   33loPI   C3A  521  15.248   0.761   9.122  0.2984  0.1494 -0.0117
   33loPI   C4A  522  15.309   0.695   8.720 -0.1311  0.0306  0.1875
   33loPI   C5A  523  15.391   0.353   8.492 -0.0427  0.2549  0.2399
   33loPI   C6A  524  15.510  -0.055   8.198 -0.0580 -0.0437  0.2223
   33loPI   C1B  525  16.290   0.035   9.675  0.1175  0.2093  0.1225
   33loPI   C2B  526  16.462   0.184   9.290  0.0434 -0.1226  0.0374
   33loPI   C3B  527  16.356   0.195   8.830  0.1047  0.0309 -0.0424
   33loPI   C4B  528  16.314   0.041   8.465 -0.2087 -0.0440  0.2234
   34loPI    C1  529  15.226   2.681  10.107  0.0194  0.0107  0.0351
   34loPI    C2  530  15.354   2.789  10.471  0.2045  0.1901 -0.0811
   34loPI    C3  531  15.178   3.058  10.232 -0.0157  0.0463 -0.0841
   34loPI   PO4  532  15.064   2.486  10.125  0.3646  0.0615  0.0205
   34loPI   GL1  533  15.032   2.366   9.795  0.0095  0.1524  0.0191
   34loPI   GL2  534  14.679   2.489   9.816  0.3266  0.3192  0.1158
   34loPI   C1A  535  14.900   2.522   9.364  0.0371  0.2199 -0.3019
   34loPI   C2A  536  14.905   2.610   8.954  0.1666  0.1577 -0.1777
   34loPI   C3A  537  14.850   2.537   8.541 -0.1662  0.1306  0.1444
   34loPI   C4A  538  14.895   2.380   8.181 -0.0383  0.0357 -0.2881
   34loPI   C5A  539  14.964   1.920   7.976  0.0812  0.2477 -0.2748
   34loPI   C6A  540  14.763   1.864   7.626  0.0778  0.1982  0.1865
   34loPI   C1B  541  14.440   2.726   9.498  0.0225  0.1324 -0.2604
   34loPI   C2B  542  14.419   2.612   9.152  0.0006 -0.2459  0.0561
   34loPI   C3B  543  14.331   2.554   8.680 -0.1047 -0.0133  0.1587
   34loPI   C4B  544  14.360   2.551   8.264 -0.1838 -0.1562  0.4509
   35loPI    C1  545  10.949  12.425  10.794  0.2850 -0.0549  0.0583
   35loPI    C2  546  10.894  12.032  10.849 -0.0829 -0.0072  0.0524
   35loPI    C3  547  10.877  12.282  11.161 -0.0034  0.0216  0.0338
   35loPI   PO4  548  11.205  12.491  10.701  0.1500  0.4643 -0.1607
   35loPI   GL1  549  11.374  12.296  10.351 -0.1759  0.0997  0.4074
   35loPI   GL2  550  11.173  12.093  10.347 -0.0762 -0.0969 -0.2921
   35loPI   C1A  551  11.492  12.391   9.946  0.3692 -0.1138 -0.1347
   35loPI   C2A  552  11.560  12.285   9.481 -0.1551  0.2785  0.0307
   35loPI   C3A  553  11.492  12.343   9.071  0.0974  0.1115 -0.2802
   35loPI   C4A  554  11.612  12.191   8.650  0.1819  0.0037 -0.5306
   35loPI   C5A  555  11.650  12.038   8.294 -0.2047 -0.3119 -0.1315
   35loPI   C6A  556  11.899  11.952   8.019  0.0447 -0.0706 -0.2811
   35loPI   C1B  557  10.870  12.256  10.122  0.1536 -0.2450  0.1115
   35loPI   C2B  558  10.475  12.067  10.012 -0.0040  0.2238 -0.2282
   35loPI   C3B  559  10.333  12.015   9.599 -0.1121  0.0434 -0.1664
   35loPI   C4B  560  10.304  12.038   9.112  0.1219 -0.0596 -0.3649
   36loPI    C1  561  13.173  15.922  10.348  0.0586  0.0072  0.1054
   36loPI    C2  562  13.236  16.313  10.402  0.0447  0.0360 -0.0818
   36loPI    C3  563  13.013  16.108  10.664  0.1845  0.1189  0.1039
   36loPI   PO4  564  13.149  15.942  10.072  0.2966 -0.0829 -0.0149
   36loPI   GL1  565  13.020  15.877   9.640  0.0539 -0.0598  0.0604
   36loPI   GL2  566  13.144  16.171   9.568  0.2964  0.2264  0.0065
   36loPI   C1A  567  12.668  15.792   9.180 -0.3014  0.0440 -0.2482
   36loPI   C2A  568  12.480  15.850   8.714 -0.1167 -0.0213  0.0487
   36loPI   C3A  569  12.452  16.058   8.311  0.0172 -0.1628 -0.1201
   36loPI   C4A  570  12.185  16.115   7.949  0.0264 -0.1801  0.2517
   36loPI   C5A  571  12.151  16.045   7.472  0.0380 -0.2717  0.3140
   36loPI   C6A  572  12.394  16.082   7.048 -0.2646 -0.0256 -0.0027
   36loPI   C1B  573  13.039  16.292   9.134 -0.3396  0.1207 -0.0107
   36loPI   C2B  574  12.773  16.291   8.738 -0.0188 -0.0849 -0.1715
   36loPI   C3B  575  12.500  16.615   8.378 -0.0562  0.4932  0.0390
   36loPI   C4B  576  12.668  16.810   8.068  0.4457  0.1076 -0.0241
   37loPI    C1  577   4.178  11.769   9.624  0.1377 -0.1751  0.1997
   37loPI    C2  578   4.201  11.731  10.022 -0.0297 -0.1433  0.2131
   37loPI    C3  579   4.529  11.819   9.810  0.0350 -0.0327  0.3577
   37loPI   PO4  580   3.946  11.587   9.554  0.1763 -0.1173 -0.0418
   37loPI   GL1  581   3.867  11.449   9.184 -0.0610  0.1160  0.0174
   37loPI   GL2  582   4.240  11.532   9.127 -0.0430  0.3263 -0.0083
   37loPI   C1A  583   3.682  11.326   8.768 -0.1113  0.4768 -0.3376
   37loPI   C2A  584   3.737  11.262   8.284 -0.0261  0.1002  0.0391
   37loPI   C3A  585   3.932  11.422   7.963 -0.2388 -0.0906  0.0350
   37loPI   C4A  586   4.110  11.451   7.574  0.2452 -0.0950 -0.3089
   37loPI   C5A  587   4.273  11.493   7.157 -0.0544 -0.0046 -0.0448
   37loPI   C6A  588   4.407  11.628   6.792 -0.1139 -0.0152 -0.1132
   37loPI   C1B  589   4.377  11.859   8.907  0.1968 -0.2816 -0.0310
   37loPI   C2B  590   4.566  12.201   8.693 -0.0735 -0.2015  0.2640
   37loPI   C3B  591   4.860  12.472   8.491 -0.2715 -0.0319 -0.1155
   37loPI   C4B  592   5.246  12.763   8.496  0.1374 -0.0803 -0.2099
   38loPI    C1  593   4.919   7.899   9.750 -0.0411 -0.1558 -0.0969
   38loPI    C2  594   5.048   8.114  10.062 -0.0583 -0.1078 -0.1226
   38loPI    C3  595   4.800   7.805  10.120 -0.1048 -0.0653 -0.0941
   38loPI   PO4  596   5.049   7.879   9.633 -0.3269 -0.0065  0.2404
   38loPI   GL1  597   5.201   7.581   9.356  0.0312  0.2767  0.0936
   38loPI   GL2  598   4.877   7.392   9.336  0.0357 -0.1297  0.1710
   38loPI   C1A  599   5.332   7.519   8.920 -0.0064  0.1042  0.5074
   38loPI   C2A  600   5.309   7.393   8.436  0.0107  0.2520  0.2439
   38loPI   C3A  601   5.251   7.470   7.985 -0.0639 -0.2858 -0.1612
   38loPI   C4A  602   5.182   7.775   7.583 -0.0136  0.1910  0.3146
   38loPI   C5A  603   5.255   8.101   7.294 -0.0533 -0.0435  0.0616
   38loPI   C6A  604   5.197   8.252   6.889  0.0492  0.0715  0.0341
   38loPI   C1B  605   4.864   7.476   8.865  0.0332 -0.1765 -0.1056
   38loPI   C2B  606   4.836   7.484   8.358 -0.3462 -0.1341  0.1386
   38loPI   C3B  607   4.822   7.709   7.942 -0.0638  0.1458 -0.3503
   38loPI   C4B  608   4.634   7.805   7.524 -0.1778 -0.0602 -0.0823
   39loPI    C1  609  10.642   5.191  10.407  0.1851  0.0836 -0.0844
   39loPI    C2  610  10.983   5.108  10.599  0.2209  0.1288 -0.1285
   39loPI    C3  611  10.660   5.221  10.806  0.1242 -0.2761 -0.0512
   39loPI   PO4  612  10.746   5.357  10.211  0.0857 -0.0099  0.1923
   39loPI   GL1  613  10.691   5.469   9.815 -0.2577  0.0766 -0.1693
   39loPI   GL2  614  10.719   5.169   9.714 -0.2028  0.1911  0.1455
   39loPI   C1A  615  10.959   5.758   9.579 -0.0601 -0.0517  0.2032
   39loPI   C2A  616  11.066   5.823   9.171 -0.0254 -0.2307 -0.0411
   39loPI   C3A  617  10.824   6.004   8.763 -0.0656  0.0244  0.0865
   39loPI   C4A  618  10.429   6.219   8.649 -0.1974  0.2259 -0.0502
   39loPI   C5A  619  10.345   6.080   8.207 -0.2025 -0.1843  0.0893
   39loPI   C6A  620  10.397   5.720   7.989 -0.2980  0.2388  0.0477
   39loPI   C1B  621  10.765   5.408   9.325 -0.0098 -0.2356 -0.3316
   39loPI   C2B  622  10.794   5.503   8.883  0.0927  0.3023  0.0905
   39loPI   C3B  623  10.752   5.490   8.431  0.0330 -0.0996 -0.2580
   39loPI   C4B  624  10.869   5.558   7.941  0.2781  0.0386  0.1487
   40loPI    C1  625   5.174   3.674   9.548 -0.0027 -0.0849 -0.0344
   40loPI    C2  626   5.481   3.865   9.719 -0.1630  0.0462  0.1100
   40loPI    C3  627   5.463   3.466   9.730 -0.0118  0.0393  0.1246
   40loPI   PO4  628   5.237   3.800   9.278 -0.0307  0.1598  0.2323
   40loPI   GL1  629   5.111   4.117   9.027  0.0237  0.0585 -0.0195
   40loPI   GL2  630   4.793   4.224   8.877 -0.0683 -0.0722  0.1302
   40loPI   C1A  631   5.132   3.940   8.582  0.1993  0.2811 -0.1560
   40loPI   C2A  632   5.220   3.949   8.166 -0.0359  0.0587  0.3777
   40loPI   C3A  633   5.143   4.109   7.831  0.1801  0.1603  0.3034
   40loPI   C4A  634   4.754   4.134   7.604  0.4740  0.2493 -0.1401
   40loPI   C5A  635   4.527   4.136   7.288  0.1602 -0.1443 -0.0845
   40loPI   C6A  636   4.359   3.855   7.024  0.3440 -0.0356  0.1594
   40loPI   C1B  637   4.795   4.263   8.394 -0.1147  0.1755  0.0857
   40loPI   C2B  638   4.806   4.416   7.986  0.3423  0.0710  0.0952
   40loPI   C3B  639   4.540   4.586   7.525  0.2470 -0.0267  0.1671
   40loPI   C4B  640   4.148   4.595   7.338  0.1037 -0.1737  0.1702
   41loPI    C1  641  16.965  15.867  10.559 -0.1367  0.0161 -0.2508
   41loPI    C2  642  16.736  15.876  10.887 -0.1458 -0.2713 -0.2472
   41loPI    C3  643  17.086  16.069  10.883 -0.2578 -0.0623 -0.1557
   41loPI   PO4  644  16.858  15.943  10.395  0.0340  0.1605  0.2742
   41loPI   GL1  645  16.602  15.818  10.159  0.0131 -0.0393 -0.0542
   41loPI   GL2  646  16.436  15.659   9.880 -0.0818 -0.2229 -0.1087
   41loPI   C1A  647  16.887  15.539   9.809 -0.1210  0.2341 -0.2148
   41loPI   C2A  648  17.056  15.840   9.414 -0.2006 -0.0565 -0.0694
   41loPI   C3A  649  16.870  15.858   9.026  0.2017  0.0915 -0.2143
   41loPI   C4A  650  16.732  15.901   8.586 -0.1200 -0.0221 -0.0713
   41loPI   C5A  651  16.611  16.024   8.147 -0.0803  0.0663 -0.0823
   41loPI   C6A  652  16.715  16.130   7.749  0.0519  0.0609  0.2933
   41loPI   C1B  653  16.540  15.592   9.397  0.1124  0.3335 -0.0475
   41loPI   C2B  654  16.487  15.580   9.119  0.0697 -0.3201 -0.0672
   41loPI   C3B  655  16.251  15.630   8.747  0.3363  0.1594 -0.0896
   41loPI   C4B  656  16.201  15.778   8.402  0.2852 -0.0775 -0.2406
   42loPI    C1  657   8.653  13.203  10.438 -0.1431 -0.0482 -0.0094
   42loPI    C2  658   8.646  13.382  10.795  0.1461  0.0190 -0.0349
   42loPI    C3  659   8.599  12.986  10.770 -0.2139  0.0524  0.0453
   42loPI   PO4  660   8.838  13.297  10.337  0.2998 -0.3112  0.2942
   42loPI   GL1  661   9.057  13.504  10.112  0.0289 -0.0804 -0.2478
   42loPI   GL2  662   8.794  13.452   9.883 -0.2152 -0.1329 -0.0802
   42loPI   C1A  663   9.365  13.674   9.829 -0.0154  0.2098 -0.3589
   42loPI   C2A  664   9.469  13.676   9.368 -0.0187  0.2262 -0.1852
   42loPI   C3A  665   9.377  13.766   9.016  0.1900  0.1802 -0.0310
   42loPI   C4A  666   9.530  13.941   8.619 -0.0632  0.0094 -0.5070
   42loPI   C5A  667   9.821  14.178   8.333  0.1609  0.2986 -0.4190
   42loPI   C6A  668   9.916  14.589   8.145  0.0605  0.1586  0.2415
   42loPI   C1B  669   9.003  13.408   9.534  0.3145 -0.0184  0.2590
   42loPI   C2B  670   9.060  13.444   9.152  0.0727  0.1539  0.0800
   42loPI   C3B  671   9.094  13.549   8.692  0.1062 -0.3528 -0.0060
   42loPI   C4B  672   9.453  13.524   8.380  0.1755  0.1205 -0.1465
   43loPI    C1  673   2.397   7.714   9.571  0.1217 -0.0575  0.2257
   43loPI    C2  674   2.620   7.984   9.765  0.0139  0.0121  0.2541
   43loPI    C3  675   2.744   7.604   9.737  0.0544  0.0127  0.4156
   43loPI   PO4  676   2.131   7.781   9.627 -0.2831 -0.0125 -0.0665
   43loPI   GL1  677   1.778   7.833   9.312 -0.1556 -0.0628  0.0465
   43loPI   GL2  678   1.934   8.067   9.152 -0.2263 -0.0690  0.1019
   43loPI   C1A  679   1.739   7.640   8.899 -0.0378  0.1988 -0.3838
   43loPI   C2A  680   1.667   7.618   8.453  0.0489  0.1223  0.0108
   43loPI   C3A  681   1.652   7.603   8.011 -0.2112  0.2005 -0.1597
   43loPI   C4A  682   1.724   7.756   7.567 -0.0006 -0.1253 -0.0471
   43loPI   C5A  683   1.769   7.919   7.226  0.1621  0.0265 -0.2556
   43loPI   C6A  684   1.681   7.777   6.821 -0.0995 -0.0239  0.1639
   43loPI   C1B  685   1.881   8.050   8.687  0.0555  0.0198 -0.2396
   43loPI   C2B  686   1.836   8.077   8.373  0.3256 -0.0072 -0.0541
   43loPI   C3B  687   1.859   8.040   8.053  0.0378 -0.1109  0.2305
   43loPI   C4B  688   1.561   8.179   7.683 -0.4297  0.2347  0.0199
   44loPI    C1  689   0.850   6.758   9.975 -0.0373  0.1492 -0.0065
   44loPI    C2  690   0.662   6.563  10.269  0.0952 -0.0325 -0.0407
   44loPI    C3  691   0.967   6.808  10.354  0.0534  0.0109 -0.0157
   44loPI   PO4  692   0.728   6.928   9.816 -0.1578  0.1409  0.1798
   44loPI   GL1  693   0.313   6.900   9.500 -0.1412 -0.2618 -0.5655
   44loPI   GL2  694   0.510   7.082   9.233 -0.0562 -0.1261 -0.0556
   44loPI   C1A  695  -0.003   7.049   9.190  0.1661  0.0048 -0.0236
   44loPI   C2A  696  -0.154   7.078   8.864  0.1053 -0.2092 -0.0143
   44loPI   C3A  697  -0.349   7.321   8.559 -0.1152  0.0567  0.0757
   44loPI   C4A  698  -0.537   7.084   8.149  0.1002 -0.2091  0.1437
   44loPI   C5A  699  -0.638   6.931   7.725  0.0412 -0.1480 -0.3184
   44loPI   C6A  700  -0.703   6.754   7.424 -0.0851  0.0321  0.1865
   44loPI   C1B  701   0.408   7.050   8.820  0.1487  0.0145  0.0951
   44loPI   C2B  702   0.470   7.064   8.368  0.3757  0.0097  0.0091
   44loPI   C3B  703   0.453   7.118   7.897 -0.0506  0.3454  0.1966
   44loPI   C4B  704   0.638   6.940   7.467  0.3052 -0.0871 -0.1531
   45loPI    C1  705  11.387   8.482  10.340 -0.0429  0.2486 -0.0938
   45loPI    C2  706  11.685   8.383  10.587 -0.0893 -0.1431 -0.1882
   45loPI    C3  707  11.306   8.360  10.712 -0.0978 -0.0129 -0.1890
   45loPI   PO4  708  11.404   8.391  10.136  0.0352  0.1112 -0.0373
   45loPI   GL1  709  11.145   8.101   9.934  0.1724 -0.0773  0.0826
   45loPI   GL2  710  11.251   7.959   9.838 -0.1085 -0.1954 -0.0847
   45loPI   C1A  711  11.091   8.364   9.545  0.0194 -0.2390 -0.2610
   45loPI   C2A  712  11.202   8.382   9.051 -0.1361 -0.0397  0.1880
   45loPI   C3A  713  11.276   8.198   8.612  0.2419 -0.3047  0.0348
   45loPI   C4A  714  11.420   8.205   8.144  0.2959 -0.1200 -0.1590
   45loPI   C5A  715  11.477   7.912   7.858 -0.1289  0.1826 -0.1063
   45loPI   C6A  716  11.826   7.975   7.629  0.2751  0.2098 -0.2324
   45loPI   C1B  717  11.243   7.922   9.346  0.1565  0.1384  0.2082
   45loPI   C2B  718  11.378   7.650   9.080 -0.1371  0.0476 -0.0296
   45loPI   C3B  719  11.333   7.585   8.644  0.0218 -0.1614  0.0729
   45loPI   C4B  720  11.346   7.661   8.252 -0.0349  0.1048  0.1180
   46loPI    C1  721   8.240   1.264   9.943 -0.0421 -0.2002 -0.2380
   46loPI    C2  722   8.363   0.948  10.155  0.0724 -0.0979 -0.1501
   46loPI    C3  723   8.081   1.190  10.302  0.3419  0.1255  0.0084
   46loPI   PO4  724   8.379   1.408   9.920 -0.1775  0.1680 -0.1196
   46loPI   GL1  725   8.746   1.363   9.690 -0.0547  0.0171 -0.1585
   46loPI   GL2  726   8.940   1.576   9.596 -0.3849  0.3955 -0.2137
   46loPI   C1A  727   8.615   1.310   9.243  0.2599 -0.0922 -0.1379
   46loPI   C2A  728   8.707   1.386   8.846  0.1084 -0.3192  0.2014
   46loPI   C3A  729   8.971   1.535   8.534 -0.0369 -0.1348  0.3930
   46loPI   C4A  730   9.128   1.761   8.207 -0.0862 -0.1062  0.3207
   46loPI   C5A  731   9.418   1.760   7.932  0.1919 -0.1489 -0.0911
   46loPI   C6A  732   9.817   1.858   7.987  0.4808  0.0386 -0.0320
   46loPI   C1B  733   9.270   1.858   9.428  0.0468  0.0906  0.1015
   46loPI   C2B  734   9.665   1.983   9.336  0.1665  0.1286 -0.2474
   46loPI   C3B  735   9.881   1.953   9.032  0.0002 -0.1024  0.1640
   46loPI   C4B  736   9.975   2.016   8.644  0.0609 -0.1443 -0.1744
   47loPI    C1  737   5.783   9.189  10.066  0.2598  0.2293 -0.1388
   47loPI    C2  738   5.878   9.442   9.771 -0.1762  0.1497 -0.3553
   47loPI    C3  739   5.618   9.553  10.055  0.0832  0.1513 -0.1147
   47loPI   PO4  740   5.727   8.971   9.918 -0.1517  0.1109  0.3508
   47loPI   GL1  741   5.798   9.037   9.459  0.0438 -0.1228  0.2080
   47loPI   GL2  742   5.697   8.813   9.268  0.0248 -0.0810  0.0626
   47loPI   C1A  743   5.985   9.343   9.143  0.1903 -0.4106  0.0678
   47loPI   C2A  744   6.020   9.392   8.704 -0.2973  0.2925 -0.1485
   47loPI   C3A  745   6.124   9.457   8.251 -0.0521 -0.1150 -0.0577
   47loPI   C4A  746   6.065   9.597   7.789 -0.1383  0.1627 -0.2004
   47loPI   C5A  747   5.891   9.673   7.455  0.0956 -0.0694  0.0978
   47loPI   C6A  748   6.148   9.658   7.018  0.0586 -0.1641 -0.2303
   47loPI   C1B  749   5.699   8.908   8.900 -0.0921 -0.0274  0.1144
   47loPI   C2B  750   5.790   8.876   8.486  0.1396 -0.2219 -0.2721
   47loPI   C3B  751   5.809   8.734   8.068  0.0817 -0.1826 -0.0023
   47loPI   C4B  752   6.011   8.510   7.809  0.0209  0.0075 -0.1506
   48loPI    C1  753   2.633  11.981   9.844  0.0242  0.0704 -0.1672
   48loPI    C2  754   2.678  11.883  10.230  0.0858  0.0416 -0.1816
   48loPI    C3  755   2.336  12.047  10.104  0.0460  0.0030 -0.1247
   48loPI   PO4  756   2.841  12.136   9.694  0.0508  0.0713  0.2168
   48loPI   GL1  757   3.177  11.888   9.543 -0.1139 -0.0852  0.0138
   48loPI   GL2  758   3.449  11.720   9.381 -0.1896  0.2817  0.3619
   48loPI   C1A  759   3.037  12.001   9.061  0.0428 -0.0863 -0.0297
   48loPI   C2A  760   3.290  12.129   8.681  0.0682  0.4907 -0.1874
   48loPI   C3A  761   3.408  12.218   8.280  0.1355  0.1083 -0.0867
   48loPI   C4A  762   3.588  12.198   7.771 -0.0995  0.2619 -0.3145
   48loPI   C5A  763   3.924  12.196   7.554 -0.2857  0.1685  0.0074
   48loPI   C6A  764   4.209  11.978   7.474  0.0145  0.0897  0.0838
   48loPI   C1B  765   3.369  11.702   8.941 -0.1477 -0.1232 -0.0728
   48loPI   C2B  766   3.268  11.617   8.510  0.1246 -0.2502  0.2268
   48loPI   C3B  767   3.047  11.678   8.159  0.0627  0.0769  0.0708
   48loPI   C4B  768   3.123  11.808   7.732  0.0099 -0.2105 -0.2867
   49loPI    C1  769   9.125   7.437  10.219 -0.2439  0.4078 -0.0638
   49loPI    C2  770   8.894   7.711  10.396 -0.2415  0.2537  0.1837
   49loPI    C3  771   9.070   7.427  10.615  0.0274  0.2532 -0.0276
   49loPI   PO4  772   9.201   7.584   9.947 -0.2448 -0.0362 -0.1868
   49loPI   GL1  773   9.142   7.438   9.512 -0.2522 -0.0301  0.1302
   49loPI   GL2  774   8.808   7.395   9.509 -0.3017  0.1468 -0.1017
   49loPI   C1A  775   9.239   7.371   9.188 -0.3399 -0.1242 -0.1008
   49loPI   C2A  776   9.125   7.413   8.698 -0.1184  0.0819 -0.1830
   49loPI   C3A  777   9.169   7.524   8.270 -0.0216 -0.4681 -0.0486
   49loPI   C4A  778   8.974   7.409   7.915  0.0436 -0.2783  0.2416
   49loPI   C5A  779   8.603   7.275   7.639  0.1698  0.1078  0.1534
   49loPI   C6A  780   8.218   6.905   7.686 -0.3234 -0.0880  0.0677
   49loPI   C1B  781   8.614   7.556   9.185 -0.2757  0.1239 -0.1022
   49loPI   C2B  782   8.642   7.644   8.726  0.0218 -0.0297  0.1505
   49loPI   C3B  783   8.699   7.691   8.291 -0.0798 -0.2231 -0.0818
   49loPI   C4B  784   8.575   7.699   7.914 -0.2650  0.0571 -0.1136
   50loPI    C1  785  15.121  14.328  10.935  0.2215 -0.2168 -0.1387
   50loPI    C2  786  15.473  14.204  11.080  0.0754 -0.1494  0.2905
   50loPI    C3  787  15.279  14.505  11.258 -0.0988 -0.0401 -0.0740
   50loPI   PO4  788  15.171  14.313  10.706 -0.2117  0.2989  0.1955
   50loPI   GL1  789  15.199  14.036  10.344 -0.0900  0.3436  0.2937
   50loPI   GL2  790  14.920  14.262  10.240 -0.0911  0.1956  0.2015
   50loPI   C1A  791  15.455  14.258  10.100 -0.0351  0.2468  0.2749
   50loPI   C2A  792  15.488  14.458   9.677 -0.2036  0.2044  0.2718
   50loPI   C3A  793  15.557  14.409   9.273 -0.0053  0.0900  0.0325
   50loPI   C4A  794  15.503  14.438   8.843 -0.0121 -0.2551  0.0593
   50loPI   C5A  795  15.399  14.465   8.377 -0.0656  0.0924  0.1296
   50loPI   C6A  796  15.206  14.192   8.139 -0.2700 -0.0122 -0.2367
   50loPI   C1B  797  14.977  14.360   9.835 -0.0063 -0.0720 -0.1654
   50loPI   C2B  798  14.987  14.324   9.492  0.1738 -0.0678  0.0279
   50loPI   C3B  799  15.105  14.238   9.120  0.1397  0.0629  0.0315
   50loPI   C4B  800  15.016  14.301   8.739 -0.1210  0.2715 -0.2390
   51loPI    C1  801   7.333   9.252  10.191  0.0581 -0.0669 -0.0556
   51loPI    C2  802   7.654   9.465  10.296  0.0287 -0.1100  0.1245
   51loPI    C3  803   7.528   9.165  10.528 -0.0348 -0.2103 -0.0379
   51loPI   PO4  804   7.397   9.196   9.852  0.0955  0.2802 -0.2154
   51loPI   GL1  805   7.415   9.337   9.547 -0.2351  0.1144 -0.1987
   51loPI   GL2  806   7.461   8.874   9.460 -0.1980 -0.3492 -0.0723
   51loPI   C1A  807   7.039   9.463   9.328  0.1769  0.2669 -0.2854
   51loPI   C2A  808   6.997   9.587   8.818 -0.2581  0.1852  0.1593
   51loPI   C3A  809   7.049   9.668   8.459  0.1506  0.0366  0.2394
   51loPI   C4A  810   7.118   9.708   8.061 -0.0680 -0.2302  0.0317
   51loPI   C5A  811   7.209   9.793   7.672 -0.1090  0.0937 -0.3845
   51loPI   C6A  812   7.008  10.217   7.476 -0.2192  0.1836 -0.2766
   51loPI   C1B  813   7.574   9.100   9.022  0.1053  0.0771 -0.1575
   51loPI   C2B  814   7.811   9.279   8.872 -0.5175  0.2710  0.2500
   51loPI   C3B  815   7.852   9.312   8.432  0.3364 -0.0144 -0.1417
   51loPI   C4B  816   8.028   9.348   7.934 -0.0256  0.1405  0.1009
   52loPI    C1  817  16.259   9.362  10.234 -0.0555  0.1428  0.0237
   52loPI    C2  818  16.443   9.291  10.582  0.0142 -0.1619 -0.0724
   52loPI    C3  819  16.277   9.648  10.513 -0.1596 -0.1565  0.3450
   52loPI   PO4  820  16.487   9.351  10.081  0.0714 -0.1929  0.0664
   52loPI   GL1  821  16.373   9.584   9.750 -0.0356 -0.1947  0.0559
   52loPI   GL2  822  16.093   9.437   9.762 -0.2015 -0.2381 -0.0761
   52loPI   C1A  823  16.312   9.885   9.335 -0.0416 -0.3168 -0.1598
   52loPI   C2A  824  16.320   9.852   8.969 -0.0814  0.2612  0.3459
   52loPI   C3A  825  16.274   9.915   8.505  0.1135  0.2033  0.0943
   52loPI   C4A  826  16.273   9.732   8.096  0.1748 -0.3229 -0.0558
   52loPI   C5A  827  16.103   9.408   7.962 -0.1054  0.0502  0.0294
   52loPI   C6A  828  16.043   9.005   7.789  0.0134  0.0584  0.2491
   52loPI   C1B  829  16.236   9.350   9.314  0.0607 -0.2486  0.1638
   52loPI   C2B  830  16.301   9.263   8.983  0.1748  0.4266  0.4300
   52loPI   C3B  831  16.518   8.982   8.898 -0.0234 -0.0494  0.3442
   52loPI   C4B  832  16.554   8.630   8.704  0.1371 -0.2684 -0.3360
   53loPI    C1  833  14.915  13.756  10.671 -0.1203  0.1474  0.0428
   53loPI    C2  834  14.883  13.611  11.042  0.0318 -0.0799 -0.0312
   53loPI    C3  835  15.222  13.788  10.925 -0.0901  0.1809  0.0024
   53loPI   PO4  836  14.851  13.527  10.514 -0.3527 -0.1734  0.2910
   53loPI   GL1  837  15.121  13.626  10.114 -0.4159 -0.0300  0.1076
   53loPI   GL2  838  14.823  13.797  10.137  0.0184 -0.0042 -0.0420
   53loPI   C1A  839  14.985  13.318   9.883  0.0569 -0.0257  0.2708
   53loPI   C2A  840  14.910  13.183   9.501  0.1886  0.3263  0.1136
   53loPI   C3A  841  14.893  13.227   9.129 -0.0078 -0.1113 -0.4415
   53loPI   C4A  842  14.917  13.226   8.727 -0.1314 -0.0017 -0.1948
   53loPI   C5A  843  15.021  13.186   8.275  0.1936  0.0336 -0.0854
   53loPI   C6A  844  15.082  13.419   7.949  0.3634 -0.1707  0.1433
   53loPI   C1B  845  14.993  13.886   9.719  0.2091 -0.3400 -0.1537
   53loPI   C2B  846  15.082  13.753   9.387  0.0775 -0.0049 -0.1948
   53loPI   C3B  847  15.002  13.682   8.974  0.0405  0.3224 -0.1817
   53loPI   C4B  848  14.984  13.725   8.532 -0.1915  0.0570  0.1607
   54loPI    C1  849   1.908  10.175   9.871 -0.0409 -0.2645  0.0552
   54loPI    C2  850   1.778  10.447  10.134  0.1374 -0.1630  0.0400
   54loPI    C3  851   1.628  10.076  10.139  0.0648 -0.1321  0.2162
   54loPI   PO4  852   1.860  10.210   9.689 -0.3886  0.1311 -0.1582
   54loPI   GL1  853   2.038  10.276   9.238  0.1626 -0.0244  0.0999
   54loPI   GL2  854   1.805  10.518   9.317  0.1140  0.0655 -0.0595
   54loPI   C1A  855   1.824  10.333   8.809 -0.0540  0.0028  0.3836
   54loPI   C2A  856   1.326  10.322   8.656 -0.1486  0.0595 -0.2103
   54loPI   C3A  857   1.236  10.392   8.167 -0.2443  0.1183 -0.1386
   54loPI   C4A  858   0.961  10.462   7.756 -0.2564  0.1901  0.0909
   54loPI   C5A  859   0.654  10.479   7.385 -0.0926  0.0298  0.3047
   54loPI   C6A  860   0.465  10.763   7.119  0.3072 -0.0353  0.0135
   54loPI   C1B  861   2.126  10.760   9.038  0.1407  0.2887  0.0619
   54loPI   C2B  862   2.180  10.574   8.596 -0.0850  0.0641 -0.0441
   54loPI   C3B  863   2.088  10.624   8.228 -0.1101 -0.2819  0.0405
   54loPI   C4B  864   2.079  10.644   7.698 -0.0397 -0.1285  0.0956
   55loPI    C1  865   7.778  16.048  10.366 -0.0174  0.1271 -0.2003
   55loPI    C2  866   7.503  15.991  10.651  0.0378  0.2149 -0.1289
   55loPI    C3  867   7.589  15.696  10.395  0.1030  0.0801  0.0464
   55loPI   PO4  868   7.739  16.314  10.252 -0.0586  0.1815  0.0993
   55loPI   GL1  869   7.701  16.233   9.886 -0.1309  0.0220  0.1774
   55loPI   GL2  870   7.642  15.946   9.862  0.0368 -0.1588  0.1886
   55loPI   C1A  871   7.649  16.369   9.436  0.2145 -0.1678 -0.2023
   55loPI   C2A  872   7.561  16.398   8.992  0.1434  0.1399 -0.3867
   55loPI   C3A  873   7.641  16.299   8.528  0.4081  0.3889  0.0895
   55loPI   C4A  874   7.551  16.302   8.056 -0.1170 -0.0058 -0.0457
   55loPI   C5A  875   7.178  16.244   7.702  0.0123  0.0363  0.2779
   55loPI   C6A  876   6.864  16.052   7.412  0.0023 -0.5098 -0.2112
   55loPI   C1B  877   7.636  15.831   9.483  0.0898  0.1768  0.2024
   55loPI   C2B  878   7.846  15.882   9.030  0.1224  0.0758 -0.4033
   55loPI   C3B  879   7.903  15.755   8.731  0.3053 -0.1524  0.2070
   55loPI   C4B  880   7.810  15.884   8.264 -0.2485  0.1512  0.0082
   56loPI    C1  881  14.839  16.345  10.518 -0.1081  0.0922 -0.1147
   56loPI    C2  882  14.671  16.287  10.877 -0.0675 -0.1348 -0.1309
   56loPI    C3  883  15.051  16.411  10.851 -0.1395  0.0985 -0.0960
   56loPI   PO4  884  14.799  16.165  10.410  0.2816 -0.1614  0.2197
   56loPI   GL1  885  14.728  16.045   9.984  0.0792  0.1661 -0.2180
   56loPI   GL2  886  14.416  16.238   9.904  0.3349 -0.0339 -0.3572
   56loPI   C1A  887  15.020  16.123   9.627  0.0428 -0.0011  0.0242
   56loPI   C2A  888  14.997  16.063   9.197 -0.1429  0.0181 -0.2494
   56loPI   C3A  889  14.912  15.994   8.763  0.2356  0.0614 -0.0828
   56loPI   C4A  890  14.665  15.828   8.369 -0.1839 -0.2584  0.2455
   56loPI   C5A  891  14.839  15.673   7.986 -0.0602  0.0820 -0.1260
   56loPI   C6A  892  14.938  15.315   7.927 -0.0584  0.3677 -0.1380
   56loPI   C1B  893  14.544  16.242   9.505  0.1817 -0.0137 -0.1265
   56loPI   C2B  894  14.517  16.115   9.131  0.3201 -0.2839 -0.1543
   56loPI   C3B  895  14.280  15.916   8.751  0.2371  0.1069 -0.2191
   56loPI   C4B  896  14.147  15.729   8.329  0.0087  0.1927  0.2360
   57loPI    C1  897  15.592  11.920  10.931  0.0504  0.1874 -0.1893
   57loPI    C2  898  15.578  11.770  11.302 -0.1763  0.0281 -0.2598
   57loPI    C3  899  15.675  12.154  11.245 -0.0109  0.0201 -0.0465
   57loPI   PO4  900  15.720  11.762  10.723 -0.0244  0.1568 -0.1158
   57loPI   GL1  901  15.689  11.669  10.377  0.0659  0.0288  0.1971
   57loPI   GL2  902  15.935  11.600  10.196 -0.0370  0.0244 -0.2037
   57loPI   C1A  903  15.710  11.974   9.990  0.1535 -0.0027  0.0576
   57loPI   C2A  904  15.671  11.933   9.578  0.2192 -0.0162  0.2775
   57loPI   C3A  905  15.679  12.119   9.121  0.1953 -0.0353  0.0414
   57loPI   C4A  906  15.678  12.069   8.694  0.0154  0.0342  0.3147
   57loPI   C5A  907  15.610  12.101   8.286 -0.1033 -0.0407 -0.2159
   57loPI   C6A  908  15.697  11.982   7.848 -0.1939 -0.0215  0.2221
   57loPI   C1B  909  16.107  11.581   9.828 -0.0148 -0.3863 -0.0446
   57loPI   C2B  910  16.073  11.700   9.362  0.1177  0.1093  0.1799
   57loPI   C3B  911  16.147  11.762   8.917 -0.0127  0.1685  0.0234
   57loPI   C4B  912  16.133  11.784   8.476 -0.0094  0.1634 -0.0340
   58loPI    C1  913   7.759  12.551  10.411 -0.0467 -0.0293  0.0508
   58loPI    C2  914   7.364  12.489  10.415 -0.0541  0.0206  0.1010
   58loPI    C3  915   7.560  12.553  10.758 -0.0444  0.2573  0.0526
   58loPI   PO4  916   7.780  12.484  10.070  0.1601 -0.0885  0.1445
   58loPI   GL1  917   7.860  12.201   9.780  0.2718 -0.1575  0.1853
   58loPI   GL2  918   7.519  12.155   9.688  0.0306 -0.1079  0.1293
   58loPI   C1A  919   7.752  12.459   9.391 -0.0588 -0.0917 -0.0282
   58loPI   C2A  920   7.860  12.621   9.050 -0.1265  0.1784  0.0617
   58loPI   C3A  921   8.178  12.929   8.883 -0.2710 -0.2388 -0.0112
   58loPI   C4A  922   8.073  12.954   8.499  0.1243 -0.1676 -0.0018
   58loPI   C5A  923   7.993  13.119   8.086 -0.3402  0.1673 -0.0656
   58loPI   C6A  924   8.017  13.544   7.917  0.0892 -0.2032  0.1014
   58loPI   C1B  925   7.390  11.944   9.387 -0.7663 -0.0258 -0.0978
   58loPI   C2B  926   7.044  11.937   9.111  0.1961 -0.1988 -0.2109
   58loPI   C3B  927   6.885  11.748   8.740 -0.1018  0.2043  0.1110
   58loPI   C4B  928   7.034  11.544   8.426  0.1685 -0.0305 -0.0410
   59loPI    C1  929  16.124  11.044  10.605  0.0969 -0.1730  0.1380
   59loPI    C2  930  15.782  11.238  10.676  0.1720  0.0480 -0.0892
   59loPI    C3  931  16.011  11.118  10.981  0.0392  0.1634  0.0578
   59loPI   PO4  932  16.239  11.183  10.366 -0.0405  0.2063 -0.0675
   59loPI   GL1  933  16.247  11.124   9.983 -0.2029 -0.3165  0.0292
   59loPI   GL2  934  16.519  11.322   9.965  0.0736  0.0505 -0.1548
   59loPI   C1A  935  16.040  11.150   9.633  0.3909 -0.0811  0.2279
   59loPI   C2A  936  15.991  11.222   9.223  0.1986 -0.0057 -0.2674
   59loPI   C3A  937  16.009  11.262   8.816  0.1366 -0.2389  0.1774
   59loPI   C4A  938  16.019  11.310   8.417 -0.3497 -0.1030  0.1856
   59loPI   C5A  939  15.890  11.468   7.984 -0.0181 -0.2836  0.1169
   59loPI   C6A  940  16.084  11.675   7.622 -0.2303  0.0627 -0.4537
   59loPI   C1B  941  16.479  11.361   9.514  0.1958  0.2324 -0.0827
   59loPI   C2B  942  16.498  11.437   9.087  0.0370 -0.0406 -0.0393
   59loPI   C3B  943  16.523  11.402   8.580  0.0159 -0.2129  0.1784
   59loPI   C4B  944  16.455  11.542   8.097 -0.0543  0.0929  0.2021
   60loPI    C1  945  10.198   5.688  10.341 -0.0860  0.1392 -0.0564
   60loPI    C2  946  10.456   5.723  10.645 -0.2079  0.2141  0.0397
   60loPI    C3  947  10.220   5.401  10.619 -0.3102  0.2825  0.1136
   60loPI   PO4  948  10.346   5.683  10.158  0.0795 -0.1463  0.3628
   60loPI   GL1  949  10.170   6.052   9.887 -0.1690  0.1623 -0.2331
   60loPI   GL2  950   9.870   6.059   9.806 -0.1461  0.1471 -0.2293
   60loPI   C1A  951  10.365   6.281   9.552  0.0026  0.1205  0.2117
   60loPI   C2A  952  10.391   6.333   9.112 -0.0302  0.0720 -0.0078
   60loPI   C3A  953  10.408   6.711   8.863  0.1543 -0.3200 -0.1597
   60loPI   C4A  954  10.356   6.794   8.475 -0.3076  0.0693  0.1193
   60loPI   C5A  955  10.445   6.583   8.118 -0.0551  0.0384 -0.2409
   60loPI   C6A  956  10.875   6.602   7.900 -0.4729 -0.0854 -0.1682
   60loPI   C1B  957   9.914   6.068   9.437  0.1133  0.0099  0.0174
   60loPI   C2B  958   9.984   5.961   8.970 -0.3574 -0.2005  0.2306
   60loPI   C3B  959   9.939   6.003   8.521  0.2254  0.1590  0.3596
   60loPI   C4B  960   9.924   5.876   8.050 -0.2735 -0.1403  0.1054
   61loPI    C1  961   0.232  14.832  10.154 -0.0500  0.1686 -0.2168
   61loPI    C2  962   0.602  14.956  10.067  0.2024 -0.2100  0.2676
   61loPI    C3  963   0.394  15.136  10.357 -0.1279  0.2054 -0.2095
   61loPI   PO4  964   0.109  14.795   9.895 -0.0592  0.0781  0.0465
   61loPI   GL1  965   0.176  14.669   9.504  0.0118 -0.1586 -0.0245
   61loPI   GL2  966   0.547  14.708   9.659  0.0925 -0.0112  0.0811
   61loPI   C1A  967   0.203  14.583   9.034  0.3657 -0.0172 -0.1142
   61loPI   C2A  968   0.291  14.473   8.583  0.0453 -0.0975  0.1690
   61loPI   C3A  969   0.238  14.193   8.377  0.1829  0.1985 -0.0238
   61loPI   C4A  970   0.140  14.137   8.025  0.2154  0.3797 -0.0517
   61loPI   C5A  971  -0.106  14.037   7.791 -0.2903 -0.2820 -0.0405
   61loPI   C6A  972  -0.424  13.750   7.770 -0.2418  0.1119  0.0798
   61loPI   C1B  973   0.675  14.819   9.219  0.1259 -0.0682  0.2726
   61loPI   C2B  974   0.629  14.774   8.787 -0.3940 -0.1051  0.0451
   61loPI   C3B  975   0.576  14.845   8.333 -0.0483 -0.4283  0.5248
   61loPI   C4B  976   0.385  14.549   8.102 -0.1899 -0.1244  0.2276
   62loPI    C1  977   7.131  13.448  10.423 -0.1585  0.1274  0.0804
   62loPI    C2  978   6.907  13.442  10.755 -0.1745  0.0764  0.0688
   62loPI    C3  979   6.737  13.515  10.400 -0.1998 -0.1175  0.0397
   62loPI   PO4  980   7.298  13.600  10.291 -0.2092 -0.0906 -0.2658
   62loPI   GL1  981   7.543  13.689   9.879  0.2677  0.1270  0.0005
   62loPI   GL2  982   7.193  13.780   9.858 -0.0261  0.0267 -0.0603
   62loPI   C1A  983   7.517  13.518   9.490  0.2845  0.0135  0.2458
   62loPI   C2A  984   7.482  13.602   9.156 -0.1669 -0.0343  0.0833
   62loPI   C3A  985   7.695  13.685   8.809  0.0855 -0.0707 -0.0132
   62loPI   C4A  986   7.712  13.722   8.388 -0.0700  0.0836 -0.0868
   62loPI   C5A  987   7.547  13.763   7.968 -0.0498 -0.1106  0.1317
   62loPI   C6A  988   7.672  13.821   7.619 -0.0752 -0.0910  0.0088
   62loPI   C1B  989   7.048  13.754   9.421 -0.0922 -0.2084  0.0255
   62loPI   C2B  990   7.002  13.611   9.073 -0.1333  0.3334 -0.0002
   62loPI   C3B  991   7.214  13.565   8.672 -0.1728 -0.0018  0.0246
   62loPI   C4B  992   7.240  13.520   8.350 -0.0354 -0.1088  0.3051
   63loPI    C1  993  16.401  10.167  11.024 -0.0086  0.0343 -0.0589
   63loPI    C2  994  16.695  10.375  11.197 -0.1784  0.1091  0.1445
   63loPI    C3  995  16.649   9.986  11.280  0.1346 -0.0142 -0.2301
   63loPI   PO4  996  16.441  10.178  10.712 -0.0929 -0.2063  0.3106
   63loPI   GL1  997  16.369  10.563  10.420 -0.0319  0.1312 -0.0200
   63loPI   GL2  998  16.075  10.704  10.194 -0.0471 -0.5136  0.1114
   63loPI   C1A  999  16.516  10.544  10.003  0.1273  0.3835  0.1226
   63loPI   C2A 1000  16.449  10.861   9.664 -0.1242  0.1012 -0.1434
   63loPI   C3A 1001  16.435  10.830   9.293 -0.0603  0.0378  0.2090
   63loPI   C4A 1002  16.358  10.934   8.953  0.0822 -0.1178 -0.0953
   63loPI   C5A 1003  16.453  10.897   8.511 -0.0205 -0.2287  0.0693
   63loPI   C6A 1004  16.548  11.067   8.165  0.0542  0.2718  0.0598
   63loPI   C1B 1005  16.044  10.446   9.908  0.2021  0.1125 -0.0221
   63loPI   C2B 1006  16.143  10.255   9.565  0.3222 -0.0674  0.2838
   63loPI   C3B 1007  16.006  10.229   9.185 -0.1877 -0.3273 -0.1920
   63loPI   C4B 1008  15.902  10.263   8.689  0.0126  0.1964  0.2550
   64loPI    C1 1009   1.226  15.349  10.008  0.0185 -0.0131  0.0610
   64loPI    C2 1010   1.220  15.745   9.955  0.1031 -0.0380 -0.1449
   64loPI    C3 1011   1.484  15.581  10.207 -0.0433  0.0492  0.0684
   64loPI   PO4 1012   1.059  15.250   9.742 -0.2260  0.0658 -0.2172
   64loPI   GL1 1013   0.880  15.209   9.377 -0.1304 -0.1325 -0.1527
   64loPI   GL2 1014   1.202  15.556   9.393 -0.2519 -0.1632  0.0683
   64loPI   C1A 1015   0.739  15.233   8.967 -0.0550  0.0365 -0.1956
   64loPI   C2A 1016   0.429  15.178   8.607 -0.1248 -0.0352 -0.1131
   64loPI   C3A 1017   0.273  15.461   8.330 -0.5184  0.1325 -0.1992
   64loPI   C4A 1018   0.025  15.489   8.043  0.1935 -0.2248 -0.2379
   64loPI   C5A 1019   0.140  15.339   7.613  0.3632  0.0141 -0.2395
   64loPI   C6A 1020   0.329  15.093   7.291  0.0979  0.1813  0.2884
   64loPI   C1B 1021   1.250  15.379   9.062  0.1489  0.0940 -0.0583
   64loPI   C2B 1022   1.133  15.469   8.643  0.1719 -0.1845 -0.2579
   64loPI   C3B 1023   0.800  15.503   8.345 -0.3163 -0.0198  0.1581
   64loPI   C4B 1024   0.628  15.516   7.977  0.0229 -0.0557 -0.0054
   65loPI    C1 1025   8.670   2.694  10.222 -0.1341  0.0020 -0.0408
   65loPI    C2 1026   8.458   2.898  10.493 -0.1709 -0.2241  0.1033
   65loPI    C3 1027   8.778   2.687  10.607  0.0433 -0.0093 -0.0899
   65loPI   PO4 1028   8.554   2.503  10.053  0.1869 -0.4535 -0.0589
   65loPI   GL1 1029   8.544   2.328   9.673  0.4014 -0.2621 -0.2048
   65loPI   GL2 1030   8.253   2.285   9.465  0.0138 -0.0753  0.3221
   65loPI   C1A 1031   8.567   2.492   9.207 -0.1421  0.0433  0.0747
   65loPI   C2A 1032   8.544   2.448   8.705  0.0406  0.0817  0.2078
   65loPI   C3A 1033   8.539   2.562   8.312 -0.3086  0.1911  0.1579
   65loPI   C4A 1034   8.321   2.718   7.920  0.2554  0.2476 -0.0572
   65loPI   C5A 1035   8.305   2.765   7.455 -0.1309  0.0669  0.1282
   65loPI   C6A 1036   8.309   2.603   7.081 -0.0396 -0.4987 -0.2272
   65loPI   C1B 1037   8.218   2.105   9.059 -0.1953  0.2437 -0.0172
   65loPI   C2B 1038   8.181   2.022   8.643 -0.3032 -0.0846  0.1318
   65loPI   C3B 1039   8.214   2.161   8.288  0.0479  0.2729 -0.1132
   65loPI   C4B 1040   8.215   2.286   7.838 -0.0880 -0.1254 -0.3075
   66loPI    C1 1041   5.329  13.809  10.379  0.1147 -0.0431  0.0296
   66loPI    C2 1042   5.562  13.539  10.561 -0.1163 -0.2210  0.0662
   66loPI    C3 1043   5.317  13.771  10.777 -0.2377 -0.2871  0.0010
   66loPI   PO4 1044   5.512  13.952  10.217 -0.0731 -0.3512  0.1185
   66loPI   GL1 1045   5.525  13.922   9.737  0.1583 -0.0822 -0.2351
   66loPI   GL2 1046   5.326  13.854   9.558  0.0614  0.0154  0.1858
   66loPI   C1A 1047   5.750  14.085   9.441  0.1188  0.0114  0.1979
   66loPI   C2A 1048   6.123  14.308   9.296  0.0532  0.2189 -0.0935
   66loPI   C3A 1049   6.244  14.426   8.921  0.0263 -0.0732 -0.0742
   66loPI   C4A 1050   6.417  14.627   8.581  0.1322  0.3574  0.1319
   66loPI   C5A 1051   6.383  14.605   8.214  0.1430  0.3385  0.1798
   66loPI   C6A 1052   6.624  14.811   7.829 -0.2199 -0.2240  0.1422
   66loPI   C1B 1053   5.096  14.064   9.348 -0.3923 -0.0856 -0.0587
   66loPI   C2B 1054   5.192  14.279   9.023  0.2567 -0.0874  0.2087
   66loPI   C3B 1055   5.342  14.486   8.684 -0.1662 -0.1476  0.0864
   66loPI   C4B 1056   5.236  14.537   8.169 -0.2320 -0.0964 -0.0739
   67loPI    C1 1057  13.172   2.316  10.789 -0.2462 -0.1974  0.0215
   67loPI    C2 1058  13.517   2.358  10.986 -0.2249  0.2360 -0.0994
   67loPI    C3 1059  13.291   2.035  11.048 -0.0369  0.1826  0.3496
   67loPI   PO4 1060  13.207   2.279  10.560  0.2981  0.1300  0.1111
   67loPI   GL1 1061  13.375   2.022  10.246 -0.1073  0.0016  0.1721
   67loPI   GL2 1062  13.082   2.069  10.059 -0.0487  0.3191 -0.2544
   67loPI   C1A 1063  13.384   1.695   9.988  0.2043 -0.2646  0.5806
   67loPI   C2A 1064  13.529   1.617   9.577 -0.2101  0.1369 -0.1171
   67loPI   C3A 1065  13.691   1.625   9.136  0.0041 -0.1595  0.1191
   67loPI   C4A 1066  13.839   1.733   8.799 -0.2127 -0.4079 -0.1229
   67loPI   C5A 1067  13.666   1.831   8.384  0.1247 -0.1199 -0.0873
   67loPI   C6A 1068  13.361   1.806   8.046 -0.1473 -0.0171 -0.1614
   67loPI   C1B 1069  13.040   1.847   9.630 -0.1065 -0.0463  0.1182
   67loPI   C2B 1070  13.191   1.652   9.168 -0.0564 -0.0692 -0.0909
   67loPI   C3B 1071  13.251   1.650   8.750 -0.1918  0.1620  0.0692
   67loPI   C4B 1072  13.157   1.484   8.427  0.3058  0.0059 -0.0985
   68loPI    C1 1073  14.121   7.823  10.683  0.1845 -0.0437 -0.0651
   68loPI    C2 1074  13.780   7.651  10.803  0.1812 -0.0202 -0.0408
   68loPI    C3 1075  13.951   7.935  11.027  0.1362  0.0755 -0.1271
   68loPI   PO4 1076  14.022   7.816  10.396  0.1956  0.1432  0.0312
   68loPI   GL1 1077  14.238   7.831  10.042 -0.1614 -0.1805 -0.0812
   68loPI   GL2 1078  14.497   7.759   9.903  0.1546 -0.1281 -0.0260
   68loPI   C1A 1079  14.157   7.632   9.577 -0.3878 -0.0966 -0.1540
   68loPI   C2A 1080  13.971   7.429   9.284  0.2522  0.2026 -0.1126
   68loPI   C3A 1081  13.845   7.349   8.955  0.0922  0.2093  0.0187
   68loPI   C4A 1082  14.059   7.300   8.578 -0.1303  0.0117  0.0479
   68loPI   C5A 1083  13.875   7.325   8.207 -0.1323  0.2026  0.2940
   68loPI   C6A 1084  13.818   7.585   7.894  0.0597 -0.0796 -0.0179
   68loPI   C1B 1085  14.650   7.791   9.456 -0.1589  0.1211 -0.1429
   68loPI   C2B 1086  14.837   8.023   9.174 -0.0826  0.2149  0.2018
   68loPI   C3B 1087  14.745   7.842   8.849  0.0479  0.0410 -0.0842
   68loPI   C4B 1088  14.724   7.874   8.462  0.1672 -0.2265  0.0362
   69loPI    C1 1089  11.347   4.368  10.352 -0.0870 -0.0268 -0.0406
   69loPI    C2 1090  11.611   4.089  10.462 -0.2129 -0.1944 -0.1580
   69loPI    C3 1091  11.531   4.396  10.706  0.0402 -0.1774 -0.0936
   69loPI   PO4 1092  11.461   4.505  10.097  0.0530 -0.2865 -0.0529
   69loPI   GL1 1093  11.682   4.403   9.707  0.0806 -0.1153 -0.1237
   69loPI   GL2 1094  11.819   4.075   9.524 -0.1917  0.2044  0.0109
   69loPI   C1A 1095  11.875   4.752   9.527 -0.0874 -0.0696 -0.0193
   69loPI   C2A 1096  11.991   4.905   9.213  0.2270 -0.2456  0.1940
   69loPI   C3A 1097  12.152   4.944   8.758 -0.0641  0.0404  0.2648
   69loPI   C4A 1098  12.110   5.047   8.259 -0.1051  0.0991  0.1170
   69loPI   C5A 1099  12.230   4.603   8.003 -0.0519 -0.3160  0.1808
   69loPI   C6A 1100  12.283   4.241   7.716 -0.1664 -0.3841 -0.1174
   69loPI   C1B 1101  11.609   4.310   9.174 -0.4841  0.2525 -0.2105
   69loPI   C2B 1102  11.497   4.313   8.708 -0.1863 -0.1097  0.2296
   69loPI   C3B 1103  11.576   4.337   8.262  0.2569  0.2297 -0.1399
   69loPI   C4B 1104  11.547   3.946   7.976  0.1253  0.1600 -0.1482
   70loPI    C1 1105   7.393   7.574   9.831 -0.0391  0.0514  0.0762
   70loPI    C2 1106   7.396   7.324  10.143  0.1445 -0.2984 -0.1971
   70loPI    C3 1107   7.058   7.384   9.939  0.0529 -0.1632 -0.0092
   70loPI   PO4 1108   7.612   7.451   9.684 -0.0086  0.0442  0.1516
   70loPI   GL1 1109   7.511   7.089   9.366  0.0600 -0.0394  0.0036
   70loPI   GL2 1110   7.234   7.243   9.439 -0.1220 -0.1194  0.0726
   70loPI   C1A 1111   7.266   6.881   9.082 -0.0047  0.1914 -0.1723
   70loPI   C2A 1112   7.230   6.783   8.568  0.2608 -0.1415 -0.2495
   70loPI   C3A 1113   7.321   6.756   8.043  0.0781  0.1659 -0.1624
   70loPI   C4A 1114   7.514   6.700   7.710  0.1106 -0.0565 -0.1881
   70loPI   C5A 1115   7.776   6.692   7.314 -0.1238 -0.4585  0.0973
   70loPI   C6A 1116   7.909   6.348   7.127 -0.1031  0.1908 -0.2274
   70loPI   C1B 1117   7.406   7.360   9.005  0.0752  0.3539 -0.4487
   70loPI   C2B 1118   7.706   7.456   8.801  0.1785 -0.3642 -0.4540
   70loPI   C3B 1119   7.702   7.474   8.370  0.0550  0.2447 -0.1613
   70loPI   C4B 1120   7.713   7.566   7.948 -0.0088 -0.1376 -0.4706
   71loPI    C1 1121   0.187   1.977  10.301  0.2742  0.0050  0.0360
   71loPI    C2 1122  -0.007   2.239  10.533  0.2813 -0.0142  0.0636
   71loPI    C3 1123   0.332   2.071  10.662  0.1940 -0.1561  0.1113
   71loPI   PO4 1124   0.152   2.150  10.026  0.4873  0.2332 -0.3594
   71loPI   GL1 1125   0.052   1.987   9.676  0.1286  0.0053 -0.0573
   71loPI   GL2 1126  -0.231   1.895   9.706  0.4340  0.0712  0.0448
   71loPI   C1A 1127   0.028   2.359   9.418  0.3017 -0.1162 -0.1845
   71loPI   C2A 1128   0.009   2.390   9.014 -0.3533  0.1370  0.1222
   71loPI   C3A 1129   0.075   2.447   8.580  0.3071  0.1572 -0.1465
   71loPI   C4A 1130   0.020   2.415   8.172  0.0628  0.1737 -0.5004
   71loPI   C5A 1131  -0.145   2.402   7.772 -0.3292  0.0171 -0.0406
   71loPI   C6A 1132  -0.031   2.053   7.580  0.0418  0.1413 -0.2238
   71loPI   C1B 1133  -0.266   2.005   9.318  0.3522  0.1617 -0.1123
   71loPI   C2B 1134  -0.332   2.052   8.894 -0.0333 -0.0490  0.1313
   71loPI   C3B 1135  -0.190   2.040   8.375 -0.1987  0.2172 -0.2367
   71loPI   C4B 1136  -0.374   2.026   7.916 -0.4351  0.0130 -0.1252
   72loPI    C1 1137   5.307  10.163  10.174  0.1130 -0.2704 -0.0271
   72loPI    C2 1138   4.961  10.347  10.092  0.2050 -0.1189 -0.0786
   72loPI    C3 1139   5.076  10.296  10.472  0.3531  0.2611 -0.0679
   72loPI   PO4 1140   5.336   9.953   9.914  0.6433  0.0479  0.1189
   72loPI   GL1 1141   5.178   9.748   9.600 -0.1873  0.1249 -0.0304
   72loPI   GL2 1142   4.910   9.927   9.652 -0.3823 -0.0646 -0.0521
   72loPI   C1A 1143   5.122   9.739   9.210 -0.1173 -0.3020  0.2708
   72loPI   C2A 1144   5.239   9.781   8.675 -0.4124 -0.4289 -0.1720
   72loPI   C3A 1145   5.308  10.156   8.227  0.0040  0.0947 -0.0445
   72loPI   C4A 1146   5.411  10.485   7.940 -0.1985  0.1300  0.1402
   72loPI   C5A 1147   5.723  10.729   7.890 -0.1774  0.3353  0.1262
   72loPI   C6A 1148   5.706  11.213   8.050 -0.1592  0.1984  0.0752
   72loPI   C1B 1149   4.867  10.130   9.213  0.0158 -0.1699 -0.1285
   72loPI   C2B 1150   4.959  10.281   8.739 -0.1553 -0.2519 -0.0684
   72loPI   C3B 1151   4.888  10.419   8.248 -0.1375 -0.1505 -0.1836
   72loPI   C4B 1152   4.871  10.420   7.892 -0.1884 -0.1099 -0.1476
   73loPI    C1 1153  16.418   0.355  10.588 -0.0849 -0.2422 -0.0040
   73loPI    C2 1154  16.683   0.263  10.304  0.0471 -0.0603  0.0583
   73loPI    C3 1155  16.588  -0.007  10.584 -0.1343 -0.2643 -0.1944
   73loPI   PO4 1156  16.182   0.453  10.343  0.1527 -0.1614 -0.1501
   73loPI   GL1 1157  16.097   0.441   9.902  0.1577  0.0198  0.0825
   73loPI   GL2 1158  15.734   0.422   9.871 -0.1217  0.1591 -0.4336
   73loPI   C1A 1159  16.197   0.590   9.468  0.0606 -0.1537  0.1916
   73loPI   C2A 1160  16.214   0.618   9.057 -0.0550  0.1055 -0.1559
   73loPI   C3A 1161  16.249   0.645   8.643 -0.3169 -0.0610 -0.0927
   73loPI   C4A 1162  16.019   0.423   8.299 -0.0154 -0.2182  0.3179
   73loPI   C5A 1163  15.977   0.269   7.966  0.1321 -0.0421  0.0046
   73loPI   C6A 1164  16.308  -0.095   7.851  0.3617  0.0378 -0.1112
   73loPI   C1B 1165  15.763   0.736   9.590  0.1012  0.0448 -0.1989
   73loPI   C2B 1166  15.693   0.653   9.142  0.1245  0.2227 -0.0641
   73loPI   C3B 1167  15.818   0.472   8.734 -0.1450  0.1623 -0.1945
   73loPI   C4B 1168  15.837   0.077   8.594 -0.0183  0.1717  0.0575
   74loPI    C1 1169   7.273  18.541   9.622  0.1671 -0.0073  0.0578
   74loPI    C2 1170   7.273  18.805   9.923  0.2115 -0.0149  0.0645
   74loPI    C3 1171   7.392  18.428   9.987  0.0955 -0.0512  0.0677
   74loPI   PO4 1172   7.449  18.609   9.382 -0.0462 -0.0838 -0.3114
   74loPI   GL1 1173   7.542  18.708   8.877 -0.0160 -0.0380  0.1447
   74loPI   GL2 1174   7.450  18.964   9.050 -0.0646  0.0305 -0.0910
   74loPI   C1A 1175   7.438  18.638   8.425  0.1136 -0.0899 -0.0229
   74loPI   C2A 1176   7.668  18.546   8.054 -0.3028  0.2660 -0.0281
   74loPI   C3A 1177   8.088  18.273   8.015 -0.0680 -0.1014  0.1659
   74loPI   C4A 1178   8.265  18.114   7.620 -0.2496 -0.3201  0.3018
   74loPI   C5A 1179   8.674  18.030   7.444 -0.1376 -0.3541 -0.0908
   74loPI   C6A 1180   9.111  18.188   7.264 -0.2840  0.0463  0.1332
   74loPI   C1B 1181   7.308  19.165   8.620  0.0753 -0.0753  0.0172
   74loPI   C2B 1182   7.189  19.315   8.231  0.0289  0.2996 -0.0825
   74loPI   C3B 1183   7.037  19.329   7.797  0.1857 -0.2046  0.0349
   74loPI   C4B 1184   7.009  18.985   7.460 -0.2881 -0.0931 -0.1111
   75loPI    C1 1185  14.988   9.749  10.494 -0.1076  0.0171 -0.0710
   75loPI    C2 1186  14.822   9.410  10.625  0.0794 -0.0610 -0.0328
   75loPI    C3 1187  14.774   9.749  10.832  0.0076 -0.0924  0.0028
   75loPI   PO4 1188  15.003   9.780  10.307  0.0406  0.0217 -0.0174
   75loPI   GL1 1189  14.994   9.999   9.896 -0.0688 -0.3663  0.0209
   75loPI   GL2 1190  14.959   9.601   9.729  0.2886 -0.1011  0.1099
   75loPI   C1A 1191  14.988  10.239   9.508  0.1188  0.0700  0.0082
   75loPI   C2A 1192  14.910  10.343   9.179  0.0206  0.1508  0.2028
   75loPI   C3A 1193  15.025  10.273   8.803 -0.0053  0.1563 -0.1256
   75loPI   C4A 1194  14.927  10.334   8.350 -0.0515  0.1146  0.1106
   75loPI   C5A 1195  15.105  10.633   8.010  0.2007 -0.0560 -0.0698
   75loPI   C6A 1196  15.239  10.678   7.565 -0.2755 -0.0095 -0.2883
   75loPI   C1B 1197  14.865   9.792   9.337 -0.1211  0.2124  0.3091
   75loPI   C2B 1198  14.825   9.794   8.950 -0.0589  0.0500  0.0139
   75loPI   C3B 1199  14.965   9.862   8.511 -0.1469  0.1039  0.0582
   75loPI   C4B 1200  14.669   9.926   8.239 -0.1146 -0.1315  0.0181
   76loPI    C1 1201  12.797  17.864  10.519  0.3254 -0.0442  0.0508
   76loPI    C2 1202  12.702  18.252  10.503  0.1848 -0.0878 -0.2308
   76loPI    C3 1203  12.796  18.083  10.854 -0.0317  0.1336 -0.0624
   76loPI   PO4 1204  12.866  17.832  10.268  0.4644  0.0477  0.2247
   76loPI   GL1 1205  12.670  17.846   9.877  0.0434  0.0118  0.1381
   76loPI   GL2 1206  12.735  17.717   9.634  0.0025 -0.0491  0.2244
   76loPI   C1A 1207  12.524  18.157   9.606  0.3675 -0.0527  0.1851
   76loPI   C2A 1208  12.506  18.108   9.282  0.2340  0.0475 -0.0306
   76loPI   C3A 1209  12.890  18.104   8.976 -0.1523  0.0533 -0.0380
   76loPI   C4A 1210  13.203  17.830   8.721  0.2180  0.1461  0.1206
   76loPI   C5A 1211  13.365  17.499   8.737 -0.2903 -0.0847 -0.1486
   76loPI   C6A 1212  13.502  17.185   8.439  0.1273  0.1382  0.2247
   76loPI   C1B 1213  12.975  17.774   9.341  0.1357  0.0600 -0.2295
   76loPI   C2B 1214  13.049  17.356   9.073  0.2762 -0.1428 -0.2221
   76loPI   C3B 1215  12.990  17.133   8.689  0.2910 -0.4172  0.2647
   76loPI   C4B 1216  12.805  16.750   8.800 -0.0573 -0.0034  0.2209
   77loPI    C1 1217   9.231  11.785  10.594  0.0110 -0.1161  0.1076
   77loPI    C2 1218   9.607  11.856  10.712  0.1311 -0.0688 -0.2888
   77loPI    C3 1219   9.318  11.803  10.984  0.3956  0.0396  0.0189
   77loPI   PO4 1220   9.212  11.715  10.386  0.1164  0.0393 -0.1751
   77loPI   GL1 1221   9.190  11.777   9.917 -0.0211 -0.2178  0.4207
   77loPI   GL2 1222   9.016  11.416   9.837 -0.0962  0.0324 -0.4678
   77loPI   C1A 1223   9.004  11.638   9.389 -0.0476  0.1827  0.1245
   77loPI   C2A 1224   9.003  11.651   9.008 -0.1996  0.1561  0.1091
   77loPI   C3A 1225   8.921  11.305   8.689 -0.0154 -0.4860  0.0664
   77loPI   C4A 1226   8.699  11.308   8.323  0.1144 -0.1085 -0.2294
   77loPI   C5A 1227   8.472  11.559   7.950  0.0659  0.1058 -0.2313
   77loPI   C6A 1228   8.670  11.732   7.532 -0.2246  0.1213  0.0135
   77loPI   C1B 1229   8.650  11.269   9.531 -0.1533 -0.0359  0.2029
   77loPI   C2B 1230   8.538  11.101   9.112 -0.0520  0.2565 -0.1199
   77loPI   C3B 1231   8.441  11.245   8.809  0.1169  0.0817 -0.0227
   77loPI   C4B 1232   8.238  11.514   8.415  0.1131  0.4055  0.0684
   78loPI    C1 1233   7.240  17.968   9.744 -0.0449  0.0777  0.2036
   78loPI    C2 1234   7.268  17.576   9.820  0.0283  0.0215 -0.0996
   78loPI    C3 1235   6.946  17.781   9.940 -0.0408 -0.1448  0.0025
   78loPI   PO4 1236   7.195  18.036   9.485  0.1904 -0.2467  0.2174
   78loPI   GL1 1237   6.926  17.955   9.175  0.3516  0.1951 -0.1214
   78loPI   GL2 1238   6.792  17.755   9.458  0.3254  0.2847  0.2634
   78loPI   C1A 1239   7.028  17.803   8.845 -0.4386 -0.3389  0.1946
   78loPI   C2A 1240   7.121  17.650   8.554 -0.1690 -0.1286  0.2070
   78loPI   C3A 1241   7.107  17.796   8.046  0.1119  0.0217  0.1236
   78loPI   C4A 1242   7.155  18.089   7.783 -0.1944 -0.1294 -0.1872
   78loPI   C5A 1243   7.217  18.262   7.500 -0.2609  0.0034  0.1529
   78loPI   C6A 1244   7.487  18.553   7.220  0.1292  0.0544  0.2446
   78loPI   C1B 1245   6.676  17.360   9.197 -0.0036 -0.0729  0.0293
   78loPI   C2B 1246   6.641  17.202   8.738 -0.1380 -0.1282 -0.0232
   78loPI   C3B 1247   6.571  17.106   8.350 -0.1102 -0.1931  0.0992
   78loPI   C4B 1248   6.506  16.984   7.974 -0.2104  0.3099 -0.0820
   79loPI    C1 1249  18.636   4.791  10.086 -0.0057 -0.0074 -0.0499
   79loPI    C2 1250  18.972   4.603  10.195 -0.0773 -0.1459 -0.0655
   79loPI    C3 1251  18.752   4.795  10.469 -0.0411 -0.1448 -0.0371
   79loPI   PO4 1252  18.513   4.728   9.844 -0.2427 -0.2271 -0.0575
   79loPI   GL1 1253  18.394   4.832   9.422  0.1546  0.0902  0.0269
   79loPI   GL2 1254  18.710   4.676   9.405 -0.0442 -0.1766  0.2355
   79loPI   C1A 1255  18.315   4.877   8.980  0.0716 -0.0750  0.1758
   79loPI   C2A 1256  18.420   4.736   8.547  0.1690 -0.0111 -0.2275
   79loPI   C3A 1257  18.161   4.720   8.076  0.0588  0.0085 -0.0867
   79loPI   C4A 1258  18.307   4.606   7.715 -0.1202 -0.1500 -0.0521
   79loPI   C5A 1259  18.408   4.244   7.454 -0.1772 -0.1682 -0.1094
   79loPI   C6A 1260  18.599   3.941   7.188  0.0688  0.1000 -0.1380
   79loPI   C1B 1261  18.602   4.394   9.133 -0.0710  0.0699  0.2888
   79loPI   C2B 1262  18.558   4.250   8.672  0.2588 -0.1763 -0.1777
   79loPI   C3B 1263  18.493   4.335   8.298  0.0662  0.0036  0.2786
   79loPI   C4B 1264  18.495   4.157   7.930  0.2238  0.0581  0.3137
   80loPI    C1 1265   1.151   4.244   9.924  0.2264  0.0281 -0.0844
   80loPI    C2 1266   0.954   4.443   9.639  0.1107  0.0780  0.0294
   80loPI    C3 1267   1.087   4.637   9.961 -0.1753 -0.0607  0.2359
   80loPI   PO4 1268   1.229   4.008   9.766 -0.2248  0.0670  0.2437
   80loPI   GL1 1269   1.343   3.866   9.361 -0.2685 -0.2359 -0.1059
   80loPI   GL2 1270   1.314   4.102   9.285 -0.2802 -0.0577 -0.3719
   80loPI   C1A 1271   1.072   3.662   9.045  0.0159  0.1008 -0.0544
   80loPI   C2A 1272   0.969   3.551   8.741 -0.0476 -0.0873  0.0566
   80loPI   C3A 1273   0.893   3.509   8.314 -0.0482  0.0241  0.0457
   80loPI   C4A 1274   0.917   3.577   7.855  0.0944 -0.2125 -0.0555
   80loPI   C5A 1275   0.816   3.833   7.576 -0.0325  0.4663 -0.2280
   80loPI   C6A 1276   0.697   4.165   7.254 -0.2455  0.2223  0.1938
   80loPI   C1B 1277   1.370   4.050   8.864 -0.0561  0.6401  0.3929
   80loPI   C2B 1278   1.321   3.872   8.453  0.2059  0.3060  0.5456
   80loPI   C3B 1279   1.139   4.010   8.051  0.5020 -0.3012  0.1485
   80loPI   C4B 1280   1.117   4.301   7.630  0.3853  0.0374  0.0550
   81loPI    C1 1281  10.106  16.133  10.548  0.2100 -0.0319  0.1101
   81loPI    C2 1282  10.040  16.379  10.857 -0.0532  0.3250 -0.2202
   81loPI    C3 1283  10.396  16.378  10.673 -0.0147  0.3756 -0.1462
   81loPI   PO4 1284   9.986  15.905  10.684  0.2481 -0.1010  0.0794
   81loPI   GL1 1285   9.615  15.634  10.578 -0.2330  0.1054  0.2834
   81loPI   GL2 1286   9.561  15.245  10.573 -0.3065  0.0886 -0.0416
   81loPI   C1A 1287   9.737  15.552  10.105 -0.0099 -0.3270 -0.3733
   81loPI   C2A 1288   9.683  15.673   9.610 -0.0823  0.0408 -0.1678
   81loPI   C3A 1289   9.838  15.602   9.217 -0.1532  0.0566  0.0063
   81loPI   C4A 1290   9.695  15.749   8.836  0.0809  0.3165  0.2865
   81loPI   C5A 1291   9.779  15.710   8.364 -0.0962  0.1259 -0.3508
   81loPI   C6A 1292   9.711  15.971   8.091  0.0197 -0.0469  0.0493
   81loPI   C1B 1293   9.414  14.966  10.194 -0.0922 -0.0112  0.5838
   81loPI   C2B 1294   9.411  14.943   9.714 -0.1024 -0.0851 -0.1028
   81loPI   C3B 1295   9.447  14.817   9.178  0.3192  0.0879  0.1334
   81loPI   C4B 1296   9.412  14.883   8.756 -0.2035 -0.2789 -0.1627
   82loPI    C1 1297  10.182   3.664  10.284  0.3093 -0.0669  0.0036
   82loPI    C2 1298  10.043   3.346  10.086 -0.0526  0.0996 -0.0159
   82loPI    C3 1299   9.814   3.527  10.359  0.2487  0.1875  0.1824
   82loPI   PO4 1300  10.231   3.882  10.165  0.0012 -0.1119  0.2500
   82loPI   GL1 1301  10.203   4.131   9.752  0.3074 -0.1300  0.0271
   82loPI   GL2 1302  10.478   4.225   9.878  0.4351 -0.0077  0.2344
   82loPI   C1A 1303  10.170   3.968   9.398 -0.1239 -0.0882  0.0805
   82loPI   C2A 1304  10.269   3.862   8.997  0.1028  0.0450  0.2542
   82loPI   C3A 1305  10.439   3.808   8.701 -0.3522  0.1703 -0.1620
   82loPI   C4A 1306  10.653   3.823   8.337  0.0663  0.1835 -0.0674
   82loPI   C5A 1307  10.803   3.836   8.030  0.1716  0.2454  0.2527
   82loPI   C6A 1308  11.139   3.926   7.776 -0.1026 -0.0105 -0.2818
   82loPI   C1B 1309  10.541   4.262   9.423  0.1748  0.1048  0.1242
   82loPI   C2B 1310  10.604   4.331   8.951 -0.1020  0.3176 -0.0021
   82loPI   C3B 1311  10.784   4.281   8.509 -0.0865  0.0205 -0.0395
   82loPI   C4B 1312  11.144   4.089   8.286 -0.0089  0.2619  0.0004
   83loPI    C1 1313  15.259   8.876  10.113  0.0282  0.2235 -0.2192
   83loPI    C2 1314  15.013   8.561  10.127  0.1239  0.1623  0.2337
   83loPI    C3 1315  15.248   8.617   9.808 -0.1424 -0.0300 -0.0020
   83loPI   PO4 1316  15.186   9.087  10.055 -0.1267  0.0830 -0.0981
   83loPI   GL1 1317  15.153   9.155   9.666 -0.3891  0.1701 -0.0055
   83loPI   GL2 1318  15.109   8.969   9.381  0.2339  0.0491  0.0402
   83loPI   C1A 1319  15.237   9.440   9.325 -0.3079 -0.0614 -0.2863
   83loPI   C2A 1320  15.318   9.483   8.909 -0.2441 -0.0526  0.0993
   83loPI   C3A 1321  15.268   9.504   8.445  0.2564  0.1370 -0.2059
   83loPI   C4A 1322  15.183   9.704   8.011  0.1133  0.1926 -0.2459
   83loPI   C5A 1323  15.537   9.893   7.805 -0.1552 -0.0341 -0.1499
   83loPI   C6A 1324  15.618  10.199   7.506  0.1317  0.0473 -0.1988
   83loPI   C1B 1325  15.159   8.943   9.001 -0.1696 -0.3045  0.0592
   83loPI   C2B 1326  15.111   8.824   8.576 -0.3332 -0.0348  0.2813
   83loPI   C3B 1327  14.868   8.903   8.170 -0.1090  0.0166 -0.0761
   83loPI   C4B 1328  14.620   8.556   8.017  0.1552 -0.2338  0.2677
   84loPI    C1 1329   1.309  18.428  10.003  0.3395  0.0223  0.0142
   84loPI    C2 1330   1.279  18.035   9.937  0.2356  0.0158  0.0976
   84loPI    C3 1331   1.301  18.175  10.312  0.0496  0.1035  0.0769
   84loPI   PO4 1332   1.338  18.505   9.754 -0.0194  0.0355  0.2986
   84loPI   GL1 1333   1.290  18.599   9.410 -0.0019  0.1993 -0.1188
   84loPI   GL2 1334   1.000  18.683   9.397 -0.1368  0.1322  0.1226
   84loPI   C1A 1335   1.301  18.259   9.052  0.0820  0.3351  0.0783
   84loPI   C2A 1336   1.339  18.250   8.613 -0.0248  0.1651  0.3712
   84loPI   C3A 1337   1.289  18.301   8.134 -0.2396  0.0556  0.2940
   84loPI   C4A 1338   1.184  18.183   7.768 -0.1460  0.2281 -0.1045
   84loPI   C5A 1339   0.780  17.900   7.564 -0.0565  0.2135  0.3114
   84loPI   C6A 1340   0.811  17.633   7.194 -0.1209  0.0507 -0.0140
   84loPI   C1B 1341   1.032  18.680   9.009 -0.1622 -0.3546 -0.0720
   84loPI   C2B 1342   1.021  18.659   8.593  0.1464 -0.0190 -0.1669
   84loPI   C3B 1343   0.911  18.713   8.170  0.0039 -0.0774 -0.1432
   84loPI   C4B 1344   0.868  18.695   7.729  0.0999  0.1119 -0.0071
   85loPI    C1 1345   8.016   0.762   9.706  0.1671  0.1051 -0.0670
   85loPI    C2 1346   8.128   0.505   9.991  0.0083  0.0053 -0.0933
   85loPI    C3 1347   7.882   0.808  10.080  0.0268  0.0241 -0.1062
   85loPI   PO4 1348   7.944   0.586   9.511  0.0401 -0.3333 -0.2598
   85loPI   GL1 1349   7.687   0.664   9.218 -0.0209 -0.1015  0.1859
   85loPI   GL2 1350   7.991   0.638   9.034 -0.1913 -0.2781  0.0234
   85loPI   C1A 1351   7.569   0.712   8.811  0.0318 -0.1330 -0.0055
   85loPI   C2A 1352   7.607   0.772   8.394  0.1905 -0.1566  0.0803
   85loPI   C3A 1353   7.945   0.792   8.035  0.0426 -0.0989 -0.1436
   85loPI   C4A 1354   8.445   0.668   7.992  0.1379 -0.0556  0.0966
   85loPI   C5A 1355   8.894   0.825   7.979 -0.2210 -0.2147 -0.0850
   85loPI   C6A 1356   9.217   1.034   7.845 -0.0095  0.1247  0.1154
   85loPI   C1B 1357   8.338   0.568   8.873  0.1366  0.1734 -0.4065
   85loPI   C2B 1358   8.730   0.627   8.618 -0.1684 -0.4172  0.1711
   85loPI   C3B 1359   8.827   0.389   8.244  0.3572 -0.1126 -0.3186
   85loPI   C4B 1360   9.072   0.411   7.788 -0.0034  0.1414  0.0510
   86loPI    C1 1361   5.296  18.510  10.024  0.0279 -0.1464 -0.1028
   86loPI    C2 1362   5.460  18.345  10.350 -0.0934  0.2147  0.1479
   86loPI    C3 1363   5.623  18.673  10.188 -0.1017  0.1044 -0.0879
   86loPI   PO4 1364   5.212  18.234   9.920  0.1002 -0.0956  0.0802
   86loPI   GL1 1365   5.179  18.083   9.550 -0.0517 -0.1514 -0.0633
   86loPI   GL2 1366   5.488  17.938   9.502  0.1713 -0.0428  0.0092
   86loPI   C1A 1367   5.002  18.276   9.040 -0.0437 -0.1426  0.0809
   86loPI   C2A 1368   4.944  18.269   8.660 -0.1151 -0.0143  0.4289
   86loPI   C3A 1369   5.055  18.319   8.191  0.1817  0.2563  0.0702
   86loPI   C4A 1370   5.046  18.613   7.819  0.1878 -0.0625 -0.1131
   86loPI   C5A 1371   5.401  18.914   7.682 -0.0831  0.2215 -0.0295
   86loPI   C6A 1372   5.671  19.316   7.804 -0.1300  0.1044  0.2297
   86loPI   C1B 1373   5.441  18.103   9.124  0.4511  0.1661 -0.0003
   86loPI   C2B 1374   5.481  18.135   8.678  0.0870 -0.0659  0.1571
   86loPI   C3B 1375   5.462  18.499   8.434  0.2301  0.1483  0.2281
   86loPI   C4B 1376   5.363  18.900   8.188 -0.0448 -0.0728  0.2262
   87loPI    C1 1377  12.075   8.121  10.277 -0.2561  0.0213 -0.0492
   87loPI    C2 1378  12.366   8.046  10.013 -0.2931 -0.1268 -0.0494
   87loPI    C3 1379  12.330   7.819  10.340 -0.2997  0.0032  0.0410
   87loPI   PO4 1380  11.951   8.309  10.145 -0.0700 -0.0515  0.0360
   87loPI   GL1 1381  11.656   8.305   9.722  0.4416 -0.0024  0.3385
   87loPI   GL2 1382  12.087   8.304   9.656 -0.2519  0.1946  0.0626
   87loPI   C1A 1383  11.717   8.257   9.282 -0.0608  0.1376 -0.0785
   87loPI   C2A 1384  11.726   8.354   8.859 -0.2813  0.0752 -0.0696
   87loPI   C3A 1385  11.815   8.242   8.434 -0.0255 -0.1758 -0.3434
   87loPI   C4A 1386  11.917   8.367   7.995  0.2581 -0.1439  0.1872
   87loPI   C5A 1387  12.236   8.414   7.566 -0.0101  0.1823  0.0465
   87loPI   C6A 1388  12.645   8.287   7.562 -0.0597  0.0390 -0.1370
   87loPI   C1B 1389  12.233   8.294   9.206 -0.2960 -0.1617  0.0808
   87loPI   C2B 1390  12.202   8.169   8.742  0.2358  0.0169 -0.0866
   87loPI   C3B 1391  12.339   8.122   8.288  0.1126 -0.2195  0.3503
   87loPI   C4B 1392  12.329   8.040   7.854 -0.2137  0.1689 -0.1021
   88loPI    C1 1393   5.403  15.052   9.972  0.0363 -0.1483 -0.1344
   88loPI    C2 1394   5.438  14.891  10.337  0.0072 -0.1922 -0.1510
   88loPI    C3 1395   5.549  15.271  10.275 -0.0690 -0.1575 -0.0765
   88loPI   PO4 1396   5.453  14.821   9.834  0.1006  0.1178 -0.1481
   88loPI   GL1 1397   5.413  14.444   9.610 -0.0800  0.0920  0.2191
   88loPI   GL2 1398   5.649  14.567   9.480  0.0412  0.3916  0.1827
   88loPI   C1A 1399   5.217  14.710   9.217  0.2251  0.0682  0.2625
   88loPI   C2A 1400   5.040  14.863   8.855 -0.1030 -0.2543 -0.2190
   88loPI   C3A 1401   4.944  14.967   8.392  0.1999 -0.2197  0.2973
   88loPI   C4A 1402   4.906  14.865   8.071 -0.0946 -0.1994  0.0571
   88loPI   C5A 1403   4.716  14.683   7.842  0.1244  0.1313 -0.0327
   88loPI   C6A 1404   4.301  14.448   7.859  0.1248  0.1186 -0.1868
   88loPI   C1B 1405   5.720  14.438   9.041  0.0649  0.1299  0.0010
   88loPI   C2B 1406   5.892  14.636   8.626  0.1563  0.1412  0.0135
   88loPI   C3B 1407   5.882  14.669   8.140  0.0041  0.1526 -0.3558
   88loPI   C4B 1408   6.157  14.790   7.728 -0.1501 -0.0527 -0.1407
   89loPI    C1 1409   0.691  14.057  10.005  0.1296 -0.0211  0.0992
   89loPI    C2 1410   0.458  14.380  10.042  0.1082 -0.0191 -0.0486
   89loPI    C3 1411   0.323  14.021  10.156  0.1657  0.0373  0.2022
   89loPI   PO4 1412   0.817  14.074   9.766 -0.0753  0.0561 -0.1193
   89loPI   GL1 1413   0.713  14.005   9.356 -0.0924 -0.1380  0.0365
   89loPI   GL2 1414   0.531  14.256   9.418 -0.2123  0.2774 -0.0139
   89loPI   C1A 1415   0.713  13.671   9.117 -0.1688 -0.2007  0.2011
   89loPI   C2A 1416   0.880  13.526   8.676 -0.0499 -0.0260  0.3886
   89loPI   C3A 1417   0.925  13.692   8.214  0.2795 -0.1583 -0.1804
   89loPI   C4A 1418   1.060  13.983   7.862  0.0236 -0.0611  0.3384
   89loPI   C5A 1419   1.381  14.134   7.541 -0.0001 -0.4502  0.1786
   89loPI   C6A 1420   1.625  13.839   7.250 -0.1467 -0.0820  0.0912
   89loPI   C1B 1421   0.458  14.184   8.941  0.0525 -0.0146 -0.1097
   89loPI   C2B 1422   0.591  13.899   8.548 -0.0206 -0.1121 -0.2395
   89loPI   C3B 1423   0.418  13.699   8.202 -0.1576  0.0465 -0.0812
   89loPI   C4B 1424   0.552  13.588   7.773 -0.0677 -0.0418  0.0709
   90loPI    C1 1425  14.256   5.512  10.342 -0.0384 -0.1373  0.0831
   90loPI    C2 1426  14.449   5.382  10.667 -0.1098  0.1189  0.2311
   90loPI    C3 1427  14.053   5.434  10.678 -0.1263  0.0332  0.0706
   90loPI   PO4 1428  14.434   5.526  10.186 -0.6181 -0.5844  0.0286
   90loPI   GL1 1429  14.653   5.377   9.894 -0.0316 -0.1676 -0.0662
   90loPI   GL2 1430  14.815   5.065   9.789 -0.0120  0.2785  0.2452
   90loPI   C1A 1431  14.868   5.647   9.628 -0.1495 -0.1783  0.1096
   90loPI   C2A 1432  15.094   5.666   9.298 -0.1136  0.3627 -0.0474
   90loPI   C3A 1433  15.035   5.646   8.889 -0.2307 -0.1014 -0.1981
   90loPI   C4A 1434  14.959   5.619   8.437  0.0023  0.3012 -0.2045
   90loPI   C5A 1435  14.896   5.693   8.011 -0.1545 -0.0227 -0.3724
   90loPI   C6A 1436  14.655   6.060   7.844  0.2727 -0.0091 -0.0668
   90loPI   C1B 1437  14.730   5.275   9.344  0.1191 -0.2963  0.4434
   90loPI   C2B 1438  14.680   5.325   8.888  0.1087  0.2166  0.1591
   90loPI   C3B 1439  14.677   5.192   8.489  0.3696 -0.0196 -0.1332
   90loPI   C4B 1440  14.618   5.232   8.039  0.1294 -0.1765  0.2134
   91loPI    C1 1441   9.316  14.924  11.003  0.0742  0.1562  0.0922
   91loPI    C2 1442   9.120  15.001  11.343 -0.1153  0.1225 -0.0078
   91loPI    C3 1443   9.520  15.019  11.334 -0.1076  0.0990  0.2220
   91loPI   PO4 1444   9.145  14.909  10.843  0.0851 -0.1040 -0.3522
   91loPI   GL1 1445   9.017  15.190  10.525  0.1726  0.2139 -0.0432
   91loPI   GL2 1446   9.147  15.463  10.353 -0.4041  0.1198  0.2032
   91loPI   C1A 1447   8.879  14.982  10.103 -0.2773  0.1266 -0.0652
   91loPI   C2A 1448   8.886  15.062   9.660  0.0166 -0.1489 -0.0543
   91loPI   C3A 1449   8.968  15.040   9.263  0.0233  0.3441  0.0071
   91loPI   C4A 1450   8.879  15.021   8.807  0.1985  0.0363  0.2205
   91loPI   C5A 1451   8.994  15.157   8.378 -0.4176  0.2423 -0.0972
   91loPI   C6A 1452   8.882  15.209   7.946 -0.2221  0.2357  0.1615
   91loPI   C1B 1453   9.206  15.357   9.898 -0.1120 -0.1301  0.0131
   91loPI   C2B 1454   9.314  15.378   9.475  0.0747 -0.2297  0.2663
   91loPI   C3B 1455   9.314  15.391   9.033 -0.2911  0.0233 -0.1559
   91loPI   C4B 1456   9.341  15.354   8.659  0.1810  0.3044 -0.0379
   92loPI    C1 1457   2.327   6.421   9.636 -0.2139 -0.0880 -0.2162
   92loPI    C2 1458   2.350   6.025   9.590 -0.1590 -0.0836 -0.2271
   92loPI    C3 1459   2.018   6.189   9.739 -0.0160 -0.1746  0.2072
   92loPI   PO4 1460   2.539   6.474   9.348 -0.2035  0.1680  0.0186
   92loPI   GL1 1461   2.344   6.635   8.886  0.0474  0.0189 -0.1512
   92loPI   GL2 1462   2.667   6.522   8.866 -0.2156  0.2471  0.0127
   92loPI   C1A 1463   2.375   6.779   8.422 -0.0966 -0.1117  0.0501
   92loPI   C2A 1464   2.291   6.885   7.992 -0.0943  0.1143  0.0833
   92loPI   C3A 1465   2.457   7.296   7.768  0.0186 -0.1679 -0.2995
   92loPI   C4A 1466   2.535   7.553   7.426  0.2780  0.2406 -0.0705
   92loPI   C5A 1467   2.565   7.989   7.292 -0.4985 -0.1808 -0.0069
   92loPI   C6A 1468   2.317   8.295   7.161 -0.0908 -0.0678  0.5310
   92loPI   C1B 1469   2.665   6.388   8.531  0.1291  0.0038  0.1679
   92loPI   C2B 1470   2.833   6.350   8.131  0.1414  0.3430 -0.0244
   92loPI   C3B 1471   2.660   6.589   7.841 -0.0577 -0.0894 -0.1867
   92loPI   C4B 1472   2.394   6.736   7.574 -0.0737 -0.2673  0.2418
   93loPI    C1 1473  14.581   8.761  10.192 -0.1700  0.1077 -0.1580
   93loPI    C2 1474  14.852   8.943  10.423  0.0625 -0.2278 -0.1607
   93loPI    C3 1475  14.679   8.604  10.546 -0.1870 -0.1390 -0.2607
   93loPI   PO4 1476  14.629   8.852   9.974 -0.0841 -0.2948 -0.0770
   93loPI   GL1 1477  14.739   8.714   9.682  0.4398  0.0632 -0.2043
   93loPI   GL2 1478  14.650   8.383   9.477  0.1758 -0.0063  0.0810
   93loPI   C1A 1479  14.547   8.828   9.328 -0.4030  0.0348 -0.0851
   93loPI   C2A 1480  14.702   8.942   8.800  0.0453  0.0655  0.3436
   93loPI   C3A 1481  14.473   9.017   8.471 -0.2024 -0.1706  0.2087
   93loPI   C4A 1482  14.205   9.244   8.149 -0.1613 -0.5083  0.0023
   93loPI   C5A 1483  13.957   9.375   7.786  0.0981 -0.0671 -0.1265
   93loPI   C6A 1484  13.877   9.685   7.466  0.1329 -0.2144 -0.1712
   93loPI   C1B 1485  14.448   8.401   9.073 -0.0328 -0.1800 -0.1679
   93loPI   C2B 1486  14.288   8.215   8.668 -0.0912 -0.1853 -0.1331
   93loPI   C3B 1487  14.391   8.123   8.150 -0.0666 -0.2526  0.1325
   93loPI   C4B 1488  14.241   7.878   7.748  0.0158 -0.0570 -0.2097
   94loPI    C1 1489   0.956   8.350  10.067  0.2271 -0.1450  0.0230
   94loPI    C2 1490   0.704   8.343  10.377  0.1802 -0.0125 -0.0114
   94loPI    C3 1491   1.081   8.220  10.424  0.2153  0.1465  0.1365
   94loPI   PO4 1492   0.943   8.163   9.912 -0.1064  0.1344 -0.2603
   94loPI   GL1 1493   1.018   8.044   9.450 -0.2673  0.2653 -0.3063
   94loPI   GL2 1494   1.329   8.083   9.554 -0.1262  0.0903  0.0416
   94loPI   C1A 1495   0.827   7.946   9.207  0.2420 -0.1039  0.1160
   94loPI   C2A 1496   0.869   8.007   8.869 -0.0241  0.0113 -0.0282
   94loPI   C3A 1497   0.848   7.935   8.444  0.1443 -0.0028 -0.1458
   94loPI   C4A 1498   0.881   8.109   8.119 -0.0813  0.1797 -0.1427
   94loPI   C5A 1499   1.000   8.243   7.826 -0.1113 -0.0585  0.0669
   94loPI   C6A 1500   1.070   8.237   7.490 -0.2732  0.2392 -0.0751
   94loPI   C1B 1501   1.364   7.996   9.114 -0.4213  0.1626  0.1836
   94loPI   C2B 1502   1.359   8.027   8.690 -0.2315  0.1792  0.0591
   94loPI   C3B 1503   1.361   7.985   8.258 -0.1260  0.1267 -0.0247
   94loPI   C4B 1504   1.288   7.819   7.841  0.0414 -0.3345  0.2749
   95loPI    C1 1505   3.168   7.916   9.801  0.0722  0.0289 -0.1661
   95loPI    C2 1506   3.556   7.944   9.707  0.1081 -0.1815 -0.0846
   95loPI    C3 1507   3.444   7.912  10.090  0.0010  0.0191 -0.0977
   95loPI   PO4 1508   3.094   8.076   9.657  0.0738 -0.4357 -0.1907
   95loPI   GL1 1509   3.000   8.132   9.350  0.0002 -0.1621  0.2740
   95loPI   GL2 1510   2.804   7.838   9.303  0.0222 -0.4517  0.2735
   95loPI   C1A 1511   3.066   8.324   8.972  0.1988 -0.1459  0.2682
   95loPI   C2A 1512   3.073   8.296   8.547  0.0206 -0.2819  0.1243
   95loPI   C3A 1513   2.962   8.133   8.236 -0.3908 -0.2544 -0.3247
   95loPI   C4A 1514   2.919   8.071   7.824  0.1069  0.1984  0.0458
   95loPI   C5A 1515   3.153   7.934   7.465  0.1102  0.0215  0.2597
   95loPI   C6A 1516   3.338   7.968   7.115 -0.2642  0.2474  0.1875
   95loPI   C1B 1517   2.805   7.882   8.931 -0.0955 -0.2750  0.4006
   95loPI   C2B 1518   2.813   7.735   8.515 -0.1684  0.0327  0.2713
   95loPI   C3B 1519   2.663   7.706   8.115 -0.0862  0.0358  0.3178
   95loPI   C4B 1520   2.996   7.503   7.744 -0.0384 -0.3445 -0.0968
   96loPI    C1 1521  15.959   4.275  10.712  0.0596 -0.2313 -0.1197
   96loPI    C2 1522  15.733   4.230  11.039 -0.0384 -0.0698 -0.1636
   96loPI    C3 1523  16.070   4.445  11.057  0.0123 -0.1502 -0.1442
   96loPI   PO4 1524  15.808   4.272  10.552  0.1020  0.3992  0.1391
   96loPI   GL1 1525  15.776   4.277  10.074 -0.0621 -0.0411 -0.1326
   96loPI   GL2 1526  15.555   3.976   9.936  0.2636 -0.0569 -0.1453
   96loPI   C1A 1527  15.684   4.310   9.615  0.1036  0.0520  0.2037
   96loPI   C2A 1528  15.617   4.265   9.169 -0.1393 -0.1903 -0.1030
   96loPI   C3A 1529  15.526   4.279   8.763  0.1329 -0.0551  0.1647
   96loPI   C4A 1530  15.495   4.185   8.278  0.2164  0.0896 -0.0534
   96loPI   C5A 1531  15.317   4.138   7.846 -0.1506 -0.3629  0.2381
   96loPI   C6A 1532  15.117   4.360   7.630  0.0381 -0.0579  0.1217
   96loPI   C1B 1533  15.405   3.846   9.474  0.0819 -0.0546  0.3118
   96loPI   C2B 1534  15.301   3.880   9.078 -0.1660  0.0583  0.0938
   96loPI   C3B 1535  15.235   3.795   8.725  0.2759 -0.1753 -0.2656
   96loPI   C4B 1536  15.123   3.765   8.357  0.0660  0.0358  0.0239
   97loPI    C1 1537  11.040  14.125  10.841 -0.2609  0.0330  0.1304
   97loPI    C2 1538  10.795  14.050  11.148 -0.1036  0.0073  0.2513
   97loPI    C3 1539  11.190  14.069  11.208 -0.0697 -0.0241  0.0450
   97loPI   PO4 1540  10.967  13.959  10.631  0.0741 -0.1858 -0.0462
   97loPI   GL1 1541  10.826  13.919  10.288 -0.1147  0.0724 -0.1512
   97loPI   GL2 1542  11.011  13.566  10.333  0.4140 -0.4233 -0.0855
   97loPI   C1A 1543  10.826  14.001   9.861  0.1092 -0.0875  0.1017
   97loPI   C2A 1544  10.996  14.040   9.461 -0.1943 -0.0736 -0.0071
   97loPI   C3A 1545  10.912  14.027   8.961 -0.0295 -0.0308 -0.3154
   97loPI   C4A 1546  11.092  14.169   8.501 -0.3097  0.2523 -0.0753
   97loPI   C5A 1547  10.854  14.419   8.148  0.0106 -0.3071 -0.2642
   97loPI   C6A 1548  10.611  14.769   8.100 -0.1059  0.1395  0.0393
   97loPI   C1B 1549  11.132  13.228  10.048  0.0056 -0.1036  0.3376
   97loPI   C2B 1550  11.210  13.212   9.643  0.1579 -0.4514 -0.3089
   97loPI   C3B 1551  11.175  13.270   9.249  0.2471 -0.1163 -0.1924
   97loPI   C4B 1552  11.048  13.094   8.862 -0.3888  0.1502 -0.3654
   98loPI    C1 1553   4.453  10.380   9.319  0.0958  0.0543 -0.1324
   98loPI    C2 1554   4.475  10.697   9.561 -0.2245 -0.0816  0.0826
   98loPI    C3 1555   4.694  10.371   9.639  0.0411  0.0510 -0.0912
   98loPI   PO4 1556   4.192  10.293   9.257 -0.2772  0.2374  0.0091
   98loPI   GL1 1557   4.164  10.044   8.994 -0.1450 -0.2623 -0.1120
   98loPI   GL2 1558   4.487  10.226   8.842  0.2115 -0.0041  0.1237
   98loPI   C1A 1559   4.044   9.879   8.545  0.1315  0.1729 -0.1832
   98loPI   C2A 1560   4.229   9.788   8.165  0.1609 -0.2152  0.2590
   98loPI   C3A 1561   4.141   9.832   7.718 -0.0215  0.3523  0.0711
   98loPI   C4A 1562   4.225   9.968   7.356  0.0188 -0.2573 -0.1294
   98loPI   C5A 1563   4.539  10.041   7.052 -0.3570  0.0683 -0.2154
   98loPI   C6A 1564   4.963  10.122   7.141  0.2898  0.1815 -0.2235
   98loPI   C1B 1565   4.382  10.191   8.378 -0.0819 -0.0893  0.0654
   98loPI   C2B 1566   4.421  10.168   7.936  0.4353  0.0474  0.2214
   98loPI   C3B 1567   4.701   9.898   7.632  0.0692 -0.2020 -0.1385
   98loPI   C4B 1568   4.618   9.624   7.260  0.2677  0.1225  0.0454
   99loPI    C1 1569   6.514  11.057  10.298 -0.0279  0.1385 -0.1509
   99loPI    C2 1570   6.377  11.425  10.375  0.2938  0.2047  0.1316
   99loPI    C3 1571   6.388  11.151  10.666 -0.2401 -0.1341 -0.1506
   99loPI   PO4 1572   6.292  11.126   9.952  0.1922 -0.0125  0.0859
   99loPI   GL1 1573   6.183  11.178   9.580  0.1913 -0.1712 -0.0369
   99loPI   GL2 1574   6.042  11.548   9.482 -0.2734 -0.0931  0.2645
   99loPI   C1A 1575   6.496  11.111   9.211  0.0418 -0.0577 -0.1633
   99loPI   C2A 1576   6.515  11.363   8.857 -0.2746 -0.2972 -0.2038
   99loPI   C3A 1577   6.595  11.236   8.484  0.1690 -0.1886  0.2525
   99loPI   C4A 1578   6.706  11.347   8.071 -0.0813  0.0231 -0.0371
   99loPI   C5A 1579   7.003  11.079   7.667 -0.0317  0.3097  0.0158
   99loPI   C6A 1580   7.332  10.691   7.586  0.0331  0.2766  0.0456
   99loPI   C1B 1581   5.999  11.279   9.023  0.1176  0.2352  0.0746
   99loPI   C2B 1582   6.091  11.279   8.640  0.1584 -0.0760  0.1003
   99loPI   C3B 1583   6.192  11.227   8.169 -0.0230  0.0679 -0.1095
   99loPI   C4B 1584   6.099  10.952   7.663  0.0096  0.0131  0.0728
  100loPI    C1 1585  13.673   7.069  10.234  0.0428  0.1071  0.0536
  100loPI    C2 1586  13.610   7.450  10.338  0.1027  0.1551 -0.0843
  100loPI    C3 1587  13.953   7.269  10.438  0.0413  0.1125  0.0506
  100loPI   PO4 1588  13.623   7.087  10.006  0.0547 -0.2506  0.0153
  100loPI   GL1 1589  13.703   7.261   9.656  0.3830  0.1583 -0.1098
  100loPI   GL2 1590  13.500   7.520   9.485 -0.1803 -0.1130  0.1302
  100loPI   C1A 1591  13.622   7.038   9.285  0.3475 -0.3244 -0.1984
  100loPI   C2A 1592  13.378   6.785   8.993 -0.1858 -0.2121  0.1563
  100loPI   C3A 1593  13.364   6.458   8.792  0.2895  0.2070  0.1672
  100loPI   C4A 1594  13.387   6.366   8.352  0.2358  0.0698 -0.2304
  100loPI   C5A 1595  13.279   6.427   7.865  0.2813 -0.1760  0.2851
  100loPI   C6A 1596  13.018   6.181   7.492 -0.0460 -0.3503 -0.6148
  100loPI   C1B 1597  13.235   7.829   9.348 -0.0483 -0.1691 -0.1072
  100loPI   C2B 1598  13.139   7.827   8.967 -0.3054 -0.0025 -0.1445
  100loPI   C3B 1599  12.969   7.612   8.611 -0.1000 -0.1545  0.2189
  100loPI   C4B 1600  12.822   7.701   8.112  0.0433  0.1716  0.2155
  101loPI    C1 1601  13.177   4.645  10.389 -0.3692 -0.2549 -0.1115
  101loPI    C2 1602  12.871   4.719  10.636  0.0379  0.2233  0.2700
  101loPI    C3 1603  13.204   4.547  10.776  0.0987  0.0713 -0.0527
  101loPI   PO4 1604  13.100   4.555  10.217 -0.0242  0.2904  0.0617
  101loPI   GL1 1605  12.917   4.574   9.925  0.0674 -0.0710  0.1080
  101loPI   GL2 1606  12.986   4.781   9.671 -0.2575 -0.0739 -0.4961
  101loPI   C1A 1607  12.732   4.363   9.610 -0.2128  0.3886  0.0421
  101loPI   C2A 1608  12.637   4.264   9.230 -0.1525 -0.0570  0.1607
  101loPI   C3A 1609  12.567   4.156   8.943 -0.0282 -0.0597 -0.1046
  101loPI   C4A 1610  12.460   4.173   8.509 -0.1893  0.1128  0.0491
  101loPI   C5A 1611  12.635   4.305   8.170  0.1586 -0.0307  0.3090
  101loPI   C6A 1612  12.729   4.507   7.732 -0.3654 -0.0822  0.4649
  101loPI   C1B 1613  13.034   4.635   9.267  0.2054 -0.1338 -0.0822
  101loPI   C2B 1614  12.997   4.545   8.819 -0.0129  0.1174  0.1157
  101loPI   C3B 1615  13.020   4.586   8.341 -0.0242 -0.0814 -0.1931
  101loPI   C4B 1616  13.154   4.339   8.056  0.0182  0.2798 -0.0104
  102loPI    C1 1617   6.725   0.646   9.888  0.1424  0.0083 -0.0400
  102loPI    C2 1618   7.068   0.846   9.836  0.2496 -0.0502  0.4037
  102loPI    C3 1619   7.075   0.459   9.937  0.0433 -0.2582 -0.3185
  102loPI   PO4 1620   6.522   0.700   9.694 -0.1099  0.0044 -0.4534
  102loPI   GL1 1621   6.367   0.569   9.396  0.3099  0.0303  0.0673
  102loPI   GL2 1622   6.156   0.296   9.396  0.0621  0.1962  0.4805
  102loPI   C1A 1623   6.476   0.413   8.951  0.0508  0.1418  0.1621
  102loPI   C2A 1624   6.504   0.100   8.561  0.0100 -0.3012  0.1582
  102loPI   C3A 1625   6.354  -0.200   8.310  0.1262 -0.3297  0.3028
  102loPI   C4A 1626   6.276  -0.459   7.975 -0.1857 -0.0445 -0.0870
  102loPI   C5A 1627   5.881  -0.702   7.904  0.0889 -0.0312  0.2925
  102loPI   C6A 1628   5.552  -0.715   8.177  0.0402 -0.4412  0.0036
  102loPI   C1B 1629   6.419  -0.049   9.198 -0.0059  0.1095 -0.0063
  102loPI   C2B 1630   6.082  -0.266   8.841 -0.0990 -0.1451 -0.1490
  102loPI   C3B 1631   5.772  -0.272   8.792 -0.1287 -0.1388 -0.0265
  102loPI   C4B 1632   5.474  -0.218   9.076 -0.4611  0.1419  0.0324
  103loPI    C1 1633  11.774   1.329  10.230  0.0577  0.0910  0.0137
  103loPI    C2 1634  11.873   1.622  10.483  0.1089  0.0387  0.0543
  103loPI    C3 1635  11.813   1.251  10.620  0.0922  0.0199 -0.0039
  103loPI   PO4 1636  11.730   1.554   9.991 -0.0255 -0.1150 -0.2951
  103loPI   GL1 1637  11.525   1.720   9.634  0.0681 -0.0230  0.0518
  103loPI   GL2 1638  11.702   1.449   9.520  0.1127  0.1666 -0.1867
  103loPI   C1A 1639  11.625   1.798   9.165  0.0749 -0.1852  0.2552
  103loPI   C2A 1640  11.619   1.695   8.696 -0.0286 -0.1047  0.1164
  103loPI   C3A 1641  11.380   1.504   8.448  0.0055  0.1110  0.1679
  103loPI   C4A 1642  11.418   1.059   8.229  0.0092 -0.1767 -0.4272
  103loPI   C5A 1643  11.587   0.915   7.858  0.0793  0.0900  0.0819
  103loPI   C6A 1644  11.837   1.039   7.447  0.0790 -0.1962  0.1311
  103loPI   C1B 1645  11.723   1.295   9.138 -0.1296 -0.1177  0.0143
  103loPI   C2B 1646  11.963   1.255   8.804 -0.0516 -0.1118 -0.4088
  103loPI   C3B 1647  11.922   1.358   8.397 -0.0496 -0.0295 -0.0883
  103loPI   C4B 1648  11.918   1.372   7.925  0.1925  0.0007 -0.2575
  104loPI    C1 1649  18.748   0.294  10.154 -0.1937  0.0556 -0.0014
  104loPI    C2 1650  18.507   0.224  10.466 -0.2061  0.2184  0.0268
  104loPI    C3 1651  18.899   0.151  10.496 -0.2185  0.1632  0.0553
  104loPI   PO4 1652  18.598   0.556  10.082 -0.1598 -0.2664 -0.1140
  104loPI   GL1 1653  18.338   0.669   9.762  0.1082  0.1032  0.1884
  104loPI   GL2 1654  18.702   0.775   9.647  0.0311  0.2987  0.3046
  104loPI   C1A 1655  18.076   0.717   9.387 -0.0689 -0.1196 -0.1184
  104loPI   C2A 1656  18.129   0.684   8.999  0.0602 -0.3634 -0.2071
  104loPI   C3A 1657  18.131   0.732   8.518  0.2626  0.0073  0.1820
  104loPI   C4A 1658  17.972   0.767   8.061  0.1624 -0.3692 -0.0097
  104loPI   C5A 1659  18.152   0.626   7.653 -0.2710 -0.4461  0.1212
  104loPI   C6A 1660  18.410   0.674   7.342 -0.0319  0.2950 -0.0048
  104loPI   C1B 1661  18.600   0.621   9.253 -0.2702 -0.0506 -0.0161
  104loPI   C2B 1662  18.624   0.653   8.862 -0.3064 -0.2386 -0.0435
  104loPI   C3B 1663  18.608   0.654   8.507  0.3817  0.1292  0.2152
  104loPI   C4B 1664  18.513   0.701   8.069 -0.0424 -0.1576 -0.1010
  105loPI    C1 1665   4.216   7.074   9.600 -0.2526  0.1105  0.0719
  105loPI    C2 1666   4.218   7.250   9.959  0.0592  0.0799  0.0885
  105loPI    C3 1667   4.552   7.082   9.817 -0.1368 -0.1670 -0.0910
  105loPI   PO4 1668   4.053   7.243   9.453  0.3986 -0.2051 -0.1187
  105loPI   GL1 1669   3.886   7.559   9.211  0.2529  0.1962  0.2362
  105loPI   GL2 1670   3.554   7.454   9.038 -0.1346 -0.0375 -0.2188
  105loPI   C1A 1671   3.809   7.800   8.844 -0.2326  0.1469 -0.3796
  105loPI   C2A 1672   3.875   7.641   8.492 -0.1045  0.1841 -0.1458
  105loPI   C3A 1673   3.893   7.830   8.011 -0.1553 -0.0764 -0.2558
  105loPI   C4A 1674   3.629   7.751   7.623 -0.0506  0.1444 -0.3244
  105loPI   C5A 1675   3.254   7.510   7.314  0.5492  0.0599  0.0907
  105loPI   C6A 1676   2.956   7.395   7.160  0.2736  0.0305  0.1872
  105loPI   C1B 1677   3.489   7.455   8.645  0.0339  0.1008 -0.2228
  105loPI   C2B 1678   3.494   7.084   8.368 -0.4613  0.1989  0.0652
  105loPI   C3B 1679   3.579   6.870   7.979  0.0953 -0.2080  0.1042
  105loPI   C4B 1680   3.631   6.615   7.672  0.0101 -0.1751  0.0287
  106loPI    C1 1681   8.430  18.203  10.233  0.1263  0.2044 -0.1781
  106loPI    C2 1682   8.732  18.397  10.056  0.4735 -0.2054 -0.0536
  106loPI    C3 1683   8.740  18.331  10.451 -0.0015  0.1673  0.0288
  106loPI   PO4 1684   8.320  18.038   9.993  0.1691 -0.0052 -0.2268
  106loPI   GL1 1685   8.117  17.882   9.688  0.1578  0.1257  0.0661
  106loPI   GL2 1686   7.989  17.612   9.604 -0.0582  0.1260 -0.0865
  106loPI   C1A 1687   8.034  17.939   9.168  0.0541  0.1306 -0.0390
  106loPI   C2A 1688   8.177  18.058   8.677  0.0943 -0.0114 -0.0776
  106loPI   C3A 1689   8.386  17.923   8.238  0.1718  0.2088  0.1702
  106loPI   C4A 1690   8.614  18.248   7.921 -0.1774  0.0925 -0.0172
  106loPI   C5A 1691   8.849  18.534   7.809 -0.0576  0.0732  0.2595
  106loPI   C6A 1692   8.980  18.768   7.540  0.0042 -0.2341  0.1642
  106loPI   C1B 1693   7.952  17.395   9.207  0.0206  0.0588  0.1574
  106loPI   C2B 1694   7.681  17.140   8.867 -0.1518 -0.1296  0.0458
  106loPI   C3B 1695   7.524  17.198   8.420  0.3562 -0.0129  0.0396
  106loPI   C4B 1696   7.524  17.498   8.073 -0.0339 -0.0317 -0.5247
  107loPI    C1 1697   2.412   2.849  10.437 -0.2491 -0.1495  0.1127
  107loPI    C2 1698   2.317   2.651  10.771 -0.2654 -0.2864  0.0276
  107loPI    C3 1699   2.361   3.048  10.780 -0.2968 -0.2858  0.1856
  107loPI   PO4 1700   2.325   2.785  10.204  0.1902  0.1140 -0.3821
  107loPI   GL1 1701   2.389   2.805   9.668 -0.1159 -0.1274 -0.2128
  107loPI   GL2 1702   2.167   2.520   9.601  0.1007  0.0499  0.1070
  107loPI   C1A 1703   2.184   2.844   9.281  0.1812 -0.0730 -0.2974
  107loPI   C2A 1704   2.300   2.795   8.840 -0.2153  0.0148 -0.1285
  107loPI   C3A 1705   2.455   2.530   8.405  0.1200 -0.0640 -0.3085
  107loPI   C4A 1706   2.496   2.459   7.971  0.1075  0.0514 -0.0662
  107loPI   C5A 1707   2.732   2.756   7.795  0.3764  0.1190 -0.2286
  107loPI   C6A 1708   2.909   3.176   7.978  0.0630  0.1549  0.0082
  107loPI   C1B 1709   2.481   2.440   9.318 -0.0912  0.0996 -0.1735
  107loPI   C2B 1710   2.484   2.186   8.906 -0.0308  0.1300 -0.1031
  107loPI   C3B 1711   2.556   1.801   8.649  0.0557 -0.1671  0.3310
  107loPI   C4B 1712   2.796   1.623   8.311  0.1878 -0.1783 -0.2853
  108loPI    C1 1713   7.124   5.848   9.771  0.1270 -0.1835 -0.1802
  108loPI    C2 1714   7.209   5.723   9.401 -0.0349  0.0641 -0.3040
  108loPI    C3 1715   7.386   6.050   9.547  0.2453 -0.1927 -0.0520
  108loPI   PO4 1716   7.167   5.474   9.881 -0.0748 -0.5204  0.0170
  108loPI   GL1 1717   7.114   5.178   9.509 -0.1318 -0.0815  0.0794
  108loPI   GL2 1718   6.767   5.170   9.357  0.0893  0.0245  0.0129
  108loPI   C1A 1719   7.384   5.340   9.159  0.3893  0.1480  0.0071
  108loPI   C2A 1720   7.325   5.515   8.795 -0.1896 -0.1358 -0.1203
  108loPI   C3A 1721   7.128   5.906   8.562  0.1494  0.1080  0.2070
  108loPI   C4A 1722   7.117   5.878   8.077  0.0734  0.0692  0.1901
  108loPI   C5A 1723   7.314   5.884   7.672  0.0537  0.4075  0.3089
  108loPI   C6A 1724   7.091   6.080   7.366 -0.3098  0.0777  0.1240
  108loPI   C1B 1725   6.552   5.465   9.073  0.1548  0.3432 -0.0973
  108loPI   C2B 1726   6.365   5.498   8.682  0.2680 -0.0817 -0.0601
  108loPI   C3B 1727   6.417   5.369   8.264 -0.0500 -0.1564 -0.0327
  108loPI   C4B 1728   6.768   5.074   8.198 -0.4383 -0.1155  0.1355
  109loPI    C1 1729  18.769   5.616   9.890  0.1005 -0.1131  0.0160
  109loPI    C2 1730  19.094   5.749  10.082  0.1119 -0.1056 -0.0084
  109loPI    C3 1731  18.729   5.830  10.225  0.1246 -0.2499  0.1071
  109loPI   PO4 1732  18.739   5.650   9.567  0.1662 -0.0391 -0.0119
  109loPI   GL1 1733  18.997   5.746   9.203 -0.1765 -0.2200  0.0935
  109loPI   GL2 1734  18.967   5.985   9.214 -0.0729 -0.0705 -0.1164
  109loPI   C1A 1735  18.619   5.673   8.921  0.0239 -0.1252  0.0447
  109loPI   C2A 1736  18.434   5.695   8.478  0.1876 -0.2567  0.1053
  109loPI   C3A 1737  18.562   5.620   8.075 -0.1788 -0.1754 -0.3158
  109loPI   C4A 1738  18.358   5.609   7.732 -0.1657 -0.0569  0.1545
  109loPI   C5A 1739  17.962   5.707   7.891  0.2820  0.1552  0.2851
  109loPI   C6A 1740  17.448   5.731   7.937  0.0376  0.0527  0.1829
  109loPI   C1B 1741  18.887   6.150   8.767  0.2202 -0.1902 -0.1453
  109loPI   C2B 1742  18.530   6.195   8.482  0.0096 -0.2596  0.0524
  109loPI   C3B 1743  18.203   6.025   8.225  0.0283 -0.0687  0.1283
  109loPI   C4B 1744  17.827   6.129   8.141  0.2371  0.3844 -0.1474
  110loPI    C1 1745   0.217  17.453  10.364 -0.1022  0.0033 -0.0073
  110loPI    C2 1746   0.610  17.418  10.295 -0.1842 -0.1436 -0.4285
  110loPI    C3 1747   0.446  17.780  10.334  0.0303 -0.0872  0.0026
  110loPI   PO4 1748   0.064  17.271  10.133 -0.0941 -0.0741 -0.1830
  110loPI   GL1 1749  -0.320  17.142  10.012  0.1303 -0.2332  0.0592
  110loPI   GL2 1750  -0.439  16.724  10.051 -0.0883 -0.0628  0.1945
  110loPI   C1A 1751  -0.297  17.329   9.627  0.0764 -0.0643  0.0571
  110loPI   C2A 1752  -0.321  17.523   9.288  0.0038 -0.2128  0.2630
  110loPI   C3A 1753  -0.259  17.658   8.880  0.0147 -0.1719  0.2122
  110loPI   C4A 1754  -0.248  17.974   8.539 -0.2120  0.1848  0.2115
  110loPI   C5A 1755  -0.270  18.138   8.095 -0.3098  0.1168  0.2994
  110loPI   C6A 1756  -0.321  18.243   7.567  0.0833 -0.0353 -0.0806
  110loPI   C1B 1757  -0.470  16.831   9.609 -0.0090  0.1500  0.2690
  110loPI   C2B 1758  -0.578  17.102   9.253 -0.3125 -0.1500  0.0073
  110loPI   C3B 1759  -0.458  17.101   8.838 -0.0861  0.2348 -0.1307
  110loPI   C4B 1760  -0.494  17.097   8.427  0.1466  0.0666  0.1943
  111loPI    C1 1761  11.190   8.905  10.481 -0.0714  0.2331  0.1454
  111loPI    C2 1762  11.075   8.943  10.862  0.1143 -0.0675  0.2352
  111loPI    C3 1763  11.457   8.863  10.776  0.1022  0.1389 -0.0226
  111loPI   PO4 1764  11.044   9.142  10.360 -0.2444 -0.0876 -0.1836
  111loPI   GL1 1765  10.857   9.091   9.949 -0.4098  0.1907 -0.1336
  111loPI   GL2 1766  10.649   9.352   9.746 -0.0009  0.2672 -0.3537
  111loPI   C1A 1767  11.043   8.847   9.669  0.2617 -0.0537  0.2985
  111loPI   C2A 1768  11.305   8.868   9.289  0.2626 -0.0591  0.1647
  111loPI   C3A 1769  11.247   8.866   8.898 -0.1109 -0.4014  0.3389
  111loPI   C4A 1770  11.173   8.718   8.495  0.2256 -0.3298 -0.2506
  111loPI   C5A 1771  10.908   8.551   8.216  0.0264  0.0659  0.1281
  111loPI   C6A 1772  10.691   8.514   7.991 -0.1503 -0.0113 -0.2231
  111loPI   C1B 1773  10.352   9.169   9.392  0.1525 -0.4460 -0.0027
  111loPI   C2B 1774  10.370   9.171   8.900 -0.1128 -0.0739  0.0982
  111loPI   C3B 1775  10.045   9.071   8.548 -0.3326  0.1851  0.1547
  111loPI   C4B 1776   9.622   9.117   8.583 -0.3908 -0.1484 -0.0425
  112loPI    C1 1777   9.556   7.186  10.434  0.3371  0.0438 -0.3452
  112loPI    C2 1778   9.622   7.531  10.244  0.2339  0.2419 -0.0290
  112loPI    C3 1779   9.609   7.523  10.644 -0.1093 -0.0656 -0.0413
  112loPI   PO4 1780   9.448   7.049  10.119  0.1618 -0.2421  0.2583
  112loPI   GL1 1781   9.576   6.972   9.682  0.3318  0.2033  0.0127
  112loPI   GL2 1782   9.667   7.409   9.708  0.0722  0.1506 -0.0346
  112loPI   C1A 1783   9.592   7.036   9.233  0.2101 -0.0121 -0.0295
  112loPI   C2A 1784   9.512   7.137   8.838  0.1803  0.0701 -0.3498
  112loPI   C3A 1785   9.575   7.329   8.499 -0.2514  0.0275  0.0579
  112loPI   C4A 1786   9.641   7.394   8.038  0.2780 -0.0752  0.0721
  112loPI   C5A 1787   9.456   7.245   7.704  0.0632  0.0070  0.0881
  112loPI   C6A 1788   9.077   7.271   7.440  0.1904 -0.1505  0.0777
  112loPI   C1B 1789   9.604   7.652   9.363 -0.1393  0.0801  0.0336
  112loPI   C2B 1790   9.563   7.727   8.853  0.1191 -0.2196  0.2740
  112loPI   C3B 1791   9.603   7.786   8.415 -0.4602 -0.2254 -0.3393
  112loPI   C4B 1792   9.709   8.011   8.028 -0.0560 -0.0423  0.2095
  113loPI    C1 1793   0.811  18.362  10.265 -0.0380  0.0506 -0.2732
  113loPI    C2 1794   0.604  18.277  10.597  0.3553 -0.1708 -0.0778
  113loPI    C3 1795   0.499  18.589  10.370 -0.0351 -0.1314  0.1488
  113loPI   PO4 1796   0.835  18.091  10.203  0.3690 -0.1970 -0.1106
  113loPI   GL1 1797   0.634  17.738   9.878  0.0225 -0.1077  0.2696
  113loPI   GL2 1798   0.932  17.719   9.744  0.2004 -0.0491  0.0176
  113loPI   C1A 1799   0.443  18.008   9.617  0.2844 -0.1629  0.1534
  113loPI   C2A 1800   0.365  18.057   9.176 -0.0978 -0.1773  0.1109
  113loPI   C3A 1801   0.390  18.052   8.745  0.1666 -0.1120  0.1736
  113loPI   C4A 1802   0.339  18.122   8.191  0.2709  0.1009  0.4961
  113loPI   C5A 1803   0.205  18.093   7.749  0.3461  0.1373  0.0263
  113loPI   C6A 1804   0.045  17.804   7.402 -0.2294  0.0278 -0.0599
  113loPI   C1B 1805   0.763  17.658   9.331  0.0701 -0.2617 -0.0559
  113loPI   C2B 1806   0.763  17.752   8.965  0.2712  0.3718  0.3881
  113loPI   C3B 1807   0.681  17.722   8.487  0.0566  0.0746  0.0485
  113loPI   C4B 1808   0.657  17.784   8.049  0.1975 -0.1064 -0.0473
  114loPI    C1 1809  12.628   7.404  10.300 -0.0565 -0.1287 -0.0778
  114loPI    C2 1810  12.260   7.297  10.186 -0.2139  0.1259  0.1777
  114loPI    C3 1811  12.333   7.384  10.570  0.0894  0.1779  0.1104
  114loPI   PO4 1812  12.748   7.245  10.038  0.2260  0.0904 -0.1444
  114loPI   GL1 1813  12.455   7.237   9.754 -0.1951 -0.0195 -0.2580
  114loPI   GL2 1814  12.405   7.592   9.811  0.2897  0.1686  0.1025
  114loPI   C1A 1815  12.493   7.205   9.340 -0.2636  0.3761  0.0580
  114loPI   C2A 1816  12.312   7.148   8.875  0.1884 -0.0431  0.2530
  114loPI   C3A 1817  12.381   7.243   8.465  0.0319  0.3843 -0.1911
  114loPI   C4A 1818  12.402   7.153   8.009 -0.2611  0.0693  0.1528
  114loPI   C5A 1819  12.614   7.433   7.705  0.1143  0.0914 -0.3455
  114loPI   C6A 1820  12.682   7.366   7.197  0.2938 -0.2397 -0.2683
  114loPI   C1B 1821  12.297   7.714   9.348  0.0929 -0.0193  0.1500
  114loPI   C2B 1822  12.353   7.696   8.964  0.0656  0.0857  0.3409
  114loPI   C3B 1823  12.445   7.751   8.547  0.3417  0.1147  0.0737
  114loPI   C4B 1824  12.302   7.598   8.080 -0.0699  0.0973  0.2027
  115loPI    C1 1825   5.113  12.285  10.028  0.1098 -0.0151 -0.1271
  115loPI    C2 1826   5.254  11.957  10.209  0.2069  0.0533 -0.0775
  115loPI    C3 1827   4.870  11.974  10.096  0.2006 -0.0757 -0.0773
  115loPI   PO4 1828   5.323  12.382   9.913  0.3465  0.1515 -0.2267
  115loPI   GL1 1829   5.352  12.483   9.485 -0.0547  0.1223  0.2088
  115loPI   GL2 1830   5.110  12.609   9.337  0.1811 -0.0114 -0.1482
  115loPI   C1A 1831   5.735  12.459   9.265 -0.0328  0.0235  0.0139
  115loPI   C2A 1832   6.003  12.703   9.197 -0.0271  0.0367 -0.1769
  115loPI   C3A 1833   6.523  12.660   9.140  0.0467 -0.1215 -0.1458
  115loPI   C4A 1834   6.866  12.671   8.822  0.0839 -0.3938  0.2524
  115loPI   C5A 1835   7.002  12.488   8.407 -0.2505  0.0242 -0.3716
  115loPI   C6A 1836   7.055  12.334   8.033  0.1387 -0.0302 -0.1063
  115loPI   C1B 1837   5.354  12.539   8.968 -0.0231  0.0694  0.0872
  115loPI   C2B 1838   5.754  12.567   8.731  0.2277 -0.0909 -0.4963
  115loPI   C3B 1839   6.019  12.534   8.364 -0.0873  0.3637  0.2527
  115loPI   C4B 1840   6.040  12.580   8.004 -0.1772  0.3101 -0.0066
  116loPI    C1 1841  13.599  11.559  10.909  0.1888  0.0275  0.1184
  116loPI    C2 1842  13.316  11.429  11.160 -0.0926  0.0639 -0.1735
  116loPI    C3 1843  13.558  11.728  11.270 -0.1582  0.0255  0.0832
  116loPI   PO4 1844  13.438  11.525  10.647  0.1517 -0.1632  0.2701
  116loPI   GL1 1845  13.576  11.621  10.281  0.1711  0.0814  0.1431
  116loPI   GL2 1846  13.524  11.436  10.035  0.3588 -0.1689 -0.2215
  116loPI   C1A 1847  13.778  11.788   9.904 -0.1422  0.1696 -0.0741
  116loPI   C2A 1848  13.831  11.802   9.478 -0.0857 -0.1269 -0.0722
  116loPI   C3A 1849  13.827  11.887   9.225  0.0716  0.0235 -0.1581
  116loPI   C4A 1850  13.834  11.895   8.854 -0.2215  0.0753 -0.0419
  116loPI   C5A 1851  13.755  11.806   8.453  0.1739 -0.0260  0.1922
  116loPI   C6A 1852  13.536  11.827   8.045  0.0449 -0.3601  0.1527
  116loPI   C1B 1853  13.785  11.290   9.666 -0.1501  0.1346  0.0651
  116loPI   C2B 1854  13.740  11.347   9.244  0.0211 -0.0422  0.1566
  116loPI   C3B 1855  13.783  11.351   8.813 -0.0149  0.1416  0.1015
  116loPI   C4B 1856  13.732  11.264   8.402 -0.1032  0.2222 -0.0097
  117loPI    C1 1857  14.809   2.550  10.566  0.2987  0.0308 -0.0863
  117loPI    C2 1858  15.039   2.633  10.882  0.1165  0.2087  0.0022
  117loPI    C3 1859  15.149   2.348  10.623  0.1859 -0.0536  0.3140
  117loPI   PO4 1860  14.745   2.742  10.448  0.0244 -0.0203 -0.1217
  117loPI   GL1 1861  14.699   3.010  10.059  0.5561 -0.0522  0.1876
  117loPI   GL2 1862  14.488   3.212   9.973 -0.0634  0.0157  0.0135
  117loPI   C1A 1863  14.868   2.934   9.703  0.0608  0.1325  0.0699
  117loPI   C2A 1864  14.736   3.036   9.186 -0.2698 -0.1367  0.1424
  117loPI   C3A 1865  14.650   3.007   8.797  0.1255  0.2791  0.0911
  117loPI   C4A 1866  14.509   3.013   8.368 -0.2526  0.0907 -0.3089
  117loPI   C5A 1867  14.354   3.094   7.868  0.0606  0.0792 -0.0799
  117loPI   C6A 1868  14.406   3.161   7.403  0.2094  0.0562  0.2208
  117loPI   C1B 1869  14.542   3.359   9.559 -0.1608  0.1822 -0.2670
  117loPI   C2B 1870  14.471   3.516   9.170 -0.3821  0.0453 -0.1453
  117loPI   C3B 1871  14.354   3.480   8.719 -0.0186 -0.0566  0.3660
  117loPI   C4B 1872  14.279   3.421   8.315  0.0419  0.0532  0.0556
  118loPI    C1 1873   3.578   7.370   9.633  0.1294 -0.4476 -0.0901
  118loPI    C2 1874   3.363   7.445   9.962  0.0040 -0.1224 -0.2416
  118loPI    C3 1875   3.747   7.555   9.945 -0.0019 -0.0984 -0.2200
  118loPI   PO4 1876   3.457   7.111   9.432  0.0658 -0.0668  0.2390
  118loPI   GL1 1877   3.419   6.855   9.094 -0.1217 -0.0414  0.2267
  118loPI   GL2 1878   3.739   7.017   9.040 -0.1701 -0.0583  0.0096
  118loPI   C1A 1879   3.187   6.845   8.780  0.1531  0.2239 -0.0373
  118loPI   C2A 1880   3.019   6.767   8.286 -0.0705  0.2484 -0.0746
  118loPI   C3A 1881   3.113   6.720   7.863 -0.2272  0.2070 -0.0255
  118loPI   C4A 1882   3.184   6.357   7.641  0.1547  0.0468 -0.0865
  118loPI   C5A 1883   3.001   6.045   7.285  0.0640  0.0280 -0.1110
  118loPI   C6A 1884   2.816   5.785   6.872 -0.0421  0.0163  0.2209
  118loPI   C1B 1885   4.013   7.228   8.756  0.0397  0.1428 -0.1383
  118loPI   C2B 1886   4.325   7.455   8.559 -0.1465  0.0875 -0.1672
  118loPI   C3B 1887   4.349   7.716   8.234  0.0573 -0.3082  0.0075
  118loPI   C4B 1888   4.240   7.620   7.756 -0.0517 -0.1371  0.1430
  119loPI    C1 1889   1.806  16.609  10.031  0.0707 -0.0803  0.0136
  119loPI    C2 1890   1.815  16.495  10.415  0.1694 -0.1285 -0.0028
  119loPI    C3 1891   1.694  16.864  10.319 -0.1117 -0.2041  0.0537
  119loPI   PO4 1892   1.703  16.453   9.905 -0.3314  0.4328  0.1668
  119loPI   GL1 1893   1.629  16.660   9.490 -0.2217  0.2531 -0.1062
  119loPI   GL2 1894   1.452  16.482   9.414  0.2266 -0.3260 -0.1232
  119loPI   C1A 1895   1.522  16.987   9.217 -0.0166 -0.0749 -0.1930
  119loPI   C2A 1896   1.391  17.013   8.848 -0.0076  0.1870 -0.0024
  119loPI   C3A 1897   1.388  17.023   8.395  0.1019 -0.0140  0.0655
  119loPI   C4A 1898   1.289  17.102   7.972 -0.0235  0.2092  0.1122
  119loPI   C5A 1899   1.086  17.450   7.645 -0.2539 -0.0774 -0.1441
  119loPI   C6A 1900   1.245  17.713   7.468  0.3690  0.1052  0.0155
  119loPI   C1B 1901   1.333  16.482   8.962  0.1684  0.0285  0.0728
  119loPI   C2B 1902   1.202  16.579   8.563 -0.0728  0.1367  0.0699
  119loPI   C3B 1903   1.052  16.610   8.100 -0.0505 -0.0067  0.0960
  119loPI   C4B 1904   1.035  16.368   7.595 -0.1090 -0.0686  0.0516
  120loPI    C1 1905   9.053  18.010  10.140 -0.1001 -0.2179  0.0578
  120loPI    C2 1906   9.392  17.843  10.008  0.0100  0.0311  0.0193
  120loPI    C3 1907   9.348  17.927  10.397 -0.0451 -0.0853  0.0385
  120loPI   PO4 1908   8.858  17.874  10.029 -0.2658 -0.0125 -0.2232
  120loPI   GL1 1909   8.685  17.910   9.658 -0.1725  0.0674 -0.1327
  120loPI   GL2 1910   9.143  18.041   9.587  0.2593 -0.1704 -0.0440
  120loPI   C1A 1911   8.406  17.631   9.380  0.1296  0.2329  0.3729
  120loPI   C2A 1912   8.385  17.544   8.993  0.0612 -0.3667 -0.1881
  120loPI   C3A 1913   8.434  17.607   8.588 -0.0352  0.3055 -0.0532
  120loPI   C4A 1914   8.831  17.633   8.278  0.1784 -0.2400  0.0619
  120loPI   C5A 1915   9.021  17.633   7.924  0.0939 -0.0832 -0.1331
  120loPI   C6A 1916   9.439  17.754   7.733  0.1141  0.0558  0.1051
  120loPI   C1B 1917   8.893  17.989   9.075 -0.2069  0.2844  0.0775
  120loPI   C2B 1918   8.814  18.052   8.589  0.3199  0.1761  0.3627
  120loPI   C3B 1919   8.974  18.145   8.175 -0.0027  0.0382 -0.1540
  120loPI   C4B 1920   9.206  18.155   7.765 -0.2154 -0.2305  0.3025
  121loPI    C1 1921  10.150   3.276  10.651  0.0763 -0.1343  0.0789
  121loPI    C2 1922  10.206   3.229  11.044  0.0062 -0.0809  0.0958
  121loPI    C3 1923  10.094   3.584  10.900 -0.3682 -0.2043  0.0733
  121loPI   PO4 1924  10.402   3.180  10.434 -0.0682 -0.2368 -0.0279
  121loPI   GL1 1925  10.520   3.156   9.942  0.0296 -0.0027 -0.1521
  121loPI   GL2 1926  10.786   3.116   9.899 -0.0185  0.0089 -0.0607
  121loPI   C1A 1927  10.151   3.143   9.642 -0.4075  0.0929  0.0720
  121loPI   C2A 1928  10.129   3.130   9.131 -0.2792 -0.0983  0.0312
  121loPI   C3A 1929  10.211   3.015   8.703 -0.2442  0.1696 -0.4609
  121loPI   C4A 1930  10.060   3.012   8.253 -0.2771 -0.2783  0.0885
  121loPI   C5A 1931   9.814   3.200   7.974  0.1571  0.4064 -0.1255
  121loPI   C6A 1932   9.302   3.274   7.790  0.1022  0.0706  0.1785
  121loPI   C1B 1933  10.942   2.936   9.518  0.1744 -0.1223  0.0213
  121loPI   C2B 1934  10.977   2.875   9.057  0.3486 -0.0247 -0.0160
  121loPI   C3B 1935  10.869   2.920   8.716  0.0178  0.0691  0.0078
  121loPI   C4B 1936  11.027   3.158   8.334 -0.0022 -0.1479  0.3765
  122loPI    C1 1937  14.428   4.896  10.502  0.1085  0.0321  0.0672
  122loPI    C2 1938  14.176   4.616  10.366  0.0082  0.1738 -0.0408
  122loPI    C3 1939  14.044   4.901  10.614  0.1105  0.1253  0.0701
  122loPI   PO4 1940  14.622   4.964  10.248  0.2021 -0.2828 -0.0052
  122loPI   GL1 1941  14.523   4.716   9.902  0.0387  0.0370  0.0872
  122loPI   GL2 1942  14.727   4.407   9.799  0.0836 -0.4522  0.0850
  122loPI   C1A 1943  14.370   5.014   9.585 -0.0934  0.2534  0.0383
  122loPI   C2A 1944  14.304   4.946   9.168  0.1662 -0.2035 -0.0448
  122loPI   C3A 1945  14.317   4.809   8.757 -0.2194 -0.3947  0.2469
  122loPI   C4A 1946  14.367   4.887   8.290  0.2841  0.0481  0.1745
  122loPI   C5A 1947  14.295   4.948   7.798  0.0484  0.0304 -0.1262
  122loPI   C6A 1948  14.116   4.922   7.370 -0.1936  0.1085 -0.0568
  122loPI   C1B 1949  14.577   4.275   9.333  0.1808  0.0641 -0.1005
  122loPI   C2B 1950  14.584   4.381   8.886  0.1052  0.0151 -0.1065
  122loPI   C3B 1951  14.592   4.398   8.464 -0.2613 -0.0329  0.1925
  122loPI   C4B 1952  14.527   4.412   8.018  0.0487 -0.0307 -0.0568
  123loPI    C1 1953  13.004   6.521  10.134 -0.0555 -0.1280 -0.1395
  123loPI    C2 1954  12.793   6.535  10.473 -0.0893 -0.0490 -0.1635
  123loPI    C3 1955  12.675   6.747  10.155  0.0246 -0.0066 -0.1778
  123loPI   PO4 1956  13.023   6.251  10.026 -0.0960  0.0375 -0.0626
  123loPI   GL1 1957  12.987   6.036   9.694  0.1220 -0.0363  0.0937
  123loPI   GL2 1958  13.330   6.003   9.477  0.1494  0.2778 -0.1444
  123loPI   C1A 1959  12.930   5.666   9.349  0.0747 -0.0655  0.3483
  123loPI   C2A 1960  13.067   5.462   8.986  0.2192  0.3025  0.2623
  123loPI   C3A 1961  13.181   5.578   8.564 -0.0401  0.0241 -0.2545
  123loPI   C4A 1962  13.092   5.636   8.089 -0.1560  0.1916 -0.1844
  123loPI   C5A 1963  12.786   5.791   7.877 -0.2074 -0.2118 -0.0892
  123loPI   C6A 1964  12.405   5.904   8.048 -0.1742  0.1609 -0.0077
  123loPI   C1B 1965  13.497   6.071   9.038 -0.2245  0.1397 -0.2563
  123loPI   C2B 1966  13.559   5.990   8.625  0.2020  0.1498 -0.0231
  123loPI   C3B 1967  13.443   5.928   8.126 -0.3283  0.2378 -0.1482
  123loPI   C4B 1968  13.487   5.976   7.724 -0.1313  0.3043  0.0492
  124loPI    C1 1969   3.061  15.342  10.006 -0.0105  0.1168 -0.1240
  124loPI    C2 1970   2.838  15.658  10.110 -0.0727 -0.0241  0.1804
  124loPI    C3 1971   2.918  15.372  10.379  0.2015 -0.1392 -0.0191
  124loPI   PO4 1972   3.059  15.301   9.763  0.4133  0.0425 -0.0619
  124loPI   GL1 1973   3.176  15.170   9.360  0.1066  0.0786 -0.0619
  124loPI   GL2 1974   2.967  14.882   9.343  0.0310 -0.2993  0.0531
  124loPI   C1A 1975   3.026  15.329   9.033 -0.2861  0.1105 -0.2130
  124loPI   C2A 1976   3.133  15.308   8.708  0.2754  0.2626  0.0135
  124loPI   C3A 1977   3.151  15.159   8.246  0.1237  0.1367  0.2162
  124loPI   C4A 1978   2.913  14.992   7.918  0.1213 -0.1528  0.1399
  124loPI   C5A 1979   2.839  14.975   7.554  0.6800 -0.0580  0.1444
  124loPI   C6A 1980   2.662  14.676   7.221  0.1832 -0.1519  0.0182
  124loPI   C1B 1981   3.257  14.909   8.927  0.0632 -0.0378 -0.3166
  124loPI   C2B 1982   3.383  14.743   8.520  0.2024  0.0656  0.3735
  124loPI   C3B 1983   3.403  14.663   8.072  0.0282 -0.0644  0.1837
  124loPI   C4B 1984   3.255  14.620   7.727  0.0808  0.0263 -0.1636
  125loPI    C1 1985  11.601  16.508  10.354 -0.0403  0.1383  0.1404
  125loPI    C2 1986  11.749  16.693  10.676 -0.0079  0.0178  0.1955
  125loPI    C3 1987  11.982  16.450  10.460 -0.1287 -0.1879  0.2937
  125loPI   PO4 1988  11.425  16.603  10.282 -0.3505  0.0453  0.0947
  125loPI   GL1 1989  11.342  16.789   9.892  0.0012 -0.3986  0.0290
  125loPI   GL2 1990  11.517  16.919   9.867  0.1088  0.0494 -0.0565
  125loPI   C1A 1991  11.141  16.557   9.693 -0.0112  0.1182  0.2241
  125loPI   C2A 1992  11.099  16.415   9.285 -0.1512  0.0042  0.0940
  125loPI   C3A 1993  11.066  16.418   8.855  0.0736  0.1885 -0.2410
  125loPI   C4A 1994  10.917  16.140   8.478  0.0617  0.2387  0.0833
  125loPI   C5A 1995  10.693  15.770   8.257 -0.0515 -0.1526 -0.0774
  125loPI   C6A 1996  10.354  15.623   8.119  0.0766  0.2930 -0.1159
  125loPI   C1B 1997  11.491  16.798   9.433  0.0083 -0.2377  0.1588
  125loPI   C2B 1998  11.190  16.871   9.022  0.0786  0.1112 -0.0868
  125loPI   C3B 1999  11.061  17.154   8.834  0.0008 -0.2568 -0.0729
  125loPI   C4B 2000  11.197  17.481   8.865 -0.1357  0.1547 -0.1915
  126loPI    C1 2001  12.242   4.906  10.503 -0.0631  0.2045 -0.1100
  126loPI    C2 2002  12.154   5.286  10.590 -0.0331  0.1578  0.1318
  126loPI    C3 2003  12.318   5.051  10.868  0.0730  0.0052 -0.0579
  126loPI   PO4 2004  12.396   4.891  10.233  0.1254 -0.0577 -0.0970
  126loPI   GL1 2005  12.297   4.983   9.791 -0.1857  0.1673 -0.0522
  126loPI   GL2 2006  12.507   4.739   9.738  0.1716 -0.3225  0.1001
  126loPI   C1A 2007  12.366   5.252   9.449 -0.0552  0.0472 -0.0361
  126loPI   C2A 2008  12.451   5.323   9.003 -0.4064  0.4335  0.0781
  126loPI   C3A 2009  12.191   5.385   8.640 -0.1053  0.1565 -0.1043
  126loPI   C4A 2010  12.036   5.565   8.303  0.1455 -0.1292 -0.1685
  126loPI   C5A 2011  11.847   5.903   8.088 -0.1080 -0.0267 -0.1971
  126loPI   C6A 2012  11.415   5.921   7.966 -0.1883 -0.3700  0.1050
  126loPI   C1B 2013  12.550   4.750   9.317  0.1619  0.3068 -0.3492
  126loPI   C2B 2014  12.505   4.652   8.847  0.1197 -0.0334 -0.0398
  126loPI   C3B 2015  12.549   4.692   8.422 -0.4122  0.0487  0.1081
  126loPI   C4B 2016  12.550   4.989   7.961  0.4329  0.2285  0.1447
  127loPI    C1 2017  12.121   3.334  10.382 -0.0523 -0.0821 -0.0688
  127loPI    C2 2018  12.274   3.046  10.613  0.2425  0.1456  0.0263
  127loPI    C3 2019  11.923   3.214  10.707  0.2210  0.0356  0.1453
  127loPI   PO4 2020  12.286   3.277  10.174 -0.0949 -0.0305  0.2372
  127loPI   GL1 2021  12.091   3.260   9.745  0.1332 -0.2725  0.0364
  127loPI   GL2 2022  11.952   3.522   9.766 -0.4025  0.0096 -0.1576
  127loPI   C1A 2023  12.309   3.281   9.426 -0.1606 -0.1849  0.0454
  127loPI   C2A 2024  12.649   3.209   9.123  0.3076  0.3782 -0.0789
  127loPI   C3A 2025  12.621   3.112   8.744 -0.1796 -0.4416 -0.0388
  127loPI   C4A 2026  12.556   3.236   8.305  0.3083  0.0972  0.1397
  127loPI   C5A 2027  12.214   3.233   8.032 -0.1280  0.0236  0.0545
  127loPI   C6A 2028  11.785   3.506   7.974 -0.0929  0.1323  0.0182
  127loPI   C1B 2029  11.928   3.631   9.316 -0.0815  0.1399 -0.0387
  127loPI   C2B 2030  11.983   3.958   9.024  0.2005  0.0395  0.0261
  127loPI   C3B 2031  11.973   4.028   8.627  0.0737 -0.0973  0.0924
  127loPI   C4B 2032  11.655   3.878   8.457 -0.0346  0.0066 -0.1043
  128loPI    C1 2033  11.736  15.852  10.718  0.1917 -0.1020  0.0644
  128loPI    C2 2034  11.359  15.792  10.835  0.1906  0.3835  0.3328
  128loPI    C3 2035  11.613  15.484  10.813 -0.2608  0.0220 -0.0192
  128loPI   PO4 2036  11.674  16.002  10.405  0.1651 -0.2960  0.1773
  128loPI   GL1 2037  11.793  15.850   9.992 -0.0628 -0.0811 -0.0737
  128loPI   GL2 2038  12.054  15.639   9.908 -0.0445 -0.0157  0.0336
  128loPI   C1A 2039  11.767  15.828   9.531 -0.0202 -0.1830  0.0590
  128loPI   C2A 2040  11.625  15.938   9.160 -0.3705  0.1922 -0.1033
  128loPI   C3A 2041  11.403  16.046   8.750 -0.2075 -0.1026  0.1386
  128loPI   C4A 2042  11.524  16.009   8.306 -0.1303 -0.3458 -0.1774
  128loPI   C5A 2043  11.577  15.710   8.041  0.1747  0.2350 -0.0704
  128loPI   C6A 2044  12.080  15.590   7.885 -0.1280  0.1448 -0.1153
  128loPI   C1B 2045  12.082  15.365   9.614  0.3141 -0.1705  0.2494
  128loPI   C2B 2046  12.418  15.229   9.337  0.0199  0.1369  0.0338
  128loPI   C3B 2047  12.457  15.103   8.900 -0.2234 -0.0837  0.0719
  128loPI   C4B 2048  12.390  15.057   8.495  0.0176 -0.2035 -0.3343
  129loPI    C1 2049   4.615  13.639  10.095  0.0693 -0.0975  0.1619
  129loPI    C2 2050   4.421  13.318   9.957  0.0153 -0.0003  0.0082
  129loPI    C3 2051   4.798  13.284  10.086 -0.0595 -0.1655  0.1902
  129loPI   PO4 2052   4.479  13.795  10.038 -0.1174  0.3411  0.0895
  129loPI   GL1 2053   4.513  13.973   9.672  0.1687  0.2775  0.1972
  129loPI   GL2 2054   4.262  13.754   9.621 -0.0916  0.1534  0.1062
  129loPI   C1A 2055   4.635  14.023   9.237 -0.2685  0.1445  0.1157
  129loPI   C2A 2056   4.839  14.021   8.831  0.1510 -0.1479 -0.1515
  129loPI   C3A 2057   5.052  13.977   8.521 -0.0025 -0.1317 -0.0619
  129loPI   C4A 2058   5.331  14.012   8.066  0.0540 -0.0607  0.2916
  129loPI   C5A 2059   5.346  14.284   7.760 -0.1938 -0.2143 -0.2208
  129loPI   C6A 2060   5.115  14.322   7.449  0.1249  0.2672  0.2887
  129loPI   C1B 2061   4.494  13.487   9.362  0.0910 -0.1118  0.0103
  129loPI   C2B 2062   4.782  13.579   9.042  0.1482  0.0391  0.1907
  129loPI   C3B 2063   4.851  13.508   8.553 -0.2091 -0.0628  0.0230
  129loPI   C4B 2064   5.019  13.611   8.175 -0.1232 -0.0242 -0.0608
  130loPI    C1 2065  16.734   7.244  10.182  0.3468 -0.0457 -0.1134
  130loPI    C2 2066  16.584   7.353  10.536  0.0264 -0.2734 -0.1744
  130loPI    C3 2067  16.664   7.630  10.258 -0.0848 -0.1289 -0.0641
  130loPI   PO4 2068  16.810   6.999  10.244 -0.1187  0.4640 -0.1418
  130loPI   GL1 2069  16.668   6.736   9.862 -0.2802 -0.0193  0.3247
  130loPI   GL2 2070  16.438   6.913   9.974  0.3962 -0.0870  0.3029
  130loPI   C1A 2071  16.563   6.478   9.474 -0.1376 -0.3696 -0.2172
  130loPI   C2A 2072  16.416   6.193   9.256 -0.2733  0.2126  0.0280
  130loPI   C3A 2073  16.410   5.995   8.855  0.0944 -0.1940 -0.0811
  130loPI   C4A 2074  16.317   5.946   8.403  0.0901 -0.5064 -0.1635
  130loPI   C5A 2075  16.161   5.781   8.066  0.0744  0.3302  0.2909
  130loPI   C6A 2076  15.942   6.027   7.803 -0.2273  0.0173 -0.0348
  130loPI   C1B 2077  16.273   6.893   9.521 -0.1177 -0.3257 -0.1247
  130loPI   C2B 2078  16.270   7.021   9.081 -0.0412 -0.0097 -0.3155
  130loPI   C3B 2079  16.168   6.948   8.659  0.0393  0.3853 -0.0472
  130loPI   C4B 2080  16.045   6.970   8.156 -0.1242 -0.0306  0.1196
  131loPI    C1 2081  10.363  17.496  10.605 -0.0186 -0.0200  0.0335
  131loPI    C2 2082  10.608  17.767  10.767 -0.1989  0.0787  0.1441
  131loPI    C3 2083  10.602  17.393  10.909 -0.1468  0.0887  0.1725
  131loPI   PO4 2084  10.100  17.574  10.595 -0.0046 -0.2600  0.1236
  131loPI   GL1 2085  10.070  17.600  10.114 -0.0957  0.2306 -0.0570
  131loPI   GL2 2086  10.383  17.536  10.117 -0.1457 -0.2235 -0.2256
  131loPI   C1A 2087  10.174  17.374   9.731 -0.1495  0.1300 -0.0373
  131loPI   C2A 2088  10.307  17.308   9.312  0.1052 -0.0687 -0.1863
  131loPI   C3A 2089  10.344  17.287   8.920 -0.1439 -0.1925  0.4338
  131loPI   C4A 2090  10.237  17.600   8.513  0.2561  0.0557  0.0781
  131loPI   C5A 2091  10.508  17.888   8.294 -0.1837  0.0624  0.0758
  131loPI   C6A 2092  10.736  18.252   8.395  0.0072  0.0542  0.0191
  131loPI   C1B 2093  10.482  17.835   9.844  0.0327  0.2701  0.1037
  131loPI   C2B 2094  10.474  17.808   9.451  0.3076  0.0116  0.0606
  131loPI   C3B 2095  10.338  17.888   9.181  0.0263 -0.1040  0.0912
  131loPI   C4B 2096  10.249  18.034   8.825  0.1842 -0.0563  0.0894
  132loPI    C1 2097  18.670  13.000  10.250 -0.0437  0.0829  0.0418
  132loPI    C2 2098  18.885  12.804  10.525 -0.1113 -0.0841 -0.0233
  132loPI    C3 2099  18.793  13.189  10.581  0.0350 -0.0657  0.0988
  132loPI   PO4 2100  18.815  13.002   9.970  0.1152 -0.0650  0.1108
  132loPI   GL1 2101  18.982  12.832   9.575  0.2860  0.2347  0.1861
  132loPI   GL2 2102  19.212  12.794   9.315  0.1007 -0.0869 -0.2850
  132loPI   C1A 2103  18.681  12.887   9.258  0.2413 -0.0393  0.0846
  132loPI   C2A 2104  18.941  12.813   8.906 -0.1202 -0.0301  0.0947
  132loPI   C3A 2105  19.214  12.819   8.509  0.0404 -0.0889  0.1787
  132loPI   C4A 2106  19.226  12.751   8.109  0.2144  0.2619  0.1748
  132loPI   C5A 2107  19.397  12.643   7.874  0.0497 -0.0137 -0.0353
  132loPI   C6A 2108  19.454  12.304   7.485  0.0355  0.1775 -0.3638
  132loPI   C1B 2109  19.334  12.587   9.039 -0.2845  0.5480  0.0790
  132loPI   C2B 2110  19.490  12.358   8.655 -0.2978  0.1281  0.2074
  132loPI   C3B 2111  19.548  12.330   8.358  0.0598  0.2760  0.0415
  132loPI   C4B 2112  19.380  12.176   7.998 -0.2320  0.0778 -0.1083
  133loPI    C1 2113   4.911   0.740   9.754 -0.3264 -0.0608  0.0090
  133loPI    C2 2114   4.747   0.868   9.412 -0.2318  0.0494  0.0043
  133loPI    C3 2115   4.719   1.091   9.743 -0.0563  0.0884 -0.0065
  133loPI   PO4 2116   4.975   0.469   9.578  0.2723  0.0649  0.0684
  133loPI   GL1 2117   5.067   0.475   9.237 -0.1659 -0.2897 -0.0050
  133loPI   GL2 2118   4.799   0.518   9.064  0.3215 -0.1374 -0.0720
  133loPI   C1A 2119   5.203   0.596   8.804  0.0709 -0.0500 -0.1708
  133loPI   C2A 2120   5.186   0.610   8.410  0.2249  0.2016  0.0979
  133loPI   C3A 2121   5.148   0.615   7.983  0.3816  0.1077  0.0308
  133loPI   C4A 2122   4.900   0.324   7.680  0.0678 -0.0321  0.3315
  133loPI   C5A 2123   4.814   0.076   7.409 -0.3126 -0.0194 -0.2875
  133loPI   C6A 2124   4.729  -0.388   7.443  0.1921  0.0746  0.2423
  133loPI   C1B 2125   4.700   0.614   8.644  0.2678  0.1573 -0.1065
  133loPI   C2B 2126   4.708   0.714   8.310  0.0266 -0.0793 -0.1100
  133loPI   C3B 2127   4.629   0.704   8.021 -0.0189 -0.1181  0.0319
  133loPI   C4B 2128   4.438   0.508   7.546  0.2745  0.1797  0.0717
  134loPI    C1 2129  10.764  10.602  10.513  0.1325 -0.1577  0.2136
  134loPI    C2 2130  11.135  10.749  10.526 -0.0221  0.2506  0.1616
  134loPI    C3 2131  10.990  10.544  10.838  0.2665  0.0305  0.1553
  134loPI   PO4 2132  10.598  10.735  10.386  0.2865  0.0452  0.1057
  134loPI   GL1 2133  10.562  10.610   9.958 -0.4554  0.0409 -0.0869
  134loPI   GL2 2134  10.376  10.421   9.825 -0.1699 -0.0990 -0.1635
  134loPI   C1A 2135  10.703  10.696   9.553 -0.1763 -0.0216 -0.3158
  134loPI   C2A 2136  10.688  10.692   9.159  0.0075  0.1152  0.0669
  134loPI   C3A 2137  10.783  10.580   8.766 -0.0781  0.0899 -0.1101
  134loPI   C4A 2138  11.060  10.514   8.408  0.1412 -0.1445 -0.1534
  134loPI   C5A 2139  11.348  10.190   8.209  0.1983 -0.0929 -0.0389
  134loPI   C6A 2140  11.542   9.997   7.804 -0.0207 -0.4222 -0.0404
  134loPI   C1B 2141  10.382  10.324   9.459 -0.0341  0.2028 -0.0930
  134loPI   C2B 2142  10.496  10.205   9.060  0.0180 -0.3393 -0.3369
  134loPI   C3B 2143  10.720  10.108   8.631  0.2181  0.0546 -0.3033
  134loPI   C4B 2144  10.771   9.968   8.231  0.1106  0.0276 -0.1324
  135loPI    C1 2145  17.463   5.509  10.134 -0.0773 -0.0527 -0.1537
  135loPI    C2 2146  17.844   5.427  10.043 -0.0378  0.2202 -0.2431
  135loPI    C3 2147  17.756   5.748  10.265 -0.1719 -0.1662  0.2829
  135loPI   PO4 2148  17.298   5.328  10.039  0.0602 -0.0896  0.2336
  135loPI   GL1 2149  17.236   5.398   9.675 -0.0071 -0.1210  0.1904
  135loPI   GL2 2150  17.079   5.776   9.829 -0.1899  0.0506  0.2465
  135loPI   C1A 2151  17.013   5.396   9.301 -0.1162 -0.0086 -0.0109
  135loPI   C2A 2152  17.037   5.520   8.836  0.3256  0.1456  0.2385
  135loPI   C3A 2153  16.820   5.700   8.447  0.0945 -0.1622 -0.0717
  135loPI   C4A 2154  16.723   5.751   8.017 -0.0140 -0.0888  0.2669
  135loPI   C5A 2155  16.805   5.464   7.567 -0.2181  0.0443 -0.2733
  135loPI   C6A 2156  16.554   5.474   7.177 -0.0068  0.3338 -0.0575
  135loPI   C1B 2157  16.897   5.922   9.499  0.0194 -0.0000 -0.1863
  135loPI   C2B 2158  16.904   6.003   9.105 -0.0120  0.0236 -0.0439
  135loPI   C3B 2159  16.962   6.171   8.691  0.0075  0.2297  0.1514
  135loPI   C4B 2160  16.897   6.244   8.260  0.0145  0.0184  0.0684
  136loPI    C1 2161   7.618   3.754   9.771  0.2486  0.0175  0.0624
  136loPI    C2 2162   7.509   4.088   9.962 -0.2262 -0.1380  0.0767
  136loPI    C3 2163   7.719   3.807  10.154  0.3500  0.2289  0.0080
  136loPI   PO4 2164   7.343   3.632   9.681  0.1417 -0.0400 -0.0499
  136loPI   GL1 2165   7.452   3.410   9.371  0.2050 -0.1619 -0.0250
  136loPI   GL2 2166   7.116   3.330   9.134  0.1281  0.0526  0.0162
  136loPI   C1A 2167   7.705   3.487   8.996  0.1042  0.0198 -0.0375
  136loPI   C2A 2168   7.737   3.516   8.540  0.2982 -0.0272 -0.1110
  136loPI   C3A 2169   7.772   3.477   8.116  0.0990 -0.4011 -0.0174
  136loPI   C4A 2170   7.961   3.404   7.681 -0.2199 -0.0443 -0.0334
  136loPI   C5A 2171   8.412   3.278   7.586 -0.0891  0.4998  0.1164
  136loPI   C6A 2172   8.595   3.100   7.213 -0.2697 -0.1792 -0.1774
  136loPI   C1B 2173   7.227   3.468   8.675 -0.2576  0.3382  0.1412
  136loPI   C2B 2174   7.215   3.511   8.166 -0.0533 -0.3872  0.2296
  136loPI   C3B 2175   7.016   3.578   7.837 -0.1207 -0.0079 -0.0507
  136loPI   C4B 2176   7.331   3.602   7.429  0.0739  0.0575 -0.1140
  137loPI    C1 2177  14.477   2.172  10.636 -0.2843 -0.1332 -0.1610
  137loPI    C2 2178  14.606   2.163  10.257 -0.0335 -0.1841 -0.0763
  137loPI    C3 2179  14.812   1.974  10.543 -0.1886 -0.0954  0.0962
  137loPI   PO4 2180  14.138   2.066  10.535 -0.2533 -0.2416  0.0005
  137loPI   GL1 2181  13.865   2.189  10.174 -0.1513  0.3353 -0.1840
  137loPI   GL2 2182  13.939   1.909  10.067 -0.0296 -0.0485 -0.2585
  137loPI   C1A 2183  14.106   2.400   9.816 -0.1721  0.1524  0.6197
  137loPI   C2A 2184  13.952   2.623   9.444  0.1050  0.0467  0.0305
  137loPI   C3A 2185  13.888   2.628   8.990 -0.0362 -0.2796 -0.1266
  137loPI   C4A 2186  13.859   2.595   8.473 -0.0777 -0.0387  0.0174
  137loPI   C5A 2187  13.682   2.284   8.150 -0.1562 -0.0046 -0.4324
  137loPI   C6A 2188  13.939   1.960   7.985  0.1771 -0.3149  0.1466
  137loPI   C1B 2189  13.898   1.911   9.677 -0.2276  0.1389  0.1480
  137loPI   C2B 2190  14.111   2.084   9.395 -0.1687  0.2845 -0.1326
  137loPI   C3B 2191  14.115   2.132   8.916 -0.1102 -0.3246 -0.2264
  137loPI   C4B 2192  14.058   2.147   8.436 -0.0472  0.2686 -0.2442
  138loPI    C1 2193  17.792  15.789  10.620 -0.0602  0.0192  0.0650
  138loPI    C2 2194  17.731  15.482  10.870 -0.0905 -0.0446 -0.0203
  138loPI    C3 2195  17.422  15.704  10.747 -0.0699  0.0149  0.0343
  138loPI   PO4 2196  17.931  15.701  10.427 -0.1188  0.4464  0.3306
  138loPI   GL1 2197  17.898  15.657   9.957  0.1599  0.1310 -0.0101
  138loPI   GL2 2198  17.891  15.404   9.715 -0.2393  0.3063 -0.0094
  138loPI   C1A 2199  17.514  15.702   9.692  0.2639  0.0533 -0.1244
  138loPI   C2A 2200  17.602  15.689   9.301  0.0092 -0.2530 -0.1914
  138loPI   C3A 2201  17.471  15.877   8.984 -0.2098 -0.1514  0.1779
  138loPI   C4A 2202  17.280  15.894   8.652 -0.0473  0.0619 -0.3500
  138loPI   C5A 2203  17.026  16.211   8.318 -0.2071  0.0172 -0.0076
  138loPI   C6A 2204  17.079  16.494   7.994 -0.0518 -0.2800 -0.0201
  138loPI   C1B 2205  18.067  15.000   9.556 -0.1101  0.0725 -0.0670
  138loPI   C2B 2206  17.997  14.831   9.192 -0.0522 -0.3753  0.3264
  138loPI   C3B 2207  17.669  14.832   8.948 -0.0157 -0.0049  0.1494
  138loPI   C4B 2208  17.523  14.915   8.516 -0.0047  0.2446 -0.2194
  139loPI    C1 2209   3.618  17.421   9.586  0.2338  0.1111  0.1785
  139loPI    C2 2210   3.638  17.091   9.361 -0.1198  0.1155  0.1358
  139loPI    C3 2211   3.528  17.066   9.745 -0.3061  0.1990  0.0893
  139loPI   PO4 2212   3.572  17.591   9.429 -0.1255  0.1815  0.2492
  139loPI   GL1 2213   3.682  17.860   9.058 -0.0813 -0.3291 -0.0205
  139loPI   GL2 2214   3.591  17.658   8.920  0.1182  0.1471  0.2918
  139loPI   C1A 2215   3.941  17.956   8.631  0.0142  0.1467 -0.0062
  139loPI   C2A 2216   3.963  17.837   8.154 -0.0081  0.0133  0.3345
  139loPI   C3A 2217   3.959  17.970   7.710  0.0014 -0.3601 -0.3181
  139loPI   C4A 2218   3.836  17.939   7.327 -0.0319 -0.1141  0.1133
  139loPI   C5A 2219   3.592  17.985   7.047 -0.1942  0.0447  0.0654
  139loPI   C6A 2220   3.247  18.252   6.882 -0.2918 -0.0365  0.0314
  139loPI   C1B 2221   3.630  17.616   8.500 -0.1009 -0.0577 -0.1698
  139loPI   C2B 2222   3.554  17.482   8.105  0.1583 -0.0678  0.1440
  139loPI   C3B 2223   3.657  17.512   7.602  0.2894 -0.0421  0.0868
  139loPI   C4B 2224   3.711  17.465   7.088  0.0438  0.0768 -0.1161
  140loPI    C1 2225  12.136  10.815  10.840  0.1928  0.0023  0.1188
  140loPI    C2 2226  11.939  11.148  10.739  0.0581 -0.0384  0.2441
  140loPI    C3 2227  12.338  11.154  10.774  0.0862  0.0318 -0.0614
  140loPI   PO4 2228  12.112  10.612  10.564  0.0314  0.5078  0.1682
  140loPI   GL1 2229  12.295  10.867  10.228  0.2720  0.1839  0.0171
  140loPI   GL2 2230  11.951  10.900  10.232  0.0021 -0.1843  0.0453
  140loPI   C1A 2231  12.173  11.123   9.821  0.0554 -0.0119 -0.0640
  140loPI   C2A 2232  12.212  11.168   9.452 -0.1058  0.0200 -0.2015
  140loPI   C3A 2233  12.411  11.055   9.056  0.0558 -0.1000  0.0493
  140loPI   C4A 2234  12.445  10.801   8.704 -0.3802 -0.1466 -0.1846
  140loPI   C5A 2235  12.439  10.432   8.514 -0.1861 -0.1154  0.0795
  140loPI   C6A 2236  12.216  10.137   8.222 -0.2470 -0.1432  0.0604
  140loPI   C1B 2237  11.705  11.028   9.880 -0.1131  0.1810 -0.0836
  140loPI   C2B 2238  11.780  10.966   9.547 -0.0152 -0.0144  0.3085
  140loPI   C3B 2239  11.691  10.814   9.037  0.1230 -0.1806  0.2026
  140loPI   C4B 2240  11.427  10.627   8.716 -0.1796  0.0605  0.0939
  141loPI    C1 2241   5.460   1.584  10.023 -0.0630  0.1929  0.0614
  141loPI    C2 2242   5.408   1.979   9.994  0.1753  0.2106 -0.1552
  141loPI    C3 2243   5.681   1.831  10.246 -0.0952  0.1696  0.1196
  141loPI   PO4 2244   5.502   1.546   9.801  0.2734 -0.1622 -0.0333
  141loPI   GL1 2245   5.343   1.494   9.279  0.0804 -0.2120  0.0288
  141loPI   GL2 2246   5.582   1.396   9.309 -0.4340  0.3648 -0.0356
  141loPI   C1A 2247   5.298   1.481   8.797 -0.1757  0.0274 -0.0517
  141loPI   C2A 2248   5.167   1.586   8.479  0.0012  0.0833 -0.0364
  141loPI   C3A 2249   5.271   1.676   8.090  0.1577 -0.3574 -0.2813
  141loPI   C4A 2250   5.179   1.844   7.645 -0.2022 -0.2132  0.2303
  141loPI   C5A 2251   5.194   2.216   7.342 -0.1496  0.0837 -0.0874
  141loPI   C6A 2252   4.929   2.334   7.064 -0.2044 -0.3152 -0.0065
  141loPI   C1B 2253   5.705   1.688   9.031 -0.1662  0.2507 -0.1515
  141loPI   C2B 2254   5.596   1.830   8.591  0.0489 -0.2426 -0.2930
  141loPI   C3B 2255   5.485   2.113   8.257 -0.2652  0.2807 -0.1739
  141loPI   C4B 2256   5.299   2.302   7.916 -0.2096 -0.1663  0.0148
  142loPI    C1 2257  17.521  11.767  10.286 -0.0041  0.1473  0.0003
  142loPI    C2 2258  17.877  11.732  10.464  0.1539 -0.0974 -0.3523
  142loPI    C3 2259  17.600  11.448  10.513 -0.0024  0.0981 -0.0693
  142loPI   PO4 2260  17.514  11.772  10.077 -0.0547  0.0415 -0.1354
  142loPI   GL1 2261  17.311  11.824   9.729 -0.1174  0.1456  0.2434
  142loPI   GL2 2262  17.654  11.661   9.616 -0.0091  0.3986  0.1513
  142loPI   C1A 2263  17.022  12.091   9.630  0.2878 -0.1377 -0.1612
  142loPI   C2A 2264  17.035  12.112   9.219 -0.0391  0.0361  0.0314
  142loPI   C3A 2265  17.021  12.205   8.848 -0.0064  0.0179 -0.0903
  142loPI   C4A 2266  17.126  12.026   8.462 -0.2138  0.1686  0.0609
  142loPI   C5A 2267  16.998  12.106   8.010  0.2736  0.1036  0.0497
  142loPI   C6A 2268  16.571  11.896   7.745 -0.0091 -0.4127 -0.1244
  142loPI   C1B 2269  17.446  11.809   9.245 -0.0268  0.3509  0.1477
  142loPI   C2B 2270  17.430  11.769   8.832  0.1272  0.2652 -0.2742
  142loPI   C3B 2271  17.601  11.797   8.442 -0.1792  0.2349 -0.0686
  142loPI   C4B 2272  17.531  11.754   8.103 -0.2018 -0.5375 -0.0262
  143loPI    C1 2273   6.419   7.500   9.831  0.1174 -0.1837 -0.3499
  143loPI    C2 2274   6.472   7.468   9.435 -0.2430  0.0059 -0.4177
  143loPI    C3 2275   6.102   7.476   9.588 -0.1072 -0.0246 -0.0785
  143loPI   PO4 2276   6.605   7.671   9.863  0.0074  0.4145 -0.3849
  143loPI   GL1 2277   6.496   8.010   9.557 -0.1171 -0.2318 -0.0502
  143loPI   GL2 2278   6.433   8.273   9.403 -0.0240  0.1615 -0.2682
  143loPI   C1A 2279   6.673   7.838   9.196 -0.1617  0.2862  0.1625
  143loPI   C2A 2280   6.756   7.641   8.794  0.0511 -0.2847  0.0478
  143loPI   C3A 2281   6.856   7.558   8.332 -0.0649  0.0493 -0.1687
  143loPI   C4A 2282   7.028   7.652   8.024 -0.1053  0.0296 -0.0497
  143loPI   C5A 2283   7.312   7.823   7.650  0.2959 -0.2094 -0.1316
  143loPI   C6A 2284   7.488   8.249   7.461 -0.2397 -0.2246  0.1312
  143loPI   C1B 2285   6.663   8.195   8.901  0.3867  0.2472  0.2667
  143loPI   C2B 2286   6.773   8.069   8.419  0.1753  0.1957  0.0665
  143loPI   C3B 2287   7.026   8.227   8.055  0.1103 -0.1119  0.0228
  143loPI   C4B 2288   7.004   8.295   7.589  0.2010 -0.1140 -0.1434
  144loPI    C1 2289  10.063   7.492  10.107 -0.1649  0.2140 -0.2127
  144loPI    C2 2290  10.414   7.502  10.297 -0.0289  0.1456 -0.4561
  144loPI    C3 2291  10.078   7.588  10.495  0.0727 -0.2371 -0.1021
  144loPI   PO4 2292  10.191   7.571   9.832  0.0941  0.4411 -0.0586
  144loPI   GL1 2293  10.163   7.614   9.452  0.1498 -0.2534  0.0190
  144loPI   GL2 2294  10.066   7.284   9.371  0.0723  0.0208 -0.0776
  144loPI   C1A 2295  10.292   7.714   8.977  0.0642  0.0044 -0.1428
  144loPI   C2A 2296  10.502   7.784   8.659  0.1312 -0.4346  0.1388
  144loPI   C3A 2297  10.492   7.838   8.137 -0.0259  0.0344 -0.0748
  144loPI   C4A 2298  10.281   8.156   7.838  0.0150 -0.2332 -0.1750
  144loPI   C5A 2299  10.309   8.608   7.711  0.2380  0.0866 -0.0688
  144loPI   C6A 2300  10.135   8.904   7.498  0.0183 -0.1438  0.2387
  144loPI   C1B 2301   9.912   7.423   9.005 -0.1453 -0.0549 -0.0085
  144loPI   C2B 2302  10.004   7.575   8.602 -0.1549 -0.1252  0.4872
  144loPI   C3B 2303  10.023   7.607   8.216 -0.2438 -0.0761 -0.0932
  144loPI   C4B 2304  10.067   7.529   7.749  0.3629 -0.1730 -0.0173
  145loPI    C1 2305   0.655  11.512  10.182 -0.1585 -0.0707  0.3119
  145loPI    C2 2306   1.014  11.337  10.192 -0.1112 -0.0179 -0.2082
  145loPI    C3 2307   0.687  11.127  10.285  0.0184 -0.1663 -0.0821
  145loPI   PO4 2308   0.674  11.613   9.953  0.2100 -0.0975  0.1841
  145loPI   GL1 2309   0.583  11.708   9.542  0.1061 -0.2749 -0.0178
  145loPI   GL2 2310   0.730  12.004   9.409 -0.0923  0.2252  0.2846
  145loPI   C1A 2311   0.310  11.492   9.325  0.0295 -0.1516  0.1260
  145loPI   C2A 2312   0.304  11.390   8.855  0.0114  0.3902  0.1115
  145loPI   C3A 2313   0.190  11.449   8.461  0.2108  0.4966  0.1726
  145loPI   C4A 2314   0.061  11.463   8.175  0.0351  0.2490  0.0323
  145loPI   C5A 2315   0.030  11.412   7.763  0.0668 -0.3388 -0.2107
  145loPI   C6A 2316  -0.146  11.514   7.382 -0.0886 -0.0802  0.1693
  145loPI   C1B 2317   0.560  12.015   8.973 -0.2021  0.1622 -0.1395
  145loPI   C2B 2318   0.464  11.931   8.542  0.1364 -0.0243 -0.0840
  145loPI   C3B 2319   0.509  11.645   8.084 -0.0481  0.0469  0.1819
  145loPI   C4B 2320   0.496  11.784   7.672  0.0177 -0.2203 -0.0781
  146loPI    C1 2321   3.139   6.005  10.003 -0.0140 -0.0991  0.0892
  146loPI    C2 2322   3.254   6.210   9.680 -0.1971 -0.1240  0.0074
  146loPI    C3 2323   3.206   6.399  10.029  0.1857 -0.1305  0.0671
  146loPI   PO4 2324   2.880   5.886   9.916 -0.3134 -0.2624  0.3513
  146loPI   GL1 2325   2.790   5.709   9.479 -0.2247 -0.1287  0.1916
  146loPI   GL2 2326   2.865   6.067   9.438  0.1709 -0.6029  0.0089
  146loPI   C1A 2327   2.504   5.772   9.104 -0.1275 -0.1737 -0.0124
  146loPI   C2A 2328   2.089   5.752   8.817 -0.1679  0.1411  0.0790
  146loPI   C3A 2329   1.927   5.639   8.473  0.0505 -0.0061 -0.0667
  146loPI   C4A 2330   1.947   5.889   8.101 -0.2379  0.4423  0.0687
  146loPI   C5A 2331   2.328   6.000   7.848 -0.4959 -0.1222  0.4232
  146loPI   C6A 2332   2.582   6.154   7.617  0.0739  0.0669 -0.1268
  146loPI   C1B 2333   3.015   5.854   9.046  0.2331 -0.2207 -0.0738
  146loPI   C2B 2334   3.005   6.082   8.711  0.1349  0.1305  0.0333
  146loPI   C3B 2335   3.191   6.405   8.599 -0.2889  0.1385 -0.1152
  146loPI   C4B 2336   3.514   6.521   8.346 -0.2800 -0.0101  0.0279
  147loPI    C1 2337  15.063   4.188  10.405  0.0223  0.1091  0.0715
  147loPI    C2 2338  15.411   3.990  10.404  0.0283  0.1196  0.0944
  147loPI    C3 2339  15.307   4.210  10.722 -0.0589  0.0118  0.1414
  147loPI   PO4 2340  15.142   4.306  10.134  0.0428 -0.1045 -0.0645
  147loPI   GL1 2341  15.153   4.655   9.807 -0.0864 -0.4028  0.1526
  147loPI   GL2 2342  15.466   4.713   9.872 -0.1595  0.0522 -0.4675
  147loPI   C1A 2343  14.935   4.698   9.468  0.3374 -0.1679 -0.0813
  147loPI   C2A 2344  14.867   4.891   9.072  0.0361 -0.0022  0.1920
  147loPI   C3A 2345  14.910   4.767   8.634 -0.3925 -0.0323  0.4338
  147loPI   C4A 2346  14.847   4.785   8.252  0.2616  0.2357  0.0222
  147loPI   C5A 2347  14.821   4.847   7.805  0.0005  0.2814 -0.2541
  147loPI   C6A 2348  14.622   4.527   7.559  0.3158 -0.2805  0.1426
  147loPI   C1B 2349  15.402   4.678   9.405 -0.0276 -0.0018  0.0265
  147loPI   C2B 2350  15.369   4.760   8.949  0.1277 -0.0531 -0.2122
  147loPI   C3B 2351  15.331   4.595   8.458  0.1845 -0.2449 -0.1241
  147loPI   C4B 2352  15.289   4.631   8.017  0.2885 -0.2315 -0.1557
  148loPI    C1 2353   9.223  18.371  10.579 -0.5129  0.1059 -0.0655
  148loPI    C2 2354   9.162  18.644  10.865 -0.0000  0.1108  0.0489
  148loPI    C3 2355   8.972  18.292  10.880 -0.0474  0.1459  0.3456
  148loPI   PO4 2356   9.291  18.517  10.383 -0.1319 -0.0598  0.2665
  148loPI   GL1 2357   9.272  18.683   9.971 -0.3888  0.0837  0.0682
  148loPI   GL2 2358   9.346  18.381   9.908  0.0545  0.1713 -0.0001
  148loPI   C1A 2359   8.914  18.492   9.636  0.0090 -0.1163  0.1042
  148loPI   C2A 2360   8.910  18.590   9.161 -0.2621 -0.2614 -0.0303
  148loPI   C3A 2361   8.935  18.510   8.620 -0.0942  0.1782 -0.1879
  148loPI   C4A 2362   8.959  18.716   8.253 -0.0985 -0.1957 -0.2336
  148loPI   C5A 2363   9.284  18.645   7.953 -0.3280  0.2467 -0.4268
  148loPI   C6A 2364   9.688  18.663   8.031  0.1788 -0.3098 -0.2228
  148loPI   C1B 2365   9.608  18.173   9.572  0.0280  0.2212  0.1436
  148loPI   C2B 2366   9.858  18.065   9.223 -0.2924  0.2474  0.0644
  148loPI   C3B 2367   9.749  18.353   8.824  0.2449  0.0495  0.0608
  148loPI   C4B 2368   9.809  18.663   8.494 -0.1104 -0.1987  0.1371
  149loPI    C1 2369  18.291  13.469   9.801 -0.0081 -0.0630  0.0773
  149loPI    C2 2370  18.131  13.326  10.139  0.2535 -0.4118  0.0600
  149loPI    C3 2371  18.519  13.420  10.126  0.1547  0.0091 -0.0252
  149loPI   PO4 2372  18.132  13.617   9.719 -0.1060  0.1005  0.0324
  149loPI   GL1 2373  17.846  14.091   9.623  0.3034 -0.1729 -0.1004
  149loPI   GL2 2374  17.639  13.805   9.516  0.0336 -0.0326  0.0593
  149loPI   C1A 2375  17.709  14.458   9.360  0.0423 -0.0743  0.0405
  149loPI   C2A 2376  17.883  14.423   8.906  0.1021  0.2536  0.0826
  149loPI   C3A 2377  17.962  14.663   8.476  0.4323  0.0995 -0.2161
  149loPI   C4A 2378  18.253  14.843   8.250 -0.0285  0.3122 -0.2676
  149loPI   C5A 2379  18.448  15.151   7.956 -0.0766 -0.0683  0.0570
  149loPI   C6A 2380  18.597  15.011   7.562  0.2432  0.3835 -0.2649
  149loPI   C1B 2381  17.761  13.928   9.173 -0.2148  0.2113 -0.1106
  149loPI   C2B 2382  17.718  13.898   8.730  0.2337  0.1342 -0.0459
  149loPI   C3B 2383  17.695  13.880   8.156  0.3004  0.0844  0.1456
  149loPI   C4B 2384  17.932  14.102   7.857  0.1974  0.0015 -0.0478
  150loPI    C1 2385  17.963  14.071  10.204  0.1230  0.0804 -0.0469
  150loPI    C2 2386  18.240  13.802  10.308 -0.0856 -0.1294 -0.0241
  150loPI    C3 2387  18.014  13.974  10.589 -0.0172 -0.0004 -0.0476
  150loPI   PO4 2388  18.132  14.351  10.058  0.0165 -0.0355 -0.0787
  150loPI   GL1 2389  18.297  14.144   9.734 -0.3496  0.1812  0.2112
  150loPI   GL2 2390  18.405  13.910   9.459 -0.0553 -0.1222 -0.0797
  150loPI   C1A 2391  18.249  14.444   9.373  0.2226  0.1288 -0.1779
  150loPI   C2A 2392  18.355  14.561   8.871 -0.1544  0.0378 -0.3542
  150loPI   C3A 2393  18.592  14.570   8.516 -0.1572  0.0088  0.0989
  150loPI   C4A 2394  18.778  14.795   8.253 -0.2367  0.1502 -0.1556
  150loPI   C5A 2395  18.897  14.993   7.956  0.0156 -0.0833 -0.1620
  150loPI   C6A 2396  19.238  14.961   7.768  0.0811 -0.0427 -0.2773
  150loPI   C1B 2397  18.247  14.101   9.027 -0.0009 -0.0314  0.2710
  150loPI   C2B 2398  18.163  14.146   8.613 -0.1534  0.1767 -0.1328
  150loPI   C3B 2399  18.361  14.206   8.187  0.4331 -0.2819 -0.1648
  150loPI   C4B 2400  18.566  14.518   7.815 -0.0719  0.0009 -0.2761
  151loPI    C1 2401   2.529   7.220   9.537  0.0968  0.2067 -0.0884
  151loPI    C2 2402   2.319   6.922   9.374  0.0888  0.2438 -0.1463
  151loPI    C3 2403   2.537   6.857   9.703  0.0390  0.1891 -0.1239
  151loPI   PO4 2404   2.713   7.342   9.322  0.0353 -0.0001 -0.3001
  151loPI   GL1 2405   2.715   7.408   8.943 -0.1552 -0.3127 -0.3664
  151loPI   GL2 2406   3.098   7.254   8.987  0.0317  0.2221 -0.3585
  151loPI   C1A 2407   2.535   7.191   8.624 -0.0743 -0.0373 -0.1732
  151loPI   C2A 2408   2.315   7.392   8.223  0.0765 -0.2120 -0.0915
  151loPI   C3A 2409   2.142   7.684   7.884 -0.1190  0.1292  0.1443
  151loPI   C4A 2410   2.111   8.029   7.567  0.0216 -0.0264  0.1438
  151loPI   C5A 2411   1.870   8.357   7.294  0.3375 -0.2210 -0.0664
  151loPI   C6A 2412   1.902   8.723   7.034  0.1155  0.2803  0.1376
  151loPI   C1B 2413   3.008   7.254   8.525  0.2310  0.1519 -0.0662
  151loPI   C2B 2414   2.765   7.136   8.093 -0.2122  0.0873 -0.0564
  151loPI   C3B 2415   2.852   7.026   7.629  0.1082  0.0924 -0.0365
  151loPI   C4B 2416   3.248   6.997   7.212 -0.1313 -0.0406  0.2160
  152loPI    C1 2417  16.486  13.566  10.493 -0.1484  0.1178 -0.1957
  152loPI    C2 2418  16.361  13.514  10.870  0.0020  0.1726 -0.1375
  152loPI    C3 2419  16.367  13.880  10.710  0.0505  0.1652 -0.1529
  152loPI   PO4 2420  16.751  13.482  10.377 -0.2220  0.3709  0.0594
  152loPI   GL1 2421  16.964  13.511   9.955 -0.0903  0.1063  0.3903
  152loPI   GL2 2422  17.215  13.651   9.784 -0.0033  0.2979 -0.0572
  152loPI   C1A 2423  16.743  13.463   9.548 -0.0492  0.0926  0.0560
  152loPI   C2A 2424  16.702  13.501   9.098  0.3202  0.1127 -0.0174
  152loPI   C3A 2425  16.790  13.595   8.645 -0.1735 -0.3003 -0.1966
  152loPI   C4A 2426  16.676  13.745   8.152 -0.0783  0.2040 -0.0518
  152loPI   C5A 2427  16.755  13.879   7.795 -0.1206 -0.0770  0.1509
  152loPI   C6A 2428  16.670  13.793   7.306  0.1494 -0.0090 -0.1758
  152loPI   C1B 2429  17.139  13.654   9.253 -0.0069 -0.1153  0.1260
  152loPI   C2B 2430  17.216  13.779   8.878 -0.1894  0.3711 -0.2347
  152loPI   C3B 2431  17.302  13.689   8.490 -0.1661  0.1584  0.2998
  152loPI   C4B 2432  17.183  13.741   8.044 -0.0695 -0.1825 -0.5288
  153loPI    C1 2433   4.286  14.492  10.066  0.1943  0.4867  0.1931
  153loPI    C2 2434   4.648  14.479  10.233  0.1837 -0.1081  0.1917
  153loPI    C3 2435   4.368  14.216  10.343 -0.0751 -0.0032 -0.1976
  153loPI   PO4 2436   4.181  14.528   9.892 -0.0102  0.1872 -0.1558
  153loPI   GL1 2437   4.152  14.317   9.555  0.1593  0.0255 -0.2318
  153loPI   GL2 2438   4.282  14.517   9.379 -0.1132  0.0098 -0.2691
  153loPI   C1A 2439   3.813  14.392   9.181 -0.2779 -0.0100  0.1990
  153loPI   C2A 2440   3.706  14.349   8.664  0.3839 -0.0478 -0.1155
  153loPI   C3A 2441   3.489  14.064   8.412  0.4635 -0.0775  0.0153
  153loPI   C4A 2442   3.253  14.051   8.025  0.1564  0.2789  0.0717
  153loPI   C5A 2443   3.267  13.914   7.567  0.0412 -0.0793  0.3916
  153loPI   C6A 2444   3.300  13.742   7.186 -0.0069  0.1175 -0.0200
  153loPI   C1B 2445   4.219  14.412   8.847  0.2347  0.1180 -0.0365
  153loPI   C2B 2446   4.271  14.276   8.469  0.0804  0.1034  0.0276
  153loPI   C3B 2447   3.890  14.293   8.205  0.0289 -0.3310 -0.1548
  153loPI   C4B 2448   3.751  14.286   7.830  0.1117  0.2855  0.0160
  154loPI    C1 2449  10.134   9.441  10.143  0.2119  0.1079  0.0143
  154loPI    C2 2450   9.910   9.140  10.283  0.1791  0.1391  0.0289
  154loPI    C3 2451  10.153   9.340  10.530 -0.2797  0.5486  0.1661
  154loPI   PO4 2452   9.879   9.578   9.900  0.1323  0.0922  0.0143
  154loPI   GL1 2453   9.927   9.950   9.615  0.1346  0.1713 -0.2195
  154loPI   GL2 2454   9.874  10.214   9.709 -0.0061  0.1026  0.1697
  154loPI   C1A 2455  10.034  10.027   9.192 -0.2979 -0.0989 -0.0123
  154loPI   C2A 2456  10.179   9.944   8.797  0.0784  0.1896 -0.0454
  154loPI   C3A 2457  10.228   9.975   8.333 -0.2335  0.0825 -0.2093
  154loPI   C4A 2458  10.413  10.044   7.903 -0.2069  0.0934  0.0403
  154loPI   C5A 2459  10.629   9.863   7.584 -0.3160 -0.0424 -0.2694
  154loPI   C6A 2460  10.774   9.737   7.141  0.2020  0.4937  0.1953
  154loPI   C1B 2461   9.848  10.525   9.379 -0.0121  0.2370 -0.1030
  154loPI   C2B 2462   9.738  10.462   8.990 -0.2072 -0.2787 -0.0950
  154loPI   C3B 2463   9.892  10.273   8.473 -0.0418 -0.4167  0.2617
  154loPI   C4B 2464  10.114  10.410   8.124 -0.1278 -0.1748  0.1309
  155loPI    C1 2465  15.609   3.518  10.497  0.0440 -0.1357 -0.0629
  155loPI    C2 2466  15.378   3.649  10.796  0.1424 -0.1710  0.0293
  155loPI    C3 2467  15.735   3.817  10.731  0.2220 -0.3186  0.0790
  155loPI   PO4 2468  15.376   3.466  10.348  0.1220  0.1453  0.0750
  155loPI   GL1 2469  15.499   3.444   9.924 -0.1317  0.3739 -0.1772
  155loPI   GL2 2470  15.810   3.477  10.063 -0.0760 -0.0766  0.0075
  155loPI   C1A 2471  15.560   3.397   9.520 -0.3679  0.2512  0.3755
  155loPI   C2A 2472  15.508   3.431   9.175 -0.0380 -0.0051 -0.0615
  155loPI   C3A 2473  15.499   3.342   8.769  0.0595  0.1419  0.2799
  155loPI   C4A 2474  15.304   3.297   8.365 -0.0708 -0.1312 -0.2016
  155loPI   C5A 2475  15.269   3.173   7.930 -0.3544 -0.2175 -0.0523
  155loPI   C6A 2476  15.390   3.282   7.495 -0.3203  0.2732  0.0377
  155loPI   C1B 2477  15.948   3.802   9.722  0.2617 -0.0988 -0.0036
  155loPI   C2B 2478  15.883   3.877   9.235 -0.2146  0.4835  0.3809
  155loPI   C3B 2479  15.721   3.803   8.857  0.0324 -0.1913 -0.0998
  155loPI   C4B 2480  15.706   3.743   8.507  0.0670 -0.2562 -0.1912
  156loPI    C1 2481  14.186  18.181  10.791  0.2204  0.0206 -0.2069
  156loPI    C2 2482  14.296  18.340  11.141  0.2816  0.1513 -0.2845
  156loPI    C3 2483  14.313  17.944  11.086 -0.2304  0.0750  0.0402
  156loPI   PO4 2484  14.245  18.362  10.599  0.1095  0.2183 -0.1128
  156loPI   GL1 2485  14.322  18.668  10.197 -0.0555 -0.2361 -0.0596
  156loPI   GL2 2486  14.252  18.949  10.111  0.1371  0.1231  0.0690
  156loPI   C1A 2487  14.163  18.388   9.855 -0.1940 -0.3806  0.1742
  156loPI   C2A 2488  14.156  18.480   9.417 -0.2172  0.0234 -0.0847
  156loPI   C3A 2489  14.206  18.592   9.008  0.1106 -0.2693 -0.1213
  156loPI   C4A 2490  14.450  18.441   8.606 -0.0753 -0.3027 -0.0071
  156loPI   C5A 2491  14.555  18.398   8.236  0.2184  0.1594  0.0168
  156loPI   C6A 2492  14.783  18.094   8.058  0.0625 -0.3418  0.1020
  156loPI   C1B 2493  14.226  19.033   9.714  0.0954  0.1327 -0.5145
  156loPI   C2B 2494  14.369  19.080   9.201  0.2091 -0.2246  0.1425
  156loPI   C3B 2495  14.447  19.014   8.807  0.0248 -0.1077  0.1871
  156loPI   C4B 2496  14.461  18.935   8.392  0.2150 -0.1592  0.1650
  157loPI    C1 2497   1.539   1.607   9.563  0.1102 -0.2472  0.1042
  157loPI    C2 2498   1.504   1.710   9.948 -0.1127 -0.0032  0.0215
  157loPI    C3 2499   1.838   1.532   9.818  0.0437  0.0910  0.2872
  157loPI   PO4 2500   1.252   1.578   9.528 -0.0556  0.0007  0.2577
  157loPI   GL1 2501   1.120   1.342   9.308 -0.0006 -0.3529  0.4202
  157loPI   GL2 2502   1.195   0.981   9.323  0.0867  0.1226 -0.0987
  157loPI   C1A 2503   1.386   1.433   8.938 -0.2524  0.2228  0.1505
  157loPI   C2A 2504   1.396   1.337   8.456  0.0998  0.1913 -0.0163
  157loPI   C3A 2505   1.535   1.147   7.968  0.0439  0.0517  0.3122
  157loPI   C4A 2506   1.828   0.771   7.910  0.5971  0.0579  0.1879
  157loPI   C5A 2507   1.976   0.633   7.591  0.1760  0.0350 -0.0293
  157loPI   C6A 2508   1.799   0.491   7.224  0.0902  0.1014  0.1069
  157loPI   C1B 2509   1.142   1.039   8.886  0.0094 -0.1519 -0.1308
  157loPI   C2B 2510   1.188   0.922   8.488  0.1666 -0.1656  0.2040
  157loPI   C3B 2511   1.130   0.785   8.062 -0.0962  0.0848 -0.1277
  157loPI   C4B 2512   1.250   0.873   7.671 -0.4805  0.0775  0.5217
  158loPI    C1 2513   3.022   9.827   9.995  0.0165  0.0257 -0.0598
  158loPI    C2 2514   2.839   9.520  10.175 -0.0012 -0.0273 -0.1676
  158loPI    C3 2515   3.031   9.795  10.394 -0.0000 -0.1056 -0.0696
  158loPI   PO4 2516   2.991   9.816   9.753 -0.2116 -0.0094 -0.0857
  158loPI   GL1 2517   2.773   9.917   9.368 -0.1643 -0.1141 -0.1953
  158loPI   GL2 2518   2.469   9.774   9.235 -0.0251 -0.0059 -0.0317
  158loPI   C1A 2519   3.024   9.684   9.086 -0.0649 -0.0975 -0.0206
  158loPI   C2A 2520   3.199   9.353   8.934 -0.0297  0.1143  0.0598
  158loPI   C3A 2521   3.257   9.176   8.579  0.0263  0.0253 -0.1563
  158loPI   C4A 2522   3.336   9.396   8.186  0.1085 -0.2882  0.1547
  158loPI   C5A 2523   3.350   9.514   7.745 -0.1262 -0.3009  0.0610
  158loPI   C6A 2524   3.286   9.247   7.412  0.1563  0.4374 -0.1649
  158loPI   C1B 2525   2.557   9.827   8.765 -0.2335  0.0103  0.0832
  158loPI   C2B 2526   2.568   9.727   8.430  0.1730 -0.1992 -0.4611
  158loPI   C3B 2527   2.693   9.556   8.123 -0.2836  0.2799  0.1897
  158loPI   C4B 2528   2.839   9.437   7.798 -0.0229  0.0498  0.1072
  159loPI    C1 2529  11.469   9.530  10.409  0.2142 -0.1898  0.0436
  159loPI    C2 2530  11.343   9.369  10.752  0.0974 -0.1437  0.0229
  159loPI    C3 2531  11.585   9.688  10.758 -0.0687 -0.0167  0.0627
  159loPI   PO4 2532  11.563   9.283  10.261  0.0514 -0.2443  0.1539
  159loPI   GL1 2533  11.759   9.207   9.901 -0.0796 -0.0737  0.1798
  159loPI   GL2 2534  11.972   9.438  10.003  0.2384 -0.0204 -0.2408
  159loPI   C1A 2535  12.002   9.192   9.428 -0.0491  0.1244 -0.4100
  159loPI   C2A 2536  12.023   9.378   8.990  0.4067 -0.0611  0.0127
  159loPI   C3A 2537  11.977   9.258   8.466  0.1159  0.1373  0.1271
  159loPI   C4A 2538  11.877   8.978   8.166 -0.0799  0.0246 -0.0296
  159loPI   C5A 2539  11.978   8.915   7.778 -0.1312 -0.0113 -0.0805
  159loPI   C6A 2540  12.062   9.094   7.410 -0.0652  0.0293  0.1817
  159loPI   C1B 2541  11.719   9.640   9.652 -0.2011  0.1257  0.0683
  159loPI   C2B 2542  11.907   9.805   9.250 -0.2793 -0.2099  0.2153
  159loPI   C3B 2543  12.312  10.067   9.281  0.1140 -0.2716  0.2661
  159loPI   C4B 2544  12.568  10.361   9.043 -0.0646  0.1140  0.2157
  160loPI    C1 2545   1.236   7.180  10.064 -0.0110  0.1120 -0.0429
  160loPI    C2 2546   1.437   7.495  10.208 -0.0385  0.0752  0.0766
  160loPI    C3 2547   1.385   7.169  10.435 -0.2540  0.0939  0.0560
  160loPI   PO4 2548   1.266   7.239   9.769 -0.0218  0.0549 -0.2541
  160loPI   GL1 2549   1.238   7.446   9.408  0.0200 -0.0639  0.1019
  160loPI   GL2 2550   0.892   7.422   9.481  0.2609 -0.0384  0.1526
  160loPI   C1A 2551   1.156   7.547   8.996 -0.2699  0.0879 -0.2533
  160loPI   C2A 2552   1.174   7.586   8.636 -0.0256 -0.3070  0.1403
  160loPI   C3A 2553   1.194   7.509   8.178  0.0795  0.0018 -0.1459
  160loPI   C4A 2554   0.911   7.284   7.780 -0.0121 -0.0406 -0.2013
  160loPI   C5A 2555   1.026   7.188   7.324 -0.1182 -0.1358 -0.0307
  160loPI   C6A 2556   0.880   7.238   6.928  0.0480  0.1621  0.1293
  160loPI   C1B 2557   0.670   7.498   9.078 -0.3435  0.2185 -0.4801
  160loPI   C2B 2558   0.623   7.473   8.648 -0.2456  0.1107 -0.4039
  160loPI   C3B 2559   0.715   7.475   8.210  0.4149 -0.0379 -0.2205
  160loPI   C4B 2560   0.707   7.767   7.813 -0.4219  0.0188 -0.0636
  161loPI    C1 2561   7.818   8.286  10.132  0.2115 -0.0727  0.1383
  161loPI    C2 2562   7.992   7.972  10.310 -0.1713 -0.3302  0.0705
  161loPI    C3 2563   7.717   8.186  10.506  0.0362 -0.0772  0.0906
  161loPI   PO4 2564   8.147   8.383  10.036  0.1893 -0.0343  0.1292
  161loPI   GL1 2565   8.507   8.373   9.741  0.1839  0.0906 -0.0210
  161loPI   GL2 2566   8.810   8.392   9.635  0.0600  0.2598  0.0891
  161loPI   C1A 2567   8.412   8.585   9.277 -0.2640  0.0644  0.2575
  161loPI   C2A 2568   8.678   8.754   8.988  0.0712  0.0961  0.1430
  161loPI   C3A 2569   8.779   8.894   8.643 -0.0400 -0.2777 -0.0078
  161loPI   C4A 2570   9.060   9.087   8.379 -0.1644  0.1174  0.1289
  161loPI   C5A 2571   9.034   9.228   7.946  0.0076 -0.1978 -0.3162
  161loPI   C6A 2572   8.874   9.656   7.816  0.0981 -0.1982  0.2370
  161loPI   C1B 2573   8.802   8.735   9.549  0.3732  0.3424  0.1172
  161loPI   C2B 2574   8.874   9.176   9.291 -0.1390  0.0023  0.0215
  161loPI   C3B 2575   8.876   9.342   8.866  0.0950 -0.1802 -0.1375
  161loPI   C4B 2576   8.809   9.558   8.433  0.0303  0.2008  0.1982
  162loPI    C1 2577  16.087  16.970  10.381  0.2006  0.2163  0.1576
  162loPI    C2 2578  16.138  16.991   9.985  0.0608 -0.0406  0.1241
  162loPI    C3 2579  16.002  17.309  10.185 -0.3387 -0.0589 -0.1071
  162loPI   PO4 2580  16.046  16.624  10.346  0.0541  0.3629 -0.0789
  162loPI   GL1 2581  15.821  16.328  10.173  0.0984 -0.3102 -0.1359
  162loPI   GL2 2582  15.964  16.097   9.979  0.2371  0.1506  0.2971
  162loPI   C1A 2583  15.826  16.458   9.683  0.1142  0.3218 -0.0476
  162loPI   C2A 2584  15.827  16.316   9.244 -0.1804 -0.1280  0.2402
  162loPI   C3A 2585  15.666  16.464   8.817 -0.2001  0.0535  0.0253
  162loPI   C4A 2586  15.542  16.444   8.372 -0.2735 -0.2331 -0.0628
  162loPI   C5A 2587  15.562  16.675   7.968  0.1440  0.3269 -0.1080
  162loPI   C6A 2588  15.864  16.642   7.702 -0.1671  0.2420  0.1975
  162loPI   C1B 2589  16.136  15.997   9.613  0.2432 -0.4214  0.1103
  162loPI   C2B 2590  16.040  15.799   9.207  0.0829  0.0206  0.0074
  162loPI   C3B 2591  15.933  15.993   8.831  0.2137  0.1188 -0.1049
  162loPI   C4B 2592  16.080  16.269   8.684  0.0601  0.0672  0.0470
  163loPI    C1 2593  15.359  16.774  10.624  0.0612  0.0914  0.1674
  163loPI    C2 2594  15.604  17.065  10.499  0.1140  0.0773  0.2376
  163loPI    C3 2595  15.669  16.887  10.851 -0.0991  0.1941  0.3379
  163loPI   PO4 2596  15.347  16.558  10.392 -0.1598  0.1408  0.2066
  163loPI   GL1 2597  15.144  16.347   9.997 -0.1295  0.0189  0.1242
  163loPI   GL2 2598  15.411  16.185   9.984  0.1962  0.0268 -0.1322
  163loPI   C1A 2599  15.336  16.482   9.610 -0.2401  0.1794 -0.1255
  163loPI   C2A 2600  15.346  16.394   9.201 -0.3077  0.1218 -0.0194
  163loPI   C3A 2601  15.204  16.400   8.756  0.1845  0.0583 -0.1090
  163loPI   C4A 2602  15.076  16.165   8.360 -0.1487  0.2133 -0.1999
  163loPI   C5A 2603  15.295  15.809   8.080 -0.1081 -0.1516 -0.2501
  163loPI   C6A 2604  15.575  15.627   7.787  0.2115 -0.0114  0.1210
  163loPI   C1B 2605  15.619  15.965   9.664  0.3003  0.0978 -0.1766
  163loPI   C2B 2606  15.549  15.855   9.249  0.2780  0.0953 -0.0359
  163loPI   C3B 2607  15.383  15.876   8.915 -0.0803  0.1603 -0.0678
  163loPI   C4B 2608  15.490  15.966   8.561 -0.2915  0.0068  0.0686
  164loPI    C1 2609   1.118  13.613  10.215  0.2257 -0.2053  0.0559
  164loPI    C2 2610   0.721  13.609  10.262  0.2100 -0.0618 -0.0561
  164loPI    C3 2611   0.958  13.481  10.557  0.0868  0.0359  0.0867
  164loPI   PO4 2612   1.142  13.769   9.985 -0.2090  0.1885 -0.1930
  164loPI   GL1 2613   1.143  13.680   9.512  0.1231  0.0356  0.0065
  164loPI   GL2 2614   1.203  14.023   9.295  0.0512  0.2347 -0.1076
  164loPI   C1A 2615   1.185  13.479   9.100  0.2915 -0.0067 -0.1495
  164loPI   C2A 2616   1.474  13.555   8.711 -0.1547  0.3406 -0.1172
  164loPI   C3A 2617   1.463  13.590   8.360 -0.2406 -0.2502  0.1858
  164loPI   C4A 2618   1.662  13.699   7.940 -0.0407  0.0738 -0.3906
  164loPI   C5A 2619   1.708  13.394   7.546 -0.0071 -0.3135  0.0538
  164loPI   C6A 2620   1.451  13.014   7.521  0.1921 -0.1624 -0.1631
  164loPI   C1B 2621   1.134  13.929   8.884 -0.2407  0.2195 -0.2108
  164loPI   C2B 2622   1.171  14.011   8.521 -0.0206 -0.0326  0.0899
  164loPI   C3B 2623   1.420  14.138   8.193  0.3291  0.1477 -0.0893
  164loPI   C4B 2624   1.696  14.252   7.930  0.1820 -0.0449 -0.2018
  165loPI    C1 2625  14.612   5.852  10.563 -0.0072 -0.0359  0.0561
  165loPI    C2 2626  14.615   6.141  10.840 -0.1917 -0.0763  0.1017
  165loPI    C3 2627  14.474   5.778  10.931 -0.0495 -0.1536  0.0171
  165loPI   PO4 2628  14.828   5.837  10.437  0.3404 -0.1351  0.2381
  165loPI   GL1 2629  14.907   5.843  10.084 -0.1539  0.0964 -0.2122
  165loPI   GL2 2630  14.739   6.038   9.986  0.2640  0.2664  0.0417
  165loPI   C1A 2631  15.284   5.804   9.825 -0.2912  0.2129 -0.2809
  165loPI   C2A 2632  15.579   5.634   9.532 -0.2626  0.0291  0.1334
  165loPI   C3A 2633  15.572   5.613   9.041  0.2215 -0.2377  0.2009
  165loPI   C4A 2634  15.450   5.614   8.581  0.0003 -0.0960  0.2351
  165loPI   C5A 2635  15.413   5.654   8.118  0.0899  0.1040  0.1946
  165loPI   C6A 2636  15.339   5.710   7.711 -0.0390  0.1000 -0.4133
  165loPI   C1B 2637  14.861   6.151   9.592 -0.4862  0.2477 -0.0357
  165loPI   C2B 2638  14.881   6.257   9.167  0.1911 -0.2521 -0.2950
  165loPI   C3B 2639  14.883   6.228   8.794 -0.0024  0.1865 -0.3594
  165loPI   C4B 2640  14.780   6.112   8.333  0.0714  0.0047 -0.0087
  166loPI    C1 2641   4.392  11.259   9.494  0.1013 -0.1574 -0.0066
  166loPI    C2 2642   4.465  11.287   9.886 -0.0288  0.0547  0.0040
  166loPI    C3 2643   4.755  11.171   9.637  0.1274  0.1627  0.1334
  166loPI   PO4 2644   4.095  11.074   9.523 -0.1552 -0.2315  0.1108
  166loPI   GL1 2645   3.976  10.919   9.095 -0.2113 -0.0727  0.1842
  166loPI   GL2 2646   4.204  10.639   8.915  0.0473 -0.0039  0.0563
  166loPI   C1A 2647   4.112  11.123   8.722  0.0062  0.0677  0.1053
  166loPI   C2A 2648   4.241  11.149   8.230  0.5026  0.2124 -0.0056
  166loPI   C3A 2649   4.393  11.135   7.843  0.1816  0.0598 -0.0793
  166loPI   C4A 2650   4.631  11.393   7.548  0.0876  0.1223  0.2505
  166loPI   C5A 2651   5.053  11.503   7.631 -0.0854  0.2156  0.4634
  166loPI   C6A 2652   5.490  11.658   7.683 -0.0698 -0.4223  0.0201
  166loPI   C1B 2653   4.232  10.711   8.457  0.0107 -0.3807 -0.1762
  166loPI   C2B 2654   4.349  10.676   8.064 -0.2797  0.0151 -0.0704
  166loPI   C3B 2655   4.281  10.630   7.689  0.0593 -0.1014 -0.3961
  166loPI   C4B 2656   4.521  10.381   7.436  0.0918 -0.0200  0.0152
  167loPI    C1 2657  18.676  14.231  10.305  0.0363 -0.1247 -0.1095
  167loPI    C2 2658  18.732  14.546  10.545 -0.1616 -0.1414 -0.0396
  167loPI    C3 2659  18.956  14.218  10.591 -0.1974 -0.1442  0.1225
  167loPI   PO4 2660  18.685  14.320  10.020  0.1175 -0.0797 -0.1746
  167loPI   GL1 2661  18.913  14.242   9.717  0.0401  0.0477 -0.2177
  167loPI   GL2 2662  19.096  13.878   9.641  0.1791 -0.0720  0.0933
  167loPI   C1A 2663  18.737  14.252   9.258  0.3089  0.1915  0.0667
  167loPI   C2A 2664  18.732  14.161   8.815 -0.3765 -0.2277 -0.1872
  167loPI   C3A 2665  18.612  13.920   8.486  0.0484  0.0594  0.0987
  167loPI   C4A 2666  18.711  13.686   8.135 -0.0971  0.1174  0.2389
  167loPI   C5A 2667  18.837  13.559   7.687  0.1800  0.2216  0.0551
  167loPI   C6A 2668  19.020  13.404   7.255  0.2038 -0.0283 -0.0460
  167loPI   C1B 2669  18.971  13.804   9.203  0.2076 -0.0162 -0.1492
  167loPI   C2B 2670  18.962  13.749   8.778 -0.0677 -0.0549 -0.0065
  167loPI   C3B 2671  19.201  13.384   8.625 -0.3535  0.0259  0.1287
  167loPI   C4B 2672  19.440  13.252   8.282 -0.0125  0.1213 -0.2171
  168loPI    C1 2673  13.471  12.642  10.763 -0.1588  0.2916 -0.2226
  168loPI    C2 2674  13.581  12.800  11.114 -0.2421 -0.0605 -0.0336
  168loPI    C3 2675  13.226  12.894  10.955 -0.1364  0.2257 -0.1067
  168loPI   PO4 2676  13.670  12.703  10.617 -0.2278 -0.1839  0.1893
  168loPI   GL1 2677  13.795  13.049  10.364  0.5144  0.1087 -0.2477
  168loPI   GL2 2678  13.670  13.026  10.160 -0.1005 -0.1371  0.2199
  168loPI   C1A 2679  14.033  13.283   9.989  0.0525 -0.1676  0.2510
  168loPI   C2A 2680  14.166  13.269   9.564  0.1024 -0.0106  0.0052
  168loPI   C3A 2681  14.053  13.391   9.162 -0.2382 -0.1337  0.1200
  168loPI   C4A 2682  14.046  13.347   8.750 -0.1359 -0.1872 -0.2529
  168loPI   C5A 2683  14.158  13.336   8.230  0.0599  0.1695 -0.1357
  168loPI   C6A 2684  14.169  13.383   7.882  0.0866 -0.2676  0.3472
  168loPI   C1B 2685  13.629  13.206   9.709  0.1625 -0.1992 -0.3525
  168loPI   C2B 2686  13.643  13.170   9.294  0.2159 -0.1858  0.0632
  168loPI   C3B 2687  13.555  13.118   8.983  0.0182 -0.1307  0.1113
  168loPI   C4B 2688  13.625  13.203   8.576 -0.0945 -0.1474 -0.1282
  169loPI    C1 2689   4.105  12.652   9.704 -0.0874 -0.0052 -0.1790
  169loPI    C2 2690   3.789  12.682   9.947 -0.0483  0.2193 -0.1532
  169loPI    C3 2691   3.972  12.329   9.899  0.0221  0.1965  0.2436
  169loPI   PO4 2692   4.328  12.777   9.825 -0.0134 -0.1308 -0.0976
  169loPI   GL1 2693   4.549  12.970   9.590 -0.3156  0.1175 -0.0745
  169loPI   GL2 2694   4.539  12.617   9.383  0.1314  0.3442  0.0189
  169loPI   C1A 2695   4.827  13.059   9.306  0.2123  0.0290 -0.0243
  169loPI   C2A 2696   5.121  13.029   8.988  0.2041  0.0750 -0.0293
  169loPI   C3A 2697   5.339  13.289   8.621 -0.0063  0.1119 -0.0351
  169loPI   C4A 2698   5.479  13.306   8.234 -0.0165 -0.5200 -0.1300
  169loPI   C5A 2699   5.513  13.220   7.703 -0.0899  0.0778  0.1096
  169loPI   C6A 2700   5.443  13.427   7.281 -0.0041  0.0991  0.1628
  169loPI   C1B 2701   4.770  12.582   8.975  0.0513  0.2399  0.0246
  169loPI   C2B 2702   4.767  12.947   8.688  0.3480  0.2736 -0.0885
  169loPI   C3B 2703   4.840  13.046   8.327  0.2026 -0.0616  0.1648
  169loPI   C4B 2704   5.154  12.966   8.039  0.1003 -0.0418 -0.1185
  170loPI    C1 2705  17.693  13.635  10.002  0.0115  0.1564 -0.0482
  170loPI    C2 2706  17.590  13.818  10.343  0.2279  0.1917 -0.0006
  170loPI    C3 2707  17.491  13.980   9.991 -0.0582  0.1191  0.0443
  170loPI   PO4 2708  17.675  13.440  10.036 -0.2533  0.2979 -0.1746
  170loPI   GL1 2709  17.449  13.119   9.785  0.2514 -0.0269  0.0521
  170loPI   GL2 2710  17.193  13.075   9.638 -0.1918  0.0174  0.1828
  170loPI   C1A 2711  17.548  13.374   9.354  0.0226  0.2620  0.3254
  170loPI   C2A 2712  17.573  13.448   8.941  0.0688  0.3193 -0.1883
  170loPI   C3A 2713  17.649  13.439   8.621  0.0094  0.0612  0.2303
  170loPI   C4A 2714  17.509  13.258   8.333  0.0032 -0.0990 -0.3078
  170loPI   C5A 2715  17.413  13.355   7.874  0.3815 -0.0340  0.0904
  170loPI   C6A 2716  17.167  13.041   7.681  0.0609  0.0379 -0.0016
  170loPI   C1B 2717  17.153  13.118   9.171 -0.1912  0.3880 -0.3038
  170loPI   C2B 2718  17.131  13.251   8.746  0.1101 -0.2522 -0.1462
  170loPI   C3B 2719  17.005  13.350   8.292  0.0623 -0.0790 -0.1423
  170loPI   C4B 2720  16.854  13.387   7.800  0.3174 -0.1986 -0.1684
  171loPI    C1 2721  12.395   6.186  10.438  0.0683  0.0456  0.0052
  171loPI    C2 2722  12.364   6.473  10.715 -0.0394  0.0122  0.0285
  171loPI    C3 2723  12.494   6.109  10.818 -0.2038 -0.0380  0.0620
  171loPI   PO4 2724  12.348   6.349  10.229 -0.3305  0.1479  0.0307
  171loPI   GL1 2725  12.495   6.401   9.822  0.2220  0.0085 -0.1861
  171loPI   GL2 2726  12.233   6.399   9.719 -0.1480  0.2183  0.0852
  171loPI   C1A 2727  12.685   6.709   9.532  0.2129  0.0436 -0.2219
  171loPI   C2A 2728  12.729   6.775   9.095 -0.1578 -0.2452  0.1911
  171loPI   C3A 2729  12.583   6.784   8.668 -0.1729 -0.0333 -0.0244
  171loPI   C4A 2730  12.517   6.669   8.218 -0.0624 -0.0880  0.2308
  171loPI   C5A 2731  12.379   6.627   7.887  0.0406  0.3757  0.0723
  171loPI   C6A 2732  12.129   6.307   7.710  0.0521  0.1343 -0.0992
  171loPI   C1B 2733  12.410   6.212   9.339 -0.0048  0.2981 -0.1365
  171loPI   C2B 2734  12.586   6.324   8.874  0.3954  0.0220 -0.0797
  171loPI   C3B 2735  12.914   6.431   8.561 -0.2177  0.1970  0.2482
  171loPI   C4B 2736  13.170   6.792   8.400  0.0402  0.1799 -0.1807
  172loPI    C1 2737  13.204  13.126  10.526  0.6087  0.3019 -0.3262
  172loPI    C2 2738  12.928  13.073  10.242  0.1107  0.3352  0.1353
  172loPI    C3 2739  13.194  12.784  10.319 -0.0023  0.1665 -0.0938
  172loPI   PO4 2740  13.298  13.316  10.479  0.2900  0.0304 -0.0404
  172loPI   GL1 2741  13.313  13.448  10.106 -0.0569 -0.0309  0.0026
  172loPI   GL2 2742  13.062  13.625   9.971  0.1537  0.0247 -0.1090
  172loPI   C1A 2743  13.180  13.089   9.848 -0.1731 -0.1136  0.0936
  172loPI   C2A 2744  13.089  13.025   9.403  0.3117  0.0474  0.1194
  172loPI   C3A 2745  13.100  13.019   9.006  0.0419  0.1460 -0.2455
  172loPI   C4A 2746  13.078  13.004   8.560 -0.0479  0.2331  0.0291
  172loPI   C5A 2747  13.405  12.979   8.176  0.0634 -0.0835  0.1798
  172loPI   C6A 2748  13.837  12.846   8.188 -0.3435 -0.1542 -0.1135
  172loPI   C1B 2749  13.126  13.557   9.532 -0.1713  0.2442  0.0817
  172loPI   C2B 2750  13.217  13.473   9.113  0.0606 -0.0359  0.2114
  172loPI   C3B 2751  13.223  13.453   8.654  0.2189  0.1305  0.1403
  172loPI   C4B 2752  13.237  13.431   8.276 -0.3542  0.0372 -0.1171
  173loPI    C1 2753   7.745  14.417  10.463 -0.0701  0.1364  0.0548
  173loPI    C2 2754   7.787  14.803  10.558  0.0415  0.0700  0.2827
  173loPI    C3 2755   7.802  14.524  10.844  0.0320 -0.1092  0.1105
  173loPI   PO4 2756   7.932  14.498  10.179  0.1061 -0.0404  0.0110
  173loPI   GL1 2757   8.129  14.383   9.821  0.2261  0.1865  0.3645
  173loPI   GL2 2758   7.940  14.090   9.756  0.0243  0.0119 -0.0449
  173loPI   C1A 2759   8.181  14.478   9.418  0.2114  0.2537  0.2463
  173loPI   C2A 2760   8.081  14.420   8.948 -0.1202  0.0213 -0.2715
  173loPI   C3A 2761   8.108  14.429   8.520  0.1207 -0.1199  0.0324
  173loPI   C4A 2762   8.263  14.494   8.077 -0.0161 -0.0236 -0.0176
  173loPI   C5A 2763   8.071  14.480   7.684 -0.0866  0.1555  0.0562
  173loPI   C6A 2764   8.023  14.180   7.379  0.1365 -0.1206 -0.0334
  173loPI   C1B 2765   7.595  14.047   9.398  0.1377 -0.0563 -0.4375
  173loPI   C2B 2766   7.635  14.152   8.976  0.0339 -0.1020  0.3272
  173loPI   C3B 2767   7.719  14.172   8.679  0.0727 -0.0702 -0.0530
  173loPI   C4B 2768   7.763  14.183   8.189  0.3427  0.0095  0.0313
  174loPI    C1 2769   7.115   1.313   9.933  0.2615  0.0184  0.0909
  174loPI    C2 2770   7.020   1.559  10.234 -0.0555 -0.0877  0.0816
  174loPI    C3 2771   7.116   1.178  10.310 -0.1838 -0.1276  0.0465
  174loPI   PO4 2772   7.068   1.472   9.686  0.0508  0.0182  0.0188
  174loPI   GL1 2773   7.109   1.411   9.288 -0.1845  0.3580 -0.0509
  174loPI   GL2 2774   7.358   1.207   9.410  0.0029  0.2568  0.0093
  174loPI   C1A 2775   6.648   1.363   9.068  0.1434 -0.0470 -0.0023
  174loPI   C2A 2776   6.374   1.497   8.709  0.1901  0.0249  0.2361
  174loPI   C3A 2777   6.159   1.715   8.434 -0.0916 -0.1450  0.0951
  174loPI   C4A 2778   5.823   1.793   8.085  0.2978 -0.1335  0.4185
  174loPI   C5A 2779   5.771   2.132   7.772 -0.1172  0.3159 -0.2222
  174loPI   C6A 2780   5.677   2.424   7.378 -0.0893 -0.4684  0.1588
  174loPI   C1B 2781   7.410   1.145   8.969  0.0681  0.3630 -0.3550
  174loPI   C2B 2782   7.420   1.262   8.548  0.0958 -0.3210  0.4880
  174loPI   C3B 2783   7.644   1.213   8.074  0.1011  0.1768 -0.1722
  174loPI   C4B 2784   7.804   1.088   7.683  0.2237 -0.2360  0.3205
  175loPI    C1 2785   2.198   7.322   9.967  0.1363 -0.0932  0.0670
  175loPI    C2 2786   1.972   7.628  10.091  0.1450 -0.0995  0.0984
  175loPI    C3 2787   2.371   7.661  10.092  0.1412 -0.0368 -0.0904
  175loPI   PO4 2788   2.064   7.212   9.742  0.2154 -0.0968  0.3493
  175loPI   GL1 2789   1.985   7.368   9.323  0.1618 -0.0394 -0.0000
  175loPI   GL2 2790   2.249   7.496   9.145 -0.0259  0.0557  0.3574
  175loPI   C1A 2791   2.072   7.053   8.949  0.0069  0.1114  0.1235
  175loPI   C2A 2792   1.976   7.155   8.514 -0.2990 -0.1948  0.4069
  175loPI   C3A 2793   1.865   7.184   8.160 -0.2201 -0.1593  0.2574
  175loPI   C4A 2794   1.891   7.282   7.674 -0.1355 -0.1469  0.0188
  175loPI   C5A 2795   2.022   7.487   7.269  0.0674 -0.2414  0.3393
  175loPI   C6A 2796   2.202   7.854   6.949 -0.2265  0.1999 -0.6278
  175loPI   C1B 2797   2.269   7.672   8.766 -0.0425  0.2190  0.1663
  175loPI   C2B 2798   2.279   7.867   8.422  0.0743 -0.1370  0.3793
  175loPI   C3B 2799   2.356   8.202   8.155  0.3574 -0.3750 -0.0120
  175loPI   C4B 2800   2.449   8.279   7.800 -0.1229 -0.2391 -0.0497
  176loPI    C1 2801   0.216  13.505  10.250  0.0796  0.0308  0.0154
  176loPI    C2 2802  -0.047  13.739  10.440  0.0300 -0.0537  0.0508
  176loPI    C3 2803   0.329  13.714  10.572 -0.0135 -0.1392  0.1597
  176loPI   PO4 2804   0.227  13.569   9.995 -0.1545  0.0604 -0.0282
  176loPI   GL1 2805  -0.044  13.445   9.658 -0.0825 -0.2543  0.5619
  176loPI   GL2 2806   0.253  13.416   9.530 -0.0299  0.0368 -0.4136
  176loPI   C1A 2807  -0.219  13.365   9.269 -0.3072 -0.1407 -0.0186
  176loPI   C2A 2808  -0.344  13.637   9.011  0.0824  0.2508  0.1705
  176loPI   C3A 2809  -0.658  13.640   8.819  0.1742 -0.3741  0.1680
  176loPI   C4A 2810  -0.729  13.678   8.401 -0.1251 -0.0678 -0.0090
  176loPI   C5A 2811  -0.840  13.375   8.063  0.0270 -0.0468 -0.1633
  176loPI   C6A 2812  -0.681  13.020   7.750 -0.1544 -0.1761  0.2342
  176loPI   C1B 2813   0.274  13.281   9.166 -0.2630  0.0350 -0.0260
  176loPI   C2B 2814  -0.008  13.263   8.857 -0.3277  0.1068 -0.2528
  176loPI   C3B 2815  -0.255  13.311   8.434 -0.0543 -0.2500 -0.4601
  176loPI   C4B 2816  -0.335  13.287   7.996 -0.1131  0.0595 -0.1716
  177loPI    C1 2817   4.184   6.532   9.846  0.0483  0.0540  0.0937
  177loPI    C2 2818   4.274   6.144   9.815 -0.1112  0.0180  0.0730
  177loPI    C3 2819   4.207   6.305  10.174 -0.1454  0.0030  0.0734
  177loPI   PO4 2820   4.387   6.593   9.655  0.1161  0.2075 -0.1158
  177loPI   GL1 2821   4.457   6.738   9.147  0.2082  0.2613 -0.1078
  177loPI   GL2 2822   4.456   7.083   9.170  0.0861  0.0239 -0.0716
  177loPI   C1A 2823   4.314   6.457   8.828 -0.1918 -0.0590  0.1918
  177loPI   C2A 2824   4.301   6.598   8.397  0.0304  0.2801 -0.2255
  177loPI   C3A 2825   4.408   6.652   8.013  0.0449 -0.0138 -0.4019
  177loPI   C4A 2826   4.721   6.764   7.700 -0.1934  0.1919 -0.3751
  177loPI   C5A 2827   4.821   6.892   7.244 -0.3069  0.1137 -0.1615
  177loPI   C6A 2828   4.500   6.952   6.976  0.4773 -0.0742  0.2471
  177loPI   C1B 2829   4.471   6.946   8.682  0.2646  0.0068 -0.0802
  177loPI   C2B 2830   4.607   7.016   8.353 -0.3295  0.0268  0.3058
  177loPI   C3B 2831   4.841   7.162   8.018  0.2039 -0.0709 -0.1051
  177loPI   C4B 2832   4.680   7.285   7.562  0.0773  0.0511 -0.0341
  178loPI    C1 2833   0.072   3.978  10.191  0.2446  0.0070 -0.0757
  178loPI    C2 2834   0.228   3.820  10.524 -0.1741  0.0847  0.1634
  178loPI    C3 2835   0.356   4.175  10.392  0.3018 -0.1426 -0.0078
  178loPI   PO4 2836   0.085   3.834   9.952 -0.0764 -0.0155  0.2183
  178loPI   GL1 2837  -0.187   3.783   9.615 -0.0424  0.0473 -0.1219
  178loPI   GL2 2838  -0.448   3.650   9.765 -0.5636  0.0402 -0.0758
  178loPI   C1A 2839  -0.015   3.748   9.220  0.3570 -0.0825 -0.1281
  178loPI   C2A 2840  -0.147   3.811   8.880  0.2949 -0.0893  0.1121
  178loPI   C3A 2841  -0.137   3.858   8.413 -0.1141  0.2805 -0.0663
  178loPI   C4A 2842  -0.041   3.690   8.013 -0.1974 -0.0822 -0.0911
  178loPI   C5A 2843  -0.229   3.569   7.528 -0.1551  0.0228 -0.0602
  178loPI   C6A 2844  -0.384   3.344   7.285 -0.1147  0.0332 -0.2383
  178loPI   C1B 2845  -0.748   3.618   9.477  0.0254 -0.0004  0.1543
  178loPI   C2B 2846  -0.782   3.478   9.004  0.0162  0.0458  0.1011
  178loPI   C3B 2847  -0.908   3.525   8.568  0.0792 -0.3017 -0.1303
  178loPI   C4B 2848  -0.960   3.507   8.096  0.0786  0.1961  0.1963
  179loPI    C1 2849   3.850  10.144   9.762 -0.0007 -0.1035 -0.0225
  179loPI    C2 2850   3.968  10.337  10.092 -0.0743 -0.0860 -0.0063
  179loPI    C3 2851   4.235  10.238   9.812 -0.0040 -0.1435  0.0808
  179loPI   PO4 2852   3.647  10.263   9.643  0.3596 -0.1214 -0.1375
  179loPI   GL1 2853   3.636  10.167   9.158 -0.1022 -0.1244 -0.0123
  179loPI   GL2 2854   3.727  10.473   9.081  0.1962 -0.0146  0.1594
  179loPI   C1A 2855   3.444  10.109   8.794  0.0858  0.2451  0.0373
  179loPI   C2A 2856   3.386  10.299   8.368  0.0987 -0.1674 -0.1002
  179loPI   C3A 2857   3.436  10.458   8.003 -0.2516  0.1548 -0.2945
  179loPI   C4A 2858   3.589  10.607   7.628  0.1733 -0.2581  0.3109
  179loPI   C5A 2859   3.438  10.345   7.251  0.1360  0.1628 -0.0021
  179loPI   C6A 2860   3.473   9.934   7.056  0.0309  0.2274  0.0718
  179loPI   C1B 2861   3.845  10.425   8.624  0.0639  0.0559  0.2679
  179loPI   C2B 2862   3.866  10.266   8.192 -0.1085 -0.0971  0.0188
  179loPI   C3B 2863   3.940  10.274   7.751 -0.0777  0.1521  0.0117
  179loPI   C4B 2864   3.934  10.440   7.314  0.1458  0.1374  0.0934
  180loPI    C1 2865  11.935   0.726  10.444  0.0290 -0.0282  0.0523
  180loPI    C2 2866  11.643   0.464  10.523 -0.0053 -0.0385 -0.1058
  180loPI    C3 2867  11.736   0.746  10.790 -0.0946 -0.0954 -0.0140
  180loPI   PO4 2868  11.882   0.778  10.148  0.2498  0.0031 -0.1241
  180loPI   GL1 2869  11.774   0.673   9.766 -0.2574 -0.1589 -0.0732
  180loPI   GL2 2870  11.552   0.471   9.612  0.3980 -0.4310 -0.3289
  180loPI   C1A 2871  12.040   0.612   9.383 -0.0443 -0.1920 -0.2653
  180loPI   C2A 2872  12.231   0.398   9.048 -0.1130 -0.3548 -0.2271
  180loPI   C3A 2873  12.539   0.305   8.729 -0.4576  0.2272 -0.1752
  180loPI   C4A 2874  12.364   0.388   8.367  0.0114 -0.1057 -0.2417
  180loPI   C5A 2875  12.101   0.582   8.171 -0.0684  0.0261 -0.4829
  180loPI   C6A 2876  12.099   0.818   7.835  0.2213 -0.2310 -0.1873
  180loPI   C1B 2877  11.584   0.341   9.148  0.2204  0.0282 -0.0085
  180loPI   C2B 2878  11.696   0.263   8.788 -0.0408  0.0848  0.3815
  180loPI   C3B 2879  11.862   0.225   8.475 -0.2778 -0.1569 -0.0842
  180loPI   C4B 2880  11.902   0.129   8.094  0.1378  0.0903 -0.0659
  181loPI    C1 2881   4.853   5.122  10.102 -0.1537 -0.3183  0.2946
  181loPI    C2 2882   4.744   5.439  10.320  0.0337 -0.0805  0.0481
  181loPI    C3 2883   5.000   5.172  10.471  0.1525  0.0755  0.1265
  181loPI   PO4 2884   4.838   5.229   9.847  0.0986 -0.0528 -0.2310
  181loPI   GL1 2885   4.950   5.171   9.389  0.0874  0.1032  0.0919
  181loPI   GL2 2886   4.795   5.411   9.358  0.1117  0.1278  0.0942
  181loPI   C1A 2887   5.034   5.071   8.980  0.4196  0.1372 -0.0982
  181loPI   C2A 2888   4.703   5.182   8.578  0.0797  0.1856 -0.1051
  181loPI   C3A 2889   4.231   5.137   8.534  0.1863  0.0442  0.0010
  181loPI   C4A 2890   4.022   4.989   8.186  0.1111  0.0149  0.1129
  181loPI   C5A 2891   3.781   5.037   7.804  0.1068 -0.1610  0.3449
  181loPI   C6A 2892   3.834   5.095   7.364  0.1176  0.0310 -0.1561
  181loPI   C1B 2893   4.728   5.467   8.943 -0.0965 -0.0938 -0.0341
  181loPI   C2B 2894   4.473   5.588   8.673  0.0937 -0.0423  0.1665
  181loPI   C3B 2895   4.331   5.655   8.337  0.0146  0.4936 -0.1024
  181loPI   C4B 2896   4.277   5.393   7.889  0.0625 -0.0767 -0.0512
  182loPI    C1 2897  13.831  10.512  10.625 -0.0285  0.1347 -0.0196
  182loPI    C2 2898  13.952  10.784  10.893  0.2145  0.0231 -0.0137
  182loPI    C3 2899  13.984  10.394  10.976 -0.2099 -0.0101  0.0121
  182loPI   PO4 2900  13.994  10.713  10.395  0.1679  0.1046  0.0366
  182loPI   GL1 2901  14.054  10.934   9.990 -0.0546 -0.1673  0.1044
  182loPI   GL2 2902  14.379  10.822   9.961 -0.0213  0.0527  0.0642
  182loPI   C1A 2903  14.166  11.001   9.518  0.1048 -0.2967 -0.0412
  182loPI   C2A 2904  14.185  11.114   9.049  0.1468 -0.2634  0.0601
  182loPI   C3A 2905  14.168  10.971   8.589  0.2782  0.0813  0.0695
  182loPI   C4A 2906  14.102  10.733   8.219  0.0821 -0.0505  0.1198
  182loPI   C5A 2907  14.232  10.362   8.005 -0.1196 -0.0554 -0.1603
  182loPI   C6A 2908  14.624  10.258   7.846  0.0930 -0.1607 -0.2142
  182loPI   C1B 2909  14.234  10.516   9.783  0.0420 -0.0860  0.0776
  182loPI   C2B 2910  14.182  10.540   9.321  0.1492  0.2217 -0.1824
  182loPI   C3B 2911  14.154  10.505   8.824  0.0248  0.1243  0.1171
  182loPI   C4B 2912  14.228  10.131   8.585 -0.2042  0.2716 -0.0969
  183loPI    C1 2913   1.466  17.434  10.502  0.0077  0.1598 -0.1409
  183loPI    C2 2914   1.537  17.754  10.274  0.0339  0.2042 -0.0706
  183loPI    C3 2915   1.394  17.800  10.644 -0.3532  0.1173 -0.2051
  183loPI   PO4 2916   1.363  17.265  10.282 -0.2041  0.2062  0.0304
  183loPI   GL1 2917   1.354  17.472   9.885 -0.1785 -0.1007 -0.2243
  183loPI   GL2 2918   1.705  17.589   9.856  0.0656  0.0115 -0.3397
  183loPI   C1A 2919   1.231  17.362   9.446 -0.0361 -0.0553  0.0824
  183loPI   C2A 2920   1.035  17.318   9.017  0.0357  0.1596 -0.0332
  183loPI   C3A 2921   1.063  17.444   8.607 -0.0596  0.0302 -0.1680
  183loPI   C4A 2922   0.938  17.404   8.138 -0.0742 -0.2404 -0.0427
  183loPI   C5A 2923   0.647  17.359   7.847 -0.3451 -0.1396  0.2446
  183loPI   C6A 2924   0.232  17.512   7.767  0.2937  0.0538  0.1881
  183loPI   C1B 2925   1.671  17.517   9.434 -0.3450 -0.1274  0.1683
  183loPI   C2B 2926   1.636  17.443   8.994  0.0278  0.4218 -0.0810
  183loPI   C3B 2927   1.549  17.457   8.530  0.0303  0.4166  0.0400
  183loPI   C4B 2928   1.607  17.451   8.002  0.0820 -0.1597 -0.0480
  184loPI    C1 2929   1.430   6.702   9.819 -0.0443  0.1811 -0.1015
  184loPI    C2 2930   1.573   6.339   9.909 -0.2365  0.1739  0.1865
  184loPI    C3 2931   1.545   6.620  10.193 -0.3278  0.3338  0.0218
  184loPI   PO4 2932   1.255   6.653   9.714 -0.0462  0.0041  0.2035
  184loPI   GL1 2933   1.237   6.767   9.280  0.2226 -0.2661  0.1681
  184loPI   GL2 2934   1.058   6.972   9.368  0.1824  0.1025 -0.3860
  184loPI   C1A 2935   1.269   6.633   8.867  0.0935 -0.0335 -0.3811
  184loPI   C2A 2936   1.310   6.757   8.414  0.3169  0.1108 -0.4252
  184loPI   C3A 2937   1.291   6.486   8.060  0.2569  0.1269 -0.4415
  184loPI   C4A 2938   1.092   6.043   7.994 -0.1202 -0.0745 -0.1677
  184loPI   C5A 2939   0.992   5.742   7.613 -0.0973 -0.1244 -0.0053
  184loPI   C6A 2940   0.781   5.509   7.292 -0.2647 -0.3091 -0.0234
  184loPI   C1B 2941   0.912   7.051   8.942 -0.0213  0.0394 -0.1761
  184loPI   C2B 2942   0.935   7.071   8.537 -0.2573  0.0313  0.1403
  184loPI   C3B 2943   0.890   6.951   8.143 -0.0952 -0.1214 -0.1070
  184loPI   C4B 2944   1.036   6.786   7.724 -0.1193  0.0255 -0.2669
  185loPI    C1 2945   4.289   3.947   9.551 -0.0606  0.1805  0.1605
  185loPI    C2 2946   4.542   3.644   9.610  0.0122  0.2035 -0.0250
  185loPI    C3 2947   4.556   3.965   9.848 -0.1619  0.0020  0.2644
  185loPI   PO4 2948   4.235   3.884   9.341 -0.5587  0.1387 -0.1232
  185loPI   GL1 2949   4.178   3.722   8.867  0.3046  0.2965 -0.0868
  185loPI   GL2 2950   4.410   3.949   8.890  0.4040  0.0179  0.2201
  185loPI   C1A 2951   4.022   3.804   8.507 -0.0594 -0.1434 -0.1554
  185loPI   C2A 2952   3.653   4.062   8.376  0.1382 -0.0013  0.0757
  185loPI   C3A 2953   3.299   4.053   8.216 -0.2539  0.0551  0.1260
  185loPI   C4A 2954   3.041   4.267   7.947 -0.1869  0.3687  0.0883
  185loPI   C5A 2955   3.009   4.538   7.547  0.1624 -0.0927  0.3483
  185loPI   C6A 2956   2.868   4.863   7.267 -0.3107 -0.4140 -0.0043
  185loPI   C1B 2957   4.518   3.839   8.484  0.0534 -0.0385  0.0849
  185loPI   C2B 2958   4.753   3.744   8.158 -0.0477  0.0100 -0.0751
  185loPI   C3B 2959   4.617   3.656   7.788 -0.0658  0.0693  0.2692
  185loPI   C4B 2960   4.625   3.685   7.398 -0.0704  0.1968 -0.1221
  186loPI    C1 2961  11.106  16.927  10.366 -0.2805  0.1223  0.2382
  186loPI    C2 2962  10.946  16.655  10.121  0.1155  0.1486 -0.0599
  186loPI    C3 2963  10.822  16.680  10.500 -0.0926 -0.2853 -0.0927
  186loPI   PO4 2964  11.090  17.153  10.229 -0.0549  0.0390 -0.3078
  186loPI   GL1 2965  11.125  17.409   9.901 -0.3326  0.1101 -0.2456
  186loPI   GL2 2966  10.859  17.531   9.845 -0.0224 -0.2455  0.2837
  186loPI   C1A 2967  11.327  17.271   9.578  0.1149 -0.2332  0.1596
  186loPI   C2A 2968  11.537  17.211   9.180 -0.0316  0.1697  0.0897
  186loPI   C3A 2969  11.664  16.957   8.736 -0.1815 -0.0322 -0.0117
  186loPI   C4A 2970  11.470  17.075   8.369 -0.0697  0.3042 -0.0214
  186loPI   C5A 2971  11.406  17.493   8.055 -0.3225  0.1688  0.1773
  186loPI   C6A 2972  11.059  17.579   7.723  0.0556 -0.2561 -0.0388
  186loPI   C1B 2973  10.920  17.407   9.391 -0.0644 -0.1840  0.0345
  186loPI   C2B 2974  10.735  17.520   9.015  0.0832 -0.0695  0.0292
  186loPI   C3B 2975  10.732  17.431   8.540  0.1066 -0.0879 -0.3950
  186loPI   C4B 2976  10.781  17.449   8.102 -0.0256  0.2222  0.1881
  187loPI    C1 2977   6.018  18.607   9.898  0.1332  0.0511 -0.0506
  187loPI    C2 2978   6.336  18.563   9.660  0.2082  0.1884  0.0231
  187loPI    C3 2979   6.386  18.624  10.052  0.0862  0.0146  0.0669
  187loPI   PO4 2980   5.895  18.871   9.795  0.2280 -0.1777 -0.0694
  187loPI   GL1 2981   5.676  18.975   9.454 -0.0161  0.3278 -0.4712
  187loPI   GL2 2982   5.387  18.944   9.364 -0.0962  0.1649  0.2130
  187loPI   C1A 2983   5.848  18.911   9.082 -0.0529  0.1230  0.1367
  187loPI   C2A 2984   6.020  18.954   8.579  0.0290 -0.1842 -0.0999
  187loPI   C3A 2985   5.864  18.771   8.177  0.0888 -0.0508 -0.2805
  187loPI   C4A 2986   5.610  18.494   7.959  0.1908 -0.1984 -0.1424
  187loPI   C5A 2987   5.613  18.359   7.525  0.0491 -0.1194  0.2079
  187loPI   C6A 2988   6.012  18.382   7.227 -0.3722  0.3164  0.2221
  187loPI   C1B 2989   5.469  18.980   8.796 -0.1719 -0.1333  0.0589
  187loPI   C2B 2990   5.626  19.235   8.464  0.1987  0.0008 -0.0239
  187loPI   C3B 2991   5.987  19.328   8.188  0.0722 -0.0582 -0.1548
  187loPI   C4B 2992   6.281  19.343   8.372 -0.1387 -0.2080 -0.0580
  188loPI    C1 2993   4.762  17.806   9.946  0.1705 -0.3474 -0.0201
  188loPI    C2 2994   4.406  17.627   9.984  0.1036 -0.2447 -0.1576
  188loPI    C3 2995   4.555  17.843  10.286 -0.0858 -0.0458 -0.2038
  188loPI   PO4 2996   4.904  17.677   9.844 -0.0795  0.0853 -0.1294
  188loPI   GL1 2997   5.155  17.567   9.644 -0.0674  0.2324 -0.0589
  188loPI   GL2 2998   5.375  17.411   9.610 -0.0761  0.2455  0.2591
  188loPI   C1A 2999   5.028  17.732   9.208  0.2586  0.0316  0.2140
  188loPI   C2A 3000   5.075  17.796   8.831  0.1025  0.2359  0.0123
  188loPI   C3A 3001   5.122  17.862   8.393 -0.1055  0.1941  0.1500
  188loPI   C4A 3002   5.110  17.811   7.984 -0.0637 -0.1930 -0.1563
  188loPI   C5A 3003   5.230  18.160   7.717 -0.1223  0.1683  0.2706
  188loPI   C6A 3004   5.187  18.224   7.327  0.1327 -0.0280 -0.0343
  188loPI   C1B 3005   5.348  17.381   9.073  0.1769  0.3254  0.1908
  188loPI   C2B 3006   5.279  17.390   8.562 -0.4628 -0.0140  0.1394
  188loPI   C3B 3007   5.242  17.221   8.180 -0.2811 -0.0873  0.2511
  188loPI   C4B 3008   5.031  17.388   7.785 -0.1269  0.1754 -0.3729
  189loPI    C1 3009   4.226  18.660  10.026 -0.0573 -0.2218  0.3871
  189loPI    C2 3010   4.249  19.060  10.026 -0.0724 -0.2208  0.3302
  189loPI    C3 3011   4.035  18.871  10.307 -0.3307 -0.1730  0.1685
  189loPI   PO4 3012   4.486  18.625   9.871 -0.2681 -0.2466  0.0102
  189loPI   GL1 3013   4.324  18.532   9.499 -0.0069 -0.1620  0.1693
  189loPI   GL2 3014   4.295  18.183   9.401  0.0179  0.2598 -0.1509
  189loPI   C1A 3015   4.565  18.459   9.114  0.0190  0.0335 -0.0648
  189loPI   C2A 3016   4.562  18.557   8.790 -0.1183 -0.0339  0.3286
  189loPI   C3A 3017   4.411  18.544   8.345  0.0473 -0.2642  0.0509
  189loPI   C4A 3018   4.172  18.338   8.004  0.1285  0.2175  0.0282
  189loPI   C5A 3019   4.208  18.337   7.556  0.2114  0.0456  0.0655
  189loPI   C6A 3020   4.343  18.006   7.305 -0.3002  0.1485 -0.1062
  189loPI   C1B 3021   4.057  18.222   9.106  0.2538 -0.0232  0.0371
  189loPI   C2B 3022   4.113  18.407   8.755  0.0532 -0.1562 -0.2541
  189loPI   C3B 3023   4.047  18.770   8.570 -0.3635 -0.2831  0.0152
  189loPI   C4B 3024   4.010  18.749   8.121 -0.1539 -0.0134 -0.2018
  190loPI    C1 3025  13.788   5.825  10.493  0.1248  0.0458 -0.0767
  190loPI    C2 3026  14.118   5.944  10.686  0.0736 -0.1174  0.1142
  190loPI    C3 3027  13.756   6.029  10.835  0.0337 -0.2351  0.0861
  190loPI   PO4 3028  13.850   5.824  10.284  0.0471  0.4043  0.4459
  190loPI   GL1 3029  13.970   5.773   9.878  0.0838  0.0137 -0.0660
  190loPI   GL2 3030  14.156   5.461   9.711  0.0634  0.2344  0.0031
  190loPI   C1A 3031  13.737   5.583   9.464  0.2471 -0.2008 -0.1606
  190loPI   C2A 3032  13.597   5.481   9.021  0.0278 -0.1303 -0.1876
  190loPI   C3A 3033  13.657   5.440   8.570  0.1112 -0.0989 -0.2907
  190loPI   C4A 3034  13.521   5.433   8.203 -0.2937 -0.0791 -0.1332
  190loPI   C5A 3035  13.298   5.276   7.858 -0.2981  0.2973  0.1090
  190loPI   C6A 3036  12.887   5.272   7.593 -0.1428 -0.2278 -0.0972
  190loPI   C1B 3037  14.183   5.455   9.323 -0.1998 -0.2060  0.0027
  190loPI   C2B 3038  14.056   5.362   8.932 -0.0157  0.1009 -0.2115
  190loPI   C3B 3039  14.183   5.333   8.508  0.0218 -0.1180 -0.2275
  190loPI   C4B 3040  14.161   5.341   8.148  0.2177  0.1799 -0.0096
  191loPI    C1 3041   1.775  13.322  10.202  0.1251 -0.0777 -0.4199
  191loPI    C2 3042   1.990  13.526  10.470 -0.1604 -0.1340 -0.1414
  191loPI    C3 3043   2.151  13.213  10.281  0.1221  0.0531 -0.2176
  191loPI   PO4 3044   1.566  13.478  10.004 -0.1924  0.1725 -0.2602
  191loPI   GL1 3045   1.624  13.375   9.566  0.2091  0.0915 -0.2438
  191loPI   GL2 3046   1.596  13.803   9.551 -0.0215 -0.2655 -0.3840
  191loPI   C1A 3047   1.607  13.171   9.105  0.1303 -0.1464  0.2528
  191loPI   C2A 3048   1.373  13.066   8.758 -0.0024  0.2880  0.0089
  191loPI   C3A 3049   1.171  13.218   8.286  0.1051  0.1083 -0.0891
  191loPI   C4A 3050   1.181  13.442   7.898 -0.1649  0.1739  0.1078
  191loPI   C5A 3051   1.110  13.605   7.541 -0.4505  0.2235 -0.2938
  191loPI   C6A 3052   0.917  13.960   7.366 -0.0197 -0.2541 -0.0550
  191loPI   C1B 3053   1.599  13.727   9.187  0.0987  0.2680 -0.1165
  191loPI   C2B 3054   1.671  14.007   8.690  0.0926  0.2931  0.0073
  191loPI   C3B 3055   2.012  14.025   8.316 -0.2641  0.0921  0.0350
  191loPI   C4B 3056   2.137  13.856   7.952 -0.2887  0.0851 -0.0571
  192loPI    C1 3057  11.869   7.296  10.578 -0.2003 -0.1459  0.1305
  192loPI    C2 3058  11.529   7.507  10.584 -0.2332 -0.1920 -0.0572
  192loPI    C3 3059  11.882   7.695  10.560 -0.2551 -0.1521 -0.0681
  192loPI   PO4 3060  11.758   7.090  10.444 -0.2503  0.0773  0.2950
  192loPI   GL1 3061  11.855   7.013  10.017  0.0568  0.0413 -0.0585
  192loPI   GL2 3062  12.170   6.818   9.952  0.0535 -0.1911 -0.0506
  192loPI   C1A 3063  11.562   7.036   9.698  0.1023 -0.0568 -0.0159
  192loPI   C2A 3064  11.368   7.116   9.276 -0.0688 -0.6346  0.2846
  192loPI   C3A 3065  11.317   7.134   8.857 -0.1715 -0.0073 -0.1343
  192loPI   C4A 3066  11.335   7.113   8.548 -0.1112  0.4225  0.0874
  192loPI   C5A 3067  11.287   7.122   8.151  0.3689  0.0855  0.0018
  192loPI   C6A 3068  11.333   6.823   7.741  0.5084 -0.0540  0.1418
  192loPI   C1B 3069  12.168   6.883   9.470  0.3834 -0.2056 -0.0628
  192loPI   C2B 3070  12.226   6.639   9.076 -0.1553  0.0691  0.2909
  192loPI   C3B 3071  12.138   6.623   8.650 -0.3124 -0.2448  0.0062
  192loPI   C4B 3072  11.990   6.325   8.336  0.0002  0.2277  0.1309
  193loPI    C1 3073   3.013  14.510  10.169  0.3698  0.0365 -0.0981
  193loPI    C2 3074   2.945  14.813   9.918  0.0495  0.0783  0.0336
  193loPI    C3 3075   2.948  14.878  10.312  0.0744 -0.0727  0.0587
  193loPI   PO4 3076   3.150  14.349   9.863 -0.2001 -0.2285  0.0322
  193loPI   GL1 3077   3.255  14.233   9.418  0.4970 -0.1049  0.3729
  193loPI   GL2 3078   2.868  14.028   9.279 -0.1204 -0.0837 -0.0433
  193loPI   C1A 3079   3.175  14.434   8.994 -0.0152 -0.1465 -0.0990
  193loPI   C2A 3080   3.152  14.295   8.673  0.2306  0.0370  0.0367
  193loPI   C3A 3081   2.776  14.343   8.457 -0.0190  0.4026 -0.3190
  193loPI   C4A 3082   2.633  14.128   8.127  0.1749 -0.0817 -0.1976
  193loPI   C5A 3083   2.614  13.908   7.777  0.1641 -0.0265 -0.0810
  193loPI   C6A 3084   2.816  13.738   7.387 -0.1629  0.1914 -0.2382
  193loPI   C1B 3085   2.874  13.811   8.850  0.3951 -0.1274 -0.0180
  193loPI   C2B 3086   3.125  13.777   8.535 -0.2118 -0.1230  0.0471
  193loPI   C3B 3087   3.443  13.584   8.588  0.0418  0.2706  0.0312
  193loPI   C4B 3088   3.530  13.386   8.820  0.1882  0.2203 -0.1545
  194loPI    C1 3089   9.207   9.224  10.336  0.1760  0.0568  0.0349
  194loPI    C2 3090   9.237   9.290  10.730 -0.0298 -0.2242  0.1004
  194loPI    C3 3091   9.265   9.596  10.473  0.1846 -0.0499  0.3269
  194loPI   PO4 3092   9.402   9.052  10.191  0.0052 -0.0275  0.0441
  194loPI   GL1 3093   9.541   8.878   9.784  0.1953  0.1006  0.0445
  194loPI   GL2 3094   9.559   9.201   9.714 -0.3073  0.0778  0.2048
  194loPI   C1A 3095   9.394   8.679   9.402 -0.2433  0.2834 -0.2657
  194loPI   C2A 3096   9.093   8.482   9.199 -0.0123 -0.0159  0.1996
  194loPI   C3A 3097   9.173   8.429   8.743  0.2504  0.0052  0.0599
  194loPI   C4A 3098   9.319   8.557   8.408  0.1780  0.0213  0.0398
  194loPI   C5A 3099   9.596   8.662   8.152  0.0207 -0.0281 -0.0071
  194loPI   C6A 3100   9.894   8.432   7.936  0.2320 -0.0609  0.1330
  194loPI   C1B 3101   9.458   9.231   9.221  0.3411  0.2862 -0.1453
  194loPI   C2B 3102   9.446   9.480   8.830 -0.0144 -0.1808 -0.0713
  194loPI   C3B 3103   9.355   9.512   8.402 -0.0722  0.0818 -0.0690
  194loPI   C4B 3104   9.617   9.397   8.021  0.0820  0.1784 -0.1416
  195loPI    C1 3105   6.731  18.266   9.856 -0.0719 -0.1309 -0.0030
  195loPI    C2 3106   6.885  18.582  10.047 -0.0554 -0.1793  0.0638
  195loPI    C3 3107   6.758  18.264  10.255 -0.1487 -0.1826  0.0022
  195loPI   PO4 3108   6.776  18.312   9.646 -0.2445  0.1040 -0.0995
  195loPI   GL1 3109   7.014  18.450   9.245 -0.0741 -0.0091  0.2291
  195loPI   GL2 3110   7.005  18.813   9.190  0.0347  0.4040  0.2734
  195loPI   C1A 3111   7.127  18.359   8.816  0.0758  0.0414  0.0436
  195loPI   C2A 3112   7.122  18.215   8.374 -0.3264  0.0367  0.0799
  195loPI   C3A 3113   6.953  18.472   8.070  0.4837 -0.0791 -0.2830
  195loPI   C4A 3114   6.770  18.522   7.688 -0.0612  0.1636 -0.0483
  195loPI   C5A 3115   6.370  18.552   7.474 -0.1838  0.4521 -0.2196
  195loPI   C6A 3116   5.988  18.733   7.674  0.2306 -0.3239  0.2921
  195loPI   C1B 3117   6.857  18.746   8.879  0.0547  0.0064  0.3313
  195loPI   C2B 3118   6.978  18.771   8.485  0.0519  0.0662 -0.2699
  195loPI   C3B 3119   6.884  18.946   8.131  0.0878  0.0795 -0.1167
  195loPI   C4B 3120   6.497  18.901   7.805  0.1029  0.1060 -0.1740
  196loPI    C1 3121   7.719  17.170  10.351 -0.2948 -0.0060 -0.1987
  196loPI    C2 3122   7.418  17.159  10.614 -0.0872  0.1327  0.0506
  196loPI    C3 3123   7.378  17.363  10.272 -0.3323  0.0134  0.0058
  196loPI   PO4 3124   7.740  16.885  10.310 -0.2774 -0.0281 -0.0310
  196loPI   GL1 3125   7.881  16.739   9.893 -0.1075 -0.2731 -0.0086
  196loPI   GL2 3126   7.708  16.830   9.693 -0.3284  0.2928  0.2082
  196loPI   C1A 3127   8.096  16.424   9.659  0.1775  0.2884  0.2408
  196loPI   C2A 3128   8.092  16.251   9.218 -0.2421 -0.3711 -0.0172
  196loPI   C3A 3129   8.042  16.231   8.818 -0.1724  0.0167  0.0781
  196loPI   C4A 3130   8.166  16.244   8.404 -0.1638 -0.0074  0.1433
  196loPI   C5A 3131   8.489  16.320   8.104 -0.1310  0.0774 -0.0293
  196loPI   C6A 3132   8.907  16.337   7.904 -0.1527  0.1616 -0.0932
  196loPI   C1B 3133   7.898  16.721   9.233 -0.0166 -0.2416 -0.0927
  196loPI   C2B 3134   7.930  16.725   8.826 -0.2183  0.1884  0.0726
  196loPI   C3B 3135   7.923  16.759   8.377 -0.0465  0.3370 -0.3263
  196loPI   C4B 3136   8.011  16.493   7.879  0.3892  0.2702  0.0251
  197loPI    C1 3137  15.534   9.804  10.494  0.0773  0.2054 -0.3236
  197loPI    C2 3138  15.839   9.662  10.278 -0.0001 -0.1081 -0.2324
  197loPI    C3 3139  15.749   9.495  10.631  0.2194  0.4915  0.1230
  197loPI   PO4 3140  15.520  10.007  10.435 -0.5254 -0.1176 -0.1658
  197loPI   GL1 3141  15.686  10.104  10.043  0.2380  0.0874 -0.0401
  197loPI   GL2 3142  15.466  10.169   9.948  0.0218  0.0426  0.1619
  197loPI   C1A 3143  15.890   9.837   9.657 -0.1651 -0.2618 -0.1666
  197loPI   C2A 3144  15.819   9.806   9.177  0.0355  0.1406  0.2887
  197loPI   C3A 3145  15.766   9.586   8.737 -0.1855  0.2043 -0.1783
  197loPI   C4A 3146  15.688   9.690   8.281  0.2160  0.0021  0.3509
  197loPI   C5A 3147  15.867  10.129   8.139 -0.2670 -0.2005  0.0315
  197loPI   C6A 3148  15.714  10.465   7.996  0.0599 -0.0141  0.1601
  197loPI   C1B 3149  15.547  10.272   9.572 -0.1964 -0.1370 -0.0424
  197loPI   C2B 3150  15.428  10.542   9.250  0.1072 -0.0860 -0.2045
  197loPI   C3B 3151  15.477  10.523   8.869 -0.0857 -0.1932  0.2467
  197loPI   C4B 3152  15.356  10.560   8.421  0.0286 -0.1214 -0.1352
  198loPI    C1 3153  15.781   3.065  10.620  0.1053 -0.2227  0.1415
  198loPI    C2 3154  16.045   3.312  10.791 -0.0882 -0.0799  0.2386
  198loPI    C3 3155  15.977   2.951  10.950  0.0070 -0.0952  0.2453
  198loPI   PO4 3156  15.844   3.099  10.360  0.0147  0.0502  0.1501
  198loPI   GL1 3157  15.628   2.987   9.948 -0.2597 -0.1964  0.1252
  198loPI   GL2 3158  15.844   3.066   9.800 -0.1452  0.0274 -0.3134
  198loPI   C1A 3159  15.360   2.964   9.545 -0.1319 -0.0238  0.0670
  198loPI   C2A 3160  15.250   2.948   9.130  0.1735 -0.4295 -0.2875
  198loPI   C3A 3161  15.132   2.951   8.656  0.1921  0.1510 -0.0071
  198loPI   C4A 3162  14.970   2.882   8.224  0.0442 -0.0361 -0.3112
  198loPI   C5A 3163  14.711   2.720   7.844 -0.0538  0.0790 -0.1477
  198loPI   C6A 3164  14.345   2.660   7.515 -0.0603 -0.2309  0.2134
  198loPI   C1B 3165  15.797   3.033   9.305 -0.3446 -0.1346  0.0011
  198loPI   C2B 3166  15.764   2.883   8.871 -0.2399 -0.3900  0.0215
  198loPI   C3B 3167  15.695   2.907   8.468 -0.3442 -0.1874  0.1147
  198loPI   C4B 3168  15.678   2.800   8.100 -0.3238 -0.1590  0.0225
  199loPI    C1 3169   5.190  14.301  10.123  0.0680  0.1819 -0.1149
  199loPI    C2 3170   5.014  14.107   9.821 -0.2875  0.3472 -0.0190
  199loPI    C3 3171   4.909  14.027  10.199  0.1149  0.1816  0.0626
  199loPI   PO4 3172   5.160  14.522  10.099  0.0231 -0.0145  0.1254
  199loPI   GL1 3173   4.970  14.622   9.718  0.1019 -0.1120  0.0414
  199loPI   GL2 3174   4.655  14.449   9.711 -0.1561 -0.1842  0.0487
  199loPI   C1A 3175   4.714  14.885   9.432 -0.0779 -0.0037  0.3068
  199loPI   C2A 3176   4.437  14.878   9.064  0.0314 -0.0096 -0.0056
  199loPI   C3A 3177   4.432  14.889   8.563  0.0505 -0.1016 -0.0731
  199loPI   C4A 3178   4.311  14.859   8.143 -0.1776 -0.1115  0.0896
  199loPI   C5A 3179   4.248  15.005   7.751 -0.0833  0.1815  0.1705
  199loPI   C6A 3180   4.252  14.759   7.476  0.1109 -0.2533  0.1347
  199loPI   C1B 3181   4.781  14.471   9.217  0.1351 -0.2005  0.1380
  199loPI   C2B 3182   4.711  14.500   8.778 -0.5554  0.0794 -0.0555
  199loPI   C3B 3183   4.830  14.462   8.463  0.2883 -0.0403 -0.0975
  199loPI   C4B 3184   4.881  14.240   8.070  0.0268 -0.0820 -0.0441
  200loPI    C1 3185   3.427   8.370   9.927  0.1967  0.1371 -0.0007
  200loPI    C2 3186   3.171   8.670   9.991 -0.1193 -0.1659  0.1899
  200loPI    C3 3187   3.461   8.595  10.256  0.0775  0.0818  0.0496
  200loPI   PO4 3188   3.497   8.424   9.636 -0.0961 -0.0028  0.2375
  200loPI   GL1 3189   3.518   8.283   9.204 -0.0176 -0.2537 -0.5104
  200loPI   GL2 3190   3.409   7.983   9.118  0.0180  0.1295  0.0129
  200loPI   C1A 3191   3.571   8.266   8.788 -0.1372 -0.3781  0.2759
  200loPI   C2A 3192   3.582   8.161   8.399  0.1499  0.1350 -0.0818
  200loPI   C3A 3193   3.450   8.134   7.956 -0.0871  0.0628 -0.2246
  200loPI   C4A 3194   3.254   8.404   7.677 -0.0383  0.2137  0.2453
  200loPI   C5A 3195   3.198   8.743   7.373 -0.1889  0.0270 -0.1212
  200loPI   C6A 3196   3.092   8.882   7.011  0.2482 -0.2045 -0.1192
  200loPI   C1B 3197   3.284   7.893   8.699 -0.0842  0.4709  0.3135
  200loPI   C2B 3198   3.239   7.678   8.270  0.2356  0.1371 -0.0079
  200loPI   C3B 3199   3.486   7.404   7.921 -0.0241 -0.0660 -0.0113
  200loPI   C4B 3200   3.769   7.259   7.722  0.0802 -0.1550 -0.0034
  201loPI    C1 3201   0.430   1.169  10.265  0.0604 -0.2420  0.0364
  201loPI    C2 3202   0.745   1.303  10.472  0.0189 -0.1538  0.0432
  201loPI    C3 3203   0.561   0.965  10.582  0.1216 -0.2148  0.0287
  201loPI   PO4 3204   0.496   1.133  10.028 -0.0111  0.0991  0.0110
  201loPI   GL1 3205   0.299   1.048   9.695 -0.0637 -0.0226  0.0471
  201loPI   GL2 3206   0.455   0.748   9.542  0.0328  0.0961 -0.3487
  201loPI   C1A 3207   0.125   1.018   9.181  0.0454  0.1833  0.0513
  201loPI   C2A 3208   0.092   1.053   8.741  0.0535 -0.1848  0.1843
  201loPI   C3A 3209   0.092   1.032   8.376 -0.1526 -0.3591 -0.0194
  201loPI   C4A 3210   0.049   1.044   7.910  0.2336  0.0747 -0.1366
  201loPI   C5A 3211   0.160   1.064   7.469  0.3519  0.3491  0.0937
  201loPI   C6A 3212   0.150   0.783   7.141  0.4321  0.0668  0.4038
  201loPI   C1B 3213   0.408   0.620   9.020  0.0608 -0.1141  0.1269
  201loPI   C2B 3214   0.332   0.567   8.543  0.3296 -0.1156  0.3676
  201loPI   C3B 3215   0.228   0.565   8.054  0.1910  0.1039  0.1077
  201loPI   C4B 3216   0.015   0.631   7.648  0.0671 -0.1015 -0.0469
  202loPI    C1 3217  14.135  13.351  10.634 -0.0301 -0.1102  0.0698
  202loPI    C2 3218  14.430  13.536  10.830 -0.2440 -0.0407  0.3322
  202loPI    C3 3219  14.110  13.743  10.712 -0.1383 -0.0916 -0.0555
  202loPI   PO4 3220  14.271  13.171  10.523 -0.0988 -0.1416  0.0938
  202loPI   GL1 3221  14.505  13.188  10.209 -0.0688 -0.1849 -0.2656
  202loPI   GL2 3222  14.521  12.958  10.051  0.0265  0.0575  0.1913
  202loPI   C1A 3223  14.490  13.515   9.775  0.0235 -0.0647 -0.1975
  202loPI   C2A 3224  14.584  13.525   9.326  0.2239 -0.1340  0.2464
  202loPI   C3A 3225  14.501  13.550   8.911  0.1267 -0.0213 -0.2527
  202loPI   C4A 3226  14.550  13.545   8.506 -0.0932 -0.2759 -0.0956
  202loPI   C5A 3227  14.594  13.486   8.045  0.1836  0.0777  0.0201
  202loPI   C6A 3228  14.684  13.456   7.629 -0.0067 -0.5004 -0.0471
  202loPI   C1B 3229  14.506  12.937   9.707  0.1491  0.0392  0.3561
  202loPI   C2B 3230  14.522  12.952   9.350  0.0243 -0.2134 -0.0847
  202loPI   C3B 3231  14.465  13.047   9.023  0.1035  0.2170  0.2162
  202loPI   C4B 3232  14.453  13.047   8.566 -0.2047  0.0834  0.0865
  203loPI    C1 3233  12.703  10.733  10.665  0.1633  0.0221 -0.2108
  203loPI    C2 3234  12.822  10.419  10.447  0.4362  0.0476 -0.1028
  203loPI    C3 3235  12.612  10.362  10.783  0.0436  0.0067 -0.3496
  203loPI   PO4 3236  12.684  10.875  10.517 -0.2751  0.0556  0.0587
  203loPI   GL1 3237  12.756  10.921  10.151 -0.2329  0.0249  0.3242
  203loPI   GL2 3238  13.045  11.105   9.875  0.1805  0.0056 -0.2397
  203loPI   C1A 3239  12.626  10.955   9.655  0.0037  0.0545  0.1555
  203loPI   C2A 3240  12.824  10.905   9.344  0.2454  0.3311  0.1001
  203loPI   C3A 3241  12.867  10.751   8.941  0.1323  0.4751 -0.1721
  203loPI   C4A 3242  12.961  10.438   8.639 -0.0922  0.0490  0.0608
  203loPI   C5A 3243  13.233  10.220   8.400 -0.4465  0.3205  0.2349
  203loPI   C6A 3244  13.617   9.965   8.315  0.2630  0.0186 -0.1997
  203loPI   C1B 3245  13.327  11.175   9.531 -0.2650 -0.2087  0.1703
  203loPI   C2B 3246  13.200  11.156   9.139  0.0406  0.2541  0.0807
  203loPI   C3B 3247  13.327  11.135   8.746 -0.1965  0.1967 -0.2998
  203loPI   C4B 3248  13.283  10.790   8.341 -0.0129 -0.0614  0.0138
  204loPI    C1 3249  18.622   1.398  10.239  0.1923  0.0924  0.1736
  204loPI    C2 3250  18.775   1.049  10.116 -0.0448  0.0511 -0.0107
  204loPI    C3 3251  18.786   1.147  10.504  0.0809 -0.1316  0.0330
  204loPI   PO4 3252  18.768   1.595  10.155 -0.2129 -0.0533 -0.0279
  204loPI   GL1 3253  18.762   1.400   9.713 -0.0418 -0.2011 -0.0773
  204loPI   GL2 3254  18.468   1.212   9.796 -0.1318  0.0534  0.0987
  204loPI   C1A 3255  18.725   1.469   9.247  0.1632 -0.1277  0.2073
  204loPI   C2A 3256  18.615   1.578   8.820  0.0725 -0.1827  0.3253
  204loPI   C3A 3257  18.666   1.445   8.302 -0.1160 -0.0013 -0.0742
  204loPI   C4A 3258  18.630   1.511   7.829 -0.0595  0.4447  0.2060
  204loPI   C5A 3259  18.580   1.573   7.481 -0.1334 -0.1819  0.0447
  204loPI   C6A 3260  18.615   1.721   7.128 -0.2191  0.2828  0.1216
  204loPI   C1B 3261  18.423   1.084   9.417 -0.0576 -0.2512 -0.0653
  204loPI   C2B 3262  18.399   1.094   8.973 -0.2096  0.4548 -0.1088
  204loPI   C3B 3263  18.366   1.148   8.555  0.0777  0.2688 -0.2651
  204loPI   C4B 3264  18.255   1.125   8.080 -0.1636 -0.0319 -0.3203
  205loPI    C1 3265   6.629   4.143   9.632 -0.2721  0.0404 -0.0706
  205loPI    C2 3266   6.320   3.934   9.776 -0.1516 -0.1144 -0.0330
  205loPI    C3 3267   6.364   4.320   9.874 -0.3598 -0.0772 -0.0797
  205loPI   PO4 3268   6.620   4.104   9.379 -0.1197 -0.0089  0.1374
  205loPI   GL1 3269   6.611   4.213   9.013 -0.2045  0.2267 -0.0940
  205loPI   GL2 3270   6.725   4.405   8.865  0.1081  0.0916 -0.0055
  205loPI   C1A 3271   6.565   4.084   8.576 -0.1848  0.2832  0.2838
  205loPI   C2A 3272   6.392   4.198   8.188  0.1635  0.1172 -0.2650
  205loPI   C3A 3273   6.097   4.284   7.853  0.1073 -0.0428 -0.1833
  205loPI   C4A 3274   6.042   4.511   7.509  0.2575 -0.0501 -0.0491
  205loPI   C5A 3275   6.164   4.455   7.106  0.0187  0.0601  0.1557
  205loPI   C6A 3276   6.136   4.287   6.687  0.0925 -0.3400 -0.0120
  205loPI   C1B 3277   6.963   4.558   8.510  0.3097  0.1403  0.1244
  205loPI   C2B 3278   6.739   4.576   8.042  0.1261 -0.0710 -0.1401
  205loPI   C3B 3279   6.897   4.615   7.638 -0.1503 -0.5092  0.1950
  205loPI   C4B 3280   7.324   4.653   7.484  0.1070  0.2062 -0.2045
  206loPI    C1 3281   6.462  17.764   9.890 -0.0511 -0.0225 -0.1551
  206loPI    C2 3282   6.219  17.813  10.203  0.0494  0.0883 -0.0939
  206loPI    C3 3283   6.239  18.094   9.919  0.1394  0.1008 -0.0755
  206loPI   PO4 3284   6.477  17.463   9.912 -0.2315 -0.2724  0.2405
  206loPI   GL1 3285   6.296  17.270   9.565 -0.0356  0.2858  0.0327
  206loPI   GL2 3286   6.252  17.578   9.320 -0.1218 -0.1318 -0.0002
  206loPI   C1A 3287   6.342  16.956   9.248 -0.1706  0.0518 -0.3680
  206loPI   C2A 3288   6.231  16.789   8.858  0.1393  0.1667 -0.0152
  206loPI   C3A 3289   6.129  16.817   8.423 -0.4724 -0.2191  0.3597
  206loPI   C4A 3290   6.077  16.894   7.865  0.2567 -0.0303 -0.2972
  206loPI   C5A 3291   6.296  17.098   7.537 -0.1646 -0.1663 -0.1408
  206loPI   C6A 3292   6.521  17.073   7.111 -0.1585  0.3797 -0.2032
  206loPI   C1B 3293   6.303  17.692   8.853  0.0018 -0.2074  0.4193
  206loPI   C2B 3294   6.168  17.823   8.484  0.1838  0.1212 -0.0127
  206loPI   C3B 3295   6.259  17.810   8.031 -0.2381  0.0615  0.0265
  206loPI   C4B 3296   6.268  17.954   7.590 -0.3577  0.3629  0.0462
  207loPI    C1 3297  17.952   8.056  10.087 -0.0033  0.1056 -0.0876
  207loPI    C2 3298  18.033   8.330   9.807  0.3072  0.0627 -0.0429
  207loPI    C3 3299  18.199   8.359  10.170 -0.0720  0.1033  0.1321
  207loPI   PO4 3300  18.022   7.837   9.957 -0.0781 -0.0946  0.0745
  207loPI   GL1 3301  17.758   7.372   9.868 -0.0548  0.1458  0.0464
  207loPI   GL2 3302  17.609   7.631   9.926  0.2637 -0.2423  0.0339
  207loPI   C1A 3303  17.775   7.018   9.675  0.1948  0.0966 -0.3411
  207loPI   C2A 3304  17.730   6.941   9.244  0.0413  0.1742  0.2542
  207loPI   C3A 3305  17.767   6.660   8.956 -0.2325 -0.0903  0.0078
  207loPI   C4A 3306  17.867   6.656   8.509  0.3343 -0.1726 -0.2834
  207loPI   C5A 3307  18.065   6.596   8.104 -0.2625 -0.2027  0.3479
  207loPI   C6A 3308  18.067   6.333   7.735  0.0443 -0.1800 -0.3215
  207loPI   C1B 3309  17.309   7.300   9.667 -0.2466 -0.0901  0.1091
  207loPI   C2B 3310  16.875   7.072   9.551  0.2029 -0.2323 -0.5417
  207loPI   C3B 3311  16.739   6.876   9.224  0.0041 -0.0205 -0.1395
  207loPI   C4B 3312  16.729   6.500   9.005 -0.0283  0.0205  0.0327
  208loPI    C1 3313   5.822  11.305   9.877  0.0636 -0.1440  0.0797
  208loPI    C2 3314   5.596  11.526  10.122  0.0587 -0.1030  0.0381
  208loPI    C3 3315   5.897  11.308  10.271  0.1677  0.0602  0.0597
  208loPI   PO4 3316   5.730  11.131   9.764 -0.0957 -0.2266  0.0464
  208loPI   GL1 3317   5.519  11.216   9.424 -0.3717 -0.1471  0.2344
  208loPI   GL2 3318   5.249  11.174   9.523  0.2264 -0.0531  0.0338
  208loPI   C1A 3319   5.478  11.158   9.012 -0.1289  0.2813 -0.0688
  208loPI   C2A 3320   5.532  11.197   8.574 -0.1544 -0.1669 -0.4275
  208loPI   C3A 3321   5.182  11.281   8.202 -0.1790  0.0312  0.2079
  208loPI   C4A 3322   4.805  11.431   8.058 -0.1853  0.0887  0.0382
  208loPI   C5A 3323   4.419  11.656   8.018 -0.2259  0.1996  0.3423
  208loPI   C6A 3324   4.068  11.886   7.909  0.0409 -0.0389 -0.4200
  208loPI   C1B 3325   5.026  11.133   9.130  0.0781  0.1039  0.1161
  208loPI   C2B 3326   5.065  11.228   8.688  0.2046 -0.0211 -0.1845
  208loPI   C3B 3327   4.555  11.353   8.508 -0.1242  0.3715  0.0806
  208loPI   C4B 3328   4.193  11.680   8.480  0.1667 -0.0408 -0.0345
  209loPI    C1 3329  18.045   1.816  10.540 -0.1481 -0.0016 -0.1782
  209loPI    C2 3330  17.981   1.485  10.756  0.0440  0.1733  0.1549
  209loPI    C3 3331  18.204   1.467  10.424 -0.0387 -0.0502  0.1094
  209loPI   PO4 3332  17.799   1.843  10.418 -0.0080 -0.1774 -0.1129
  209loPI   GL1 3333  17.747   1.721   9.996 -0.0258 -0.2815 -0.1944
  209loPI   GL2 3334  18.078   1.593   9.947 -0.1408 -0.1830  0.0903
  209loPI   C1A 3335  17.804   1.709   9.551  0.1286  0.2139  0.1997
  209loPI   C2A 3336  17.734   1.758   9.034 -0.1789 -0.1041  0.0295
  209loPI   C3A 3337  17.577   1.733   8.640  0.0496  0.0671  0.0027
  209loPI   C4A 3338  17.684   1.699   8.294 -0.0722 -0.3031  0.1138
  209loPI   C5A 3339  17.955   1.938   7.888  0.1242  0.1805 -0.2114
  209loPI   C6A 3340  18.212   1.951   7.432  0.1232 -0.1910 -0.2313
  209loPI   C1B 3341  18.278   1.552   9.531  0.0756 -0.1212  0.2051
  209loPI   C2B 3342  18.241   1.650   9.145  0.1462  0.0013  0.0996
  209loPI   C3B 3343  18.133   1.678   8.656 -0.1175  0.0989 -0.1755
  209loPI   C4B 3344  18.172   1.578   8.190 -0.0480 -0.2376 -0.0257
  210loPI    C1 3345  12.336  17.894  10.382  0.0289  0.1619 -0.1094
  210loPI    C2 3346  12.061  17.985  10.658  0.0386  0.0324 -0.0560
  210loPI    C3 3347  12.392  17.785  10.763 -0.0158 -0.1256 -0.1824
  210loPI   PO4 3348  12.304  18.076  10.254  0.0981 -0.1122 -0.3152
  210loPI   GL1 3349  12.078  18.283   9.997  0.0755  0.0299  0.0233
  210loPI   GL2 3350  11.974  18.592   9.985  0.0800 -0.0197  0.2753
  210loPI   C1A 3351  11.972  18.405   9.515  0.0125 -0.0242 -0.2803
  210loPI   C2A 3352  12.113  18.249   9.026 -0.1855  0.0361  0.2567
  210loPI   C3A 3353  12.435  18.077   8.630  0.2278  0.2378  0.1585
  210loPI   C4A 3354  12.826  18.115   8.464  0.2985  0.0520 -0.3130
  210loPI   C5A 3355  13.150  18.284   8.272 -0.2183 -0.1553  0.3551
  210loPI   C6A 3356  13.238  17.813   8.217  0.0169  0.2280  0.1581
  210loPI   C1B 3357  11.989  18.915   9.652 -0.4105 -0.1546  0.1113
  210loPI   C2B 3358  11.982  18.885   9.300 -0.0084 -0.1351 -0.4437
  210loPI   C3B 3359  12.092  18.765   8.821  0.1789  0.1230  0.1388
  210loPI   C4B 3360  12.240  18.695   8.401 -0.0158 -0.1997 -0.3584
  211loPI    C1 3361   3.118  17.393  10.264  0.0122 -0.1698 -0.0394
  211loPI    C2 3362   3.075  17.788  10.223 -0.0093 -0.1845 -0.1640
  211loPI    C3 3363   2.820  17.582  10.453 -0.0835 -0.1465 -0.2116
  211loPI   PO4 3364   3.109  17.312   9.944 -0.0691  0.1328  0.0405
  211loPI   GL1 3365   3.146  17.309   9.438  0.0466 -0.0700 -0.1170
  211loPI   GL2 3366   3.161  17.020   9.337  0.0158  0.3964 -0.0926
  211loPI   C1A 3367   3.051  17.538   9.091 -0.0931 -0.0698  0.2389
  211loPI   C2A 3368   3.053  17.580   8.600 -0.0699 -0.1595 -0.0343
  211loPI   C3A 3369   3.041  17.550   8.143  0.0164 -0.1276  0.5096
  211loPI   C4A 3370   3.178  17.510   7.770 -0.1956 -0.1309  0.0557
  211loPI   C5A 3371   2.984  17.371   7.358  0.0411  0.2059 -0.1946
  211loPI   C6A 3372   3.223  17.158   7.059 -0.2233 -0.0441 -0.1307
  211loPI   C1B 3373   3.365  17.095   8.910  0.2225  0.2156  0.0308
  211loPI   C2B 3374   3.451  17.167   8.500 -0.0421  0.4190 -0.1566
  211loPI   C3B 3375   3.278  17.134   8.139  0.0323  0.1578 -0.1747
  211loPI   C4B 3376   2.900  17.026   7.857 -0.0130 -0.1112 -0.2569
  212loPI    C1 3377   7.000  14.949  10.811 -0.2016 -0.3745 -0.0021
  212loPI    C2 3378   7.398  14.918  10.829 -0.1959 -0.2376  0.1246
  212loPI    C3 3379   7.202  15.132  11.103 -0.3242 -0.0067 -0.1425
  212loPI   PO4 3380   6.945  14.911  10.520 -0.0393  0.1927  0.1924
  212loPI   GL1 3381   6.908  14.997  10.036  0.1025 -0.1014 -0.0880
  212loPI   GL2 3382   7.088  15.236   9.814  0.0077 -0.1927 -0.2729
  212loPI   C1A 3383   6.622  14.752   9.735 -0.2901  0.0042 -0.2060
  212loPI   C2A 3384   6.471  14.685   9.336 -0.1241 -0.1699  0.3047
  212loPI   C3A 3385   6.354  14.942   9.078  0.1689 -0.1328 -0.1499
  212loPI   C4A 3386   6.091  15.155   8.831 -0.4114 -0.1536  0.1847
  212loPI   C5A 3387   6.123  15.043   8.370 -0.2649 -0.2334 -0.1505
  212loPI   C6A 3388   5.813  15.203   8.206 -0.3269 -0.1087  0.2485
  212loPI   C1B 3389   6.915  15.169   9.403 -0.1292 -0.1751  0.2864
  212loPI   C2B 3390   6.937  15.029   8.989 -0.2875  0.3396 -0.4278
  212loPI   C3B 3391   6.999  14.853   8.528  0.0058  0.1375  0.1971
  212loPI   C4B 3392   7.133  14.786   8.149  0.0712  0.1027 -0.3158
  213loPI    C1 3393  13.937   4.237  10.634 -0.3474 -0.1962 -0.1643
  213loPI    C2 3394  13.673   4.535  10.663 -0.1096  0.0087 -0.0748
  213loPI    C3 3395  13.667   4.236  10.929 -0.2985 -0.0276 -0.1183
  213loPI   PO4 3396  13.939   4.156  10.328 -0.0141  0.3126  0.0458
  213loPI   GL1 3397  13.669   4.298   9.934  0.1182  0.2478 -0.4672
  213loPI   GL2 3398  13.958   4.607   9.816 -0.0977  0.0164  0.1302
  213loPI   C1A 3399  13.746   4.191   9.552  0.2671  0.1269 -0.2204
  213loPI   C2A 3400  13.725   4.093   9.062  0.2160  0.0007  0.1527
  213loPI   C3A 3401  13.707   3.925   8.682  0.1191 -0.0964  0.2235
  213loPI   C4A 3402  13.427   3.839   8.255  0.0343  0.2890  0.1680
  213loPI   C5A 3403  13.210   3.752   7.901 -0.0180 -0.1015  0.0614
  213loPI   C6A 3404  13.172   3.506   7.450 -0.2069 -0.2673 -0.0510
  213loPI   C1B 3405  14.092   4.538   9.450  0.1619  0.0752  0.0897
  213loPI   C2B 3406  14.175   4.439   9.086 -0.0651 -0.0375 -0.0211
  213loPI   C3B 3407  13.996   4.349   8.710  0.0977 -0.2682  0.1848
  213loPI   C4B 3408  14.113   4.451   8.248 -0.1006 -0.1083 -0.1973
  214loPI    C1 3409   4.830   9.384   9.943  0.0384 -0.1494 -0.0627
  214loPI    C2 3410   5.001   9.023   9.942  0.2125 -0.0676 -0.1539
  214loPI    C3 3411   5.168   9.322  10.148 -0.2393 -0.1810  0.4011
  214loPI   PO4 3412   4.776   9.451   9.698 -0.2066 -0.2780  0.0500
  214loPI   GL1 3413   4.723   9.372   9.263  0.0761  0.2915 -0.1486
  214loPI   GL2 3414   4.601   9.151   9.139  0.0481  0.2240 -0.0540
  214loPI   C1A 3415   4.713   9.774   8.925 -0.3095  0.1870 -0.0083
  214loPI   C2A 3416   4.631   9.813   8.542  0.0557 -0.0880  0.1716
  214loPI   C3A 3417   4.834   9.918   8.145 -0.0813  0.2222 -0.1091
  214loPI   C4A 3418   5.160  10.035   7.750 -0.0672  0.2786 -0.2223
  214loPI   C5A 3419   5.608  10.130   7.639 -0.1319 -0.0011  0.1446
  214loPI   C6A 3420   6.094  10.238   7.652  0.0694  0.2959  0.1671
  214loPI   C1B 3421   4.764   9.270   8.678 -0.1315  0.1514 -0.1478
  214loPI   C2B 3422   5.035   9.438   8.385 -0.0348  0.0149  0.1955
  214loPI   C3B 3423   5.202   9.507   7.963 -0.3206 -0.1860 -0.1168
  214loPI   C4B 3424   5.009   9.515   7.582 -0.0481  0.0155  0.0266
  215loPI    C1 3425   1.723  18.760   9.591 -0.3755  0.0463 -0.0117
  215loPI    C2 3426   1.700  18.717   9.988 -0.0140  0.0458  0.0129
  215loPI    C3 3427   1.950  18.488   9.776  0.1239  0.3493 -0.1593
  215loPI   PO4 3428   1.785  18.967   9.484 -0.1941  0.1713 -0.2188
  215loPI   GL1 3429   1.648  19.253   9.162 -0.0990 -0.0647 -0.1807
  215loPI   GL2 3430   1.314  19.107   9.236  0.1172  0.2770 -0.1028
  215loPI   C1A 3431   1.719  19.350   8.752  0.3492  0.0212  0.3746
  215loPI   C2A 3432   1.518  19.373   8.376 -0.5271  0.0856  0.1256
  215loPI   C3A 3433   1.475  19.194   7.986  0.0630 -0.1196 -0.3584
  215loPI   C4A 3434   1.139  19.065   7.895  0.0925  0.1331  0.0275
  215loPI   C5A 3435   0.782  19.271   7.702  0.1774  0.0909  0.1171
  215loPI   C6A 3436   0.507  19.479   7.547 -0.0202  0.0224 -0.0320
  215loPI   C1B 3437   1.226  19.199   8.798  0.2420  0.1612  0.0233
  215loPI   C2B 3438   1.037  19.144   8.362  0.0574  0.1186 -0.0296
  215loPI   C3B 3439   0.705  19.337   8.205 -0.3422  0.0456 -0.0503
  215loPI   C4B 3440   0.518  19.774   8.030 -0.3267 -0.0079 -0.1846
  216loPI    C1 3441  11.413   7.987  10.436  0.0043  0.0877 -0.0172
  216loPI    C2 3442  11.125   7.750  10.291 -0.1207  0.1970  0.0503
  216loPI    C3 3443  11.147   7.821  10.685  0.0606  0.1080  0.0570
  216loPI   PO4 3444  11.596   7.922  10.266  0.0572  0.0040 -0.0996
  216loPI   GL1 3445  11.924   7.651  10.048  0.1489 -0.2655  0.1890
  216loPI   GL2 3446  11.850   7.874   9.861 -0.1249  0.1606  0.3952
  216loPI   C1A 3447  11.976   7.363   9.695 -0.2401 -0.1002 -0.1060
  216loPI   C2A 3448  11.875   7.168   9.178  0.1487  0.0113 -0.4318
  216loPI   C3A 3449  11.835   7.146   8.716  0.3385  0.2820  0.1480
  216loPI   C4A 3450  11.759   7.317   8.348  0.1032  0.1575 -0.0559
  216loPI   C5A 3451  11.811   7.385   7.900 -0.3954 -0.3160 -0.1664
  216loPI   C6A 3452  12.108   7.563   7.664  0.0433 -0.0084 -0.1336
  216loPI   C1B 3453  11.830   7.817   9.476  0.2142  0.1621 -0.1096
  216loPI   C2B 3454  11.860   7.839   9.055  0.1268 -0.0609 -0.0317
  216loPI   C3B 3455  11.890   7.720   8.671  0.4227  0.1097  0.2737
  216loPI   C4B 3456  11.859   7.795   8.177 -0.1760  0.1818  0.3854
  217loPI    C1 3457  12.547  14.500  10.421 -0.1966  0.0202  0.2831
  217loPI    C2 3458  12.945  14.511  10.453 -0.1543  0.0168 -0.1697
  217loPI    C3 3459  12.716  14.646  10.752  0.1780 -0.2389  0.2115
  217loPI   PO4 3460  12.461  14.626  10.223  0.1143 -0.0693 -0.1395
  217loPI   GL1 3461  12.258  14.549   9.832 -0.0360 -0.0055  0.0391
  217loPI   GL2 3462  12.507  14.506   9.653  0.1997  0.1320 -0.2453
  217loPI   C1A 3463  12.164  14.857   9.565  0.1117 -0.3047  0.0873
  217loPI   C2A 3464  12.076  14.954   9.154  0.0191  0.2546 -0.1458
  217loPI   C3A 3465  11.953  14.842   8.693 -0.1366 -0.0488  0.1458
  217loPI   C4A 3466  11.983  14.680   8.297  0.1275  0.0311 -0.0921
  217loPI   C5A 3467  12.126  14.844   7.909 -0.2910  0.0814 -0.3144
  217loPI   C6A 3468  12.479  15.105   7.954  0.1573  0.1000  0.1261
  217loPI   C1B 3469  12.763  14.281   9.431  0.0240  0.0385  0.0161
  217loPI   C2B 3470  12.849  14.301   9.009 -0.0519  0.0114 -0.0787
  217loPI   C3B 3471  12.811  14.174   8.567  0.4784 -0.0324 -0.0627
  217loPI   C4B 3472  12.789  14.217   8.137 -0.1505  0.2696 -0.0490
  218loPI    C1 3473  14.409   1.651  10.284 -0.2598 -0.0594  0.0057
  218loPI    C2 3474  14.491   1.614  10.674 -0.0609 -0.0178 -0.0312
  218loPI    C3 3475  14.228   1.367  10.501 -0.2321  0.0335  0.1516
  218loPI   PO4 3476  14.667   1.650  10.174 -0.0139  0.2217  0.0376
  218loPI   GL1 3477  14.838   1.467   9.930 -0.1000  0.1449 -0.1644
  218loPI   GL2 3478  14.988   1.197  10.015  0.0886  0.0992  0.1355
  218loPI   C1A 3479  15.101   1.472   9.542  0.0504  0.0506 -0.1828
  218loPI   C2A 3480  15.322   1.609   9.254  0.0507 -0.0139  0.0419
  218loPI   C3A 3481  15.354   1.649   8.835  0.2574 -0.0610  0.1801
  218loPI   C4A 3482  15.348   1.467   8.429 -0.0863 -0.3277  0.1893
  218loPI   C5A 3483  15.395   1.667   7.992  0.4301  0.2299  0.0831
  218loPI   C6A 3484  15.254   1.870   7.552 -0.1032 -0.1171  0.1103
  218loPI   C1B 3485  14.656   1.170   9.633 -0.2483  0.0498 -0.1270
  218loPI   C2B 3486  14.418   1.201   9.399 -0.0133  0.1908 -0.0768
  218loPI   C3B 3487  14.517   1.234   8.936  0.1887  0.0023 -0.0002
  218loPI   C4B 3488  14.592   1.287   8.522 -0.2521 -0.1078 -0.1141
  219loPI    C1 3489  12.793   1.928  10.477 -0.0081 -0.3820  0.0347
  219loPI    C2 3490  12.832   1.778  10.846  0.2130 -0.3282  0.0348
  219loPI    C3 3491  13.149   1.796  10.603  0.2155  0.2185  0.0663
  219loPI   PO4 3492  12.705   2.132  10.483  0.1276  0.0225 -0.1507
  219loPI   GL1 3493  12.879   2.507  10.252  0.1643 -0.2481  0.3818
  219loPI   GL2 3494  12.598   2.412  10.001 -0.1358 -0.4756  0.2316
  219loPI   C1A 3495  12.947   2.719   9.846 -0.0345 -0.5167 -0.3233
  219loPI   C2A 3496  13.194   2.728   9.396 -0.0721 -0.1893 -0.3788
  219loPI   C3A 3497  13.265   2.601   8.936  0.0495 -0.0664  0.1853
  219loPI   C4A 3498  13.319   2.622   8.637 -0.1751  0.0461  0.0933
  219loPI   C5A 3499  13.428   2.697   8.225 -0.1172  0.2358  0.0704
  219loPI   C6A 3500  13.210   2.792   7.882  0.3527  0.0310 -0.0358
  219loPI   C1B 3501  12.834   2.269   9.623 -0.1280  0.0330  0.0660
  219loPI   C2B 3502  13.063   2.211   9.174  0.0714 -0.3388 -0.0516
  219loPI   C3B 3503  13.039   2.179   8.766 -0.3086  0.2355 -0.0257
  219loPI   C4B 3504  13.260   2.129   8.396 -0.3595  0.2223  0.0998
  220loPI    C1 3505   9.225  15.759  10.968 -0.2044  0.0130  0.2529
  220loPI    C2 3506   9.066  15.393  10.989 -0.0822 -0.0552  0.0146
  220loPI    C3 3507   9.461  15.442  11.033 -0.1057  0.0549  0.1046
  220loPI   PO4 3508   9.162  15.832  10.741  0.0468 -0.0242 -0.0388
  220loPI   GL1 3509   9.252  15.992  10.359 -0.0832  0.1555  0.0823
  220loPI   GL2 3510   9.527  16.095  10.364  0.1786  0.5334  0.2141
  220loPI   C1A 3511   9.124  15.884  10.007 -0.0436 -0.0692 -0.0095
  220loPI   C2A 3512   9.160  15.851   9.597  0.3370 -0.2771  0.0859
  220loPI   C3A 3513   9.256  15.951   9.138 -0.3874 -0.0330  0.3131
  220loPI   C4A 3514   9.311  15.907   8.632  0.1798 -0.0243 -0.0161
  220loPI   C5A 3515   9.284  15.605   8.217  0.1994 -0.2608 -0.0024
  220loPI   C6A 3516   9.451  15.287   8.198  0.1285  0.2800 -0.0407
  220loPI   C1B 3517   9.608  16.077   9.902  0.3718  0.0516 -0.2224
  220loPI   C2B 3518   9.554  16.122   9.434 -0.0126  0.0609 -0.1122
  220loPI   C3B 3519   9.665  16.229   8.973  0.0764 -0.0666  0.0886
  220loPI   C4B 3520   9.702  16.186   8.573 -0.2681  0.2563  0.0818
  221loPI    C1 3521  16.038   5.502  10.439  0.0577 -0.2579 -0.2475
  221loPI    C2 3522  15.850   5.182  10.587 -0.0496 -0.1049 -0.0485
  221loPI    C3 3523  16.099   5.393  10.819 -0.3050  0.2023 -0.0480
  221loPI   PO4 3524  15.865   5.641  10.386  0.1293  0.2503  0.0181
  221loPI   GL1 3525  15.758   5.785  10.013 -0.1543 -0.3583  0.1990
  221loPI   GL2 3526  15.666   6.080  10.132 -0.3044 -0.3260  0.1879
  221loPI   C1A 3527  16.022   5.921   9.737  0.1493 -0.3921  0.0350
  221loPI   C2A 3528  15.944   6.018   9.308  0.3644 -0.0732 -0.0593
  221loPI   C3A 3529  15.884   6.013   8.965 -0.0070  0.1398 -0.0912
  221loPI   C4A 3530  15.806   6.009   8.458  0.1059 -0.3490 -0.3389
  221loPI   C5A 3531  15.581   6.146   8.119 -0.2028 -0.2382 -0.1114
  221loPI   C6A 3532  15.147   6.192   7.928  0.1067 -0.1414 -0.1722
  221loPI   C1B 3533  15.627   6.233   9.638  0.1000 -0.1370 -0.2710
  221loPI   C2B 3534  15.415   6.042   9.325  0.0593  0.0966  0.2253
  221loPI   C3B 3535  15.349   6.115   8.889  0.0960 -0.0109 -0.1858
  221loPI   C4B 3536  15.257   6.007   8.461  0.2944 -0.2442  0.2009
  222loPI    C1 3537  12.719  14.121  10.685 -0.1730 -0.3311 -0.0338
  222loPI    C2 3538  12.484  14.226  10.991  0.0968  0.2292 -0.0039
  222loPI    C3 3539  12.854  14.090  11.060  0.0790  0.1421 -0.0766
  222loPI   PO4 3540  12.533  14.018  10.509  0.0613 -0.1974  0.1841
  222loPI   GL1 3541  12.611  13.696  10.124 -0.1070 -0.2063  0.0757
  222loPI   GL2 3542  12.590  13.386   9.996  0.1992 -0.0057 -0.0153
  222loPI   C1A 3543  12.681  13.798   9.662 -0.3416 -0.1377 -0.3478
  222loPI   C2A 3544  12.793  13.827   9.300 -0.2737 -0.1081 -0.2464
  222loPI   C3A 3545  12.756  13.725   8.865 -0.3147 -0.0505  0.0600
  222loPI   C4A 3546  12.781  13.550   8.420  0.1015  0.1422  0.4375
  222loPI   C5A 3547  12.640  13.184   8.246  0.0315  0.0909 -0.1139
  222loPI   C6A 3548  12.652  12.752   8.094  0.1992 -0.1829 -0.0450
  222loPI   C1B 3549  12.666  13.287   9.694 -0.1036  0.0535 -0.0504
  222loPI   C2B 3550  12.649  13.342   9.222 -0.2126  0.2534 -0.3129
  222loPI   C3B 3551  12.704  13.187   8.762  0.1529 -0.1528  0.1505
  222loPI   C4B 3552  12.617  12.821   8.575  0.0462  0.1665 -0.0401
  223loPI    C1 3553   7.756   2.471  10.032 -0.4605 -0.1369  0.3080
  223loPI    C2 3554   8.087   2.254   9.977 -0.2168  0.2495  0.2137
  223loPI    C3 3555   7.820   2.144  10.253 -0.0941 -0.1583  0.1764
  223loPI   PO4 3556   7.751   2.529   9.743  0.0588  0.0479  0.1124
  223loPI   GL1 3557   7.683   2.417   9.404 -0.0116 -0.0717 -0.2075
  223loPI   GL2 3558   7.682   2.164   9.254  0.0521 -0.2554  0.3944
  223loPI   C1A 3559   7.590   2.867   9.250  0.2090  0.3026  0.1916
  223loPI   C2A 3560   7.527   2.922   8.851 -0.0237  0.0088 -0.1992
  223loPI   C3A 3561   7.299   2.991   8.544  0.2159  0.0728  0.1375
  223loPI   C4A 3562   7.409   2.995   8.142  0.1082 -0.1442 -0.0626
  223loPI   C5A 3563   7.498   2.826   7.714 -0.2387  0.0650  0.0891
  223loPI   C6A 3564   7.819   2.845   7.452 -0.0262  0.0926  0.1417
  223loPI   C1B 3565   7.695   2.094   8.849 -0.1221 -0.1122  0.0326
  223loPI   C2B 3566   7.740   2.117   8.382 -0.4322 -0.1353  0.3001
  223loPI   C3B 3567   7.639   2.001   7.998 -0.1633  0.1249 -0.0326
  223loPI   C4B 3568   7.765   2.117   7.600  0.0565  0.0959 -0.0298
  224loPI    C1 3569  12.886  18.738  10.581  0.1297 -0.1151  0.0641
  224loPI    C2 3570  12.516  18.885  10.621  0.1413 -0.0362 -0.1103
  224loPI    C3 3571  12.636  18.581  10.851 -0.0434 -0.0842 -0.0760
  224loPI   PO4 3572  12.918  18.687  10.330 -0.0673 -0.1687  0.1481
  224loPI   GL1 3573  12.754  18.861   9.922 -0.0440 -0.0604 -0.3686
  224loPI   GL2 3574  12.934  18.962   9.641  0.2144  0.0825 -0.0182
  224loPI   C1A 3575  12.426  18.666   9.687  0.1817 -0.0065 -0.1801
  224loPI   C2A 3576  12.420  18.681   9.180  0.3070  0.0787  0.1247
  224loPI   C3A 3577  12.579  18.532   8.809  0.3122 -0.1229  0.1680
  224loPI   C4A 3578  12.805  18.588   8.399 -0.1146 -0.1633 -0.2914
  224loPI   C5A 3579  12.532  18.600   7.985 -0.0551  0.1332 -0.0638
  224loPI   C6A 3580  12.058  18.497   7.831  0.1599 -0.1158  0.0267
  224loPI   C1B 3581  12.783  18.981   9.142 -0.1667  0.1964  0.0771
  224loPI   C2B 3582  13.019  18.866   8.832 -0.1795  0.1824  0.2285
  224loPI   C3B 3583  13.020  19.050   8.453 -0.0546 -0.1690 -0.0596
  224loPI   C4B 3584  12.861  19.073   8.096 -0.3251 -0.2716  0.0643
  225loPI    C1 3585   1.737   8.002   9.841 -0.1493 -0.2973  0.0857
  225loPI    C2 3586   1.862   8.153  10.189 -0.1290 -0.1007 -0.0054
  225loPI    C3 3587   1.506   7.972  10.166 -0.1683 -0.0380  0.0983
  225loPI   PO4 3588   1.857   8.265   9.689 -0.3083  0.0119 -0.0518
  225loPI   GL1 3589   1.749   8.592   9.509 -0.1501 -0.3254 -0.0552
  225loPI   GL2 3590   1.810   8.893   9.338 -0.0615 -0.4915  0.2267
  225loPI   C1A 3591   1.642   8.488   9.117  0.1571 -0.1685 -0.0425
  225loPI   C2A 3592   1.567   8.475   8.767 -0.0243 -0.0054 -0.1251
  225loPI   C3A 3593   1.504   8.485   8.378 -0.1495  0.0886  0.0772
  225loPI   C4A 3594   1.481   8.536   7.978 -0.2388  0.0407 -0.0749
  225loPI   C5A 3595   1.598   8.736   7.622 -0.0175  0.0678 -0.0660
  225loPI   C6A 3596   1.550   8.941   7.267 -0.1718 -0.2600 -0.0421
  225loPI   C1B 3597   1.823   8.903   8.873  0.2157  0.1638 -0.0495
  225loPI   C2B 3598   1.813   8.954   8.459 -0.0329 -0.0777 -0.1026
  225loPI   C3B 3599   1.882   9.000   7.992 -0.0723  0.2593  0.1444
  225loPI   C4B 3600   1.918   9.223   7.668  0.0187  0.2072 -0.4586
  226loPI    C1 3601  14.395   6.826  10.071  0.0418 -0.0089  0.0540
  226loPI    C2 3602  14.779   6.939  10.093  0.0713 -0.1071  0.0466
  226loPI    C3 3603  14.520   7.055  10.375  0.1400 -0.1698  0.1362
  226loPI   PO4 3604  14.373   6.555  10.033 -0.1130 -0.2952  0.0418
  226loPI   GL1 3605  14.379   6.261   9.748 -0.3742 -0.0404 -0.0426
  226loPI   GL2 3606  14.219   6.326   9.576 -0.1357  0.1269 -0.2608
  226loPI   C1A 3607  14.452   5.838   9.513  0.1240 -0.0896  0.2234
  226loPI   C2A 3608  14.606   5.843   9.095 -0.0669  0.3994 -0.1039
  226loPI   C3A 3609  14.415   5.818   8.654  0.2752 -0.1136 -0.1741
  226loPI   C4A 3610  14.461   5.716   8.237  0.0478  0.0967 -0.1283
  226loPI   C5A 3611  14.342   5.597   7.765 -0.1039 -0.0354 -0.3068
  226loPI   C6A 3612  14.229   5.413   7.387 -0.0871  0.0331  0.4055
  226loPI   C1B 3613  14.363   6.317   9.121 -0.3782 -0.3624 -0.1390
  226loPI   C2B 3614  14.398   6.326   8.646 -0.2782  0.1297 -0.0826
  226loPI   C3B 3615  14.317   6.344   8.199 -0.1561 -0.1116  0.2753
  226loPI   C4B 3616  14.200   6.199   7.775 -0.3014  0.1763 -0.1192
  227loPI    C1 3617   0.934   1.931  10.018  0.1967 -0.2724  0.0786
  227loPI    C2 3618   0.677   2.075  10.289 -0.1738 -0.2804 -0.2590
  227loPI    C3 3619   0.913   1.765  10.382 -0.1926 -0.1922  0.0972
  227loPI   PO4 3620   0.780   1.986   9.746  0.2117  0.1981 -0.1776
  227loPI   GL1 3621   0.880   1.839   9.319  0.3631  0.2618  0.0097
  227loPI   GL2 3622   0.670   1.932   9.055  0.4307  0.1261 -0.2586
  227loPI   C1A 3623   1.228   1.893   9.009 -0.1485  0.0620  0.2455
  227loPI   C2A 3624   1.311   1.842   8.603  0.1204 -0.3701  0.0230
  227loPI   C3A 3625   1.293   1.778   8.205 -0.3581 -0.1917 -0.0848
  227loPI   C4A 3626   1.531   1.660   7.781 -0.0011  0.0782 -0.4335
  227loPI   C5A 3627   1.679   1.783   7.411  0.1512  0.3154  0.1869
  227loPI   C6A 3628   1.735   2.129   7.139  0.2669 -0.0085 -0.2713
  227loPI   C1B 3629   0.804   1.927   8.538 -0.0698 -0.0047  0.0733
  227loPI   C2B 3630   0.779   1.802   8.092  0.0523  0.0381 -0.1051
  227loPI   C3B 3631   0.594   2.002   7.671 -0.2965  0.1461  0.2586
  227loPI   C4B 3632   0.835   1.973   7.332  0.1597  0.0391  0.1946
  228loPI    C1 3633   4.503   2.473   9.907  0.1170  0.0288  0.0196
  228loPI    C2 3634   4.256   2.185  10.032  0.1079 -0.0043 -0.0738
  228loPI    C3 3635   4.484   2.381  10.296  0.0807 -0.0654 -0.0042
  228loPI   PO4 3636   4.590   2.363   9.675 -0.2863 -0.2270  0.1923
  228loPI   GL1 3637   4.345   2.178   9.281  0.0201  0.1595 -0.0203
  228loPI   GL2 3638   4.416   1.887   9.202  0.1331  0.1515 -0.0396
  228loPI   C1A 3639   4.279   2.513   8.958 -0.2757  0.1495 -0.0726
  228loPI   C2A 3640   4.180   2.754   8.622 -0.0879 -0.2102  0.0462
  228loPI   C3A 3641   4.341   2.789   8.213 -0.3705 -0.0944  0.2703
  228loPI   C4A 3642   4.239   2.993   7.860  0.1454  0.1503  0.0945
  228loPI   C5A 3643   3.833   2.797   7.774  0.1209 -0.1477  0.1223
  228loPI   C6A 3644   3.495   2.717   7.494 -0.0027 -0.1341  0.2452
  228loPI   C1B 3645   4.289   1.983   8.841  0.2764  0.0597  0.0644
  228loPI   C2B 3646   4.264   1.893   8.387  0.1464  0.2069  0.1445
  228loPI   C3B 3647   4.385   1.811   7.916 -0.2239 -0.1203 -0.0422
  228loPI   C4B 3648   4.588   1.636   7.504 -0.4498 -0.2270 -0.0512
  229loPI    C1 3649   2.342  16.676  10.010 -0.2233 -0.1024 -0.0787
  229loPI    C2 3650   2.216  16.319   9.884 -0.1099 -0.1163 -0.1543
  229loPI    C3 3651   2.261  16.388  10.275 -0.3280 -0.1181 -0.1275
  229loPI   PO4 3652   2.159  16.773   9.691 -0.0054 -0.1681  0.1059
  229loPI   GL1 3653   2.085  16.695   9.171 -0.0719 -0.1065  0.1096
  229loPI   GL2 3654   2.172  16.343   8.910 -0.0585  0.0325  0.1352
  229loPI   C1A 3655   1.787  16.662   8.813  0.1663  0.1493  0.1566
  229loPI   C2A 3656   1.749  16.660   8.424 -0.1680 -0.0618  0.1963
  229loPI   C3A 3657   1.642  16.645   8.109  0.1567 -0.2605 -0.0390
  229loPI   C4A 3658   1.472  16.675   7.820  0.6332  0.0501  0.0276
  229loPI   C5A 3659   1.128  16.860   7.548 -0.1323  0.1045 -0.1517
  229loPI   C6A 3660   0.818  17.131   7.408  0.2783 -0.1331 -0.1308
  229loPI   C1B 3661   2.299  16.177   8.521  0.0048  0.2264  0.0035
  229loPI   C2B 3662   2.006  16.246   8.112  0.2577 -0.0566  0.0727
  229loPI   C3B 3663   1.999  16.112   7.617 -0.1825 -0.2937 -0.0286
  229loPI   C4B 3664   2.165  16.412   7.229 -0.1138 -0.0164 -0.0694
  230loPI    C1 3665  17.125  13.088  10.184  0.0658 -0.2314 -0.1353
  230loPI    C2 3666  17.354  13.345  10.388  0.0793 -0.1473 -0.2559
  230loPI    C3 3667  17.125  13.083  10.584  0.0669 -0.0447 -0.1323
  230loPI   PO4 3668  17.248  12.824  10.077 -0.0799  0.0774  0.2149
  230loPI   GL1 3669  16.996  12.625   9.839  0.0509 -0.0649 -0.1113
  230loPI   GL2 3670  16.759  12.442   9.945  0.1052 -0.5509  0.1922
  230loPI   C1A 3671  17.109  12.563   9.410  0.2497 -0.0793  0.0920
  230loPI   C2A 3672  17.125  12.703   8.937  0.0845 -0.0531  0.0773
  230loPI   C3A 3673  17.388  12.786   8.487 -0.0038 -0.0670 -0.0500
  230loPI   C4A 3674  17.441  12.754   7.964  0.1875  0.2194 -0.3123
  230loPI   C5A 3675  17.564  12.902   7.508  0.2379 -0.0640  0.1521
  230loPI   C6A 3676  17.838  13.001   7.242 -0.0686  0.1406  0.1453
  230loPI   C1B 3677  16.646  12.420   9.555  0.2419 -0.1988 -0.1634
  230loPI   C2B 3678  16.676  12.534   9.151  0.0551  0.1348 -0.3282
  230loPI   C3B 3679  16.604  12.489   8.719 -0.2777 -0.0663  0.0192
  230loPI   C4B 3680  16.904  12.511   8.444 -0.2393  0.1084 -0.1982
  231loPI    C1 3681   2.005  14.931  10.035 -0.0736  0.0175 -0.0576
  231loPI    C2 3682   1.896  15.233  10.274 -0.2074  0.0382 -0.1437
  231loPI    C3 3683   2.132  14.942  10.414  0.0052  0.2347 -0.0891
  231loPI   PO4 3684   1.958  15.075   9.770  0.1630 -0.2704 -0.2412
  231loPI   GL1 3685   2.096  14.990   9.364  0.0569  0.1176  0.2292
  231loPI   GL2 3686   2.151  15.308   9.325 -0.1015  0.0409 -0.1774
  231loPI   C1A 3687   2.123  14.838   8.963  0.3820 -0.2236 -0.4532
  231loPI   C2A 3688   2.228  14.956   8.606  0.0510 -0.0372  0.0143
  231loPI   C3A 3689   2.198  14.922   8.095  0.0993 -0.1393  0.1290
  231loPI   C4A 3690   2.222  15.085   7.721 -0.2027  0.1890  0.2505
  231loPI   C5A 3691   2.307  15.092   7.242 -0.2994 -0.0047  0.0245
  231loPI   C6A 3692   2.326  15.429   6.931 -0.1904  0.5388 -0.1886
  231loPI   C1B 3693   2.103  15.335   8.930 -0.1583 -0.0126 -0.1781
  231loPI   C2B 3694   2.120  15.396   8.441  0.0615 -0.0252  0.1481
  231loPI   C3B 3695   2.124  15.511   7.944 -0.1838 -0.0888 -0.1193
  231loPI   C4B 3696   2.140  15.597   7.483  0.1572  0.2936  0.0233
  232loPI    C1 3697   4.449   3.130   9.735  0.2318  0.0806  0.0177
  232loPI    C2 3698   4.318   3.036  10.101  0.2731 -0.1767 -0.0319
  232loPI    C3 3699   4.548   3.359  10.048  0.1841 -0.0818  0.1529
  232loPI   PO4 3700   4.510   2.909   9.642 -0.3336 -0.3352  0.1333
  232loPI   GL1 3701   4.470   2.783   9.326 -0.2361 -0.1445 -0.0951
  232loPI   GL2 3702   4.811   2.701   9.231  0.0771  0.1009  0.0943
  232loPI   C1A 3703   4.005   2.904   9.156  0.1421 -0.1330  0.2473
  232loPI   C2A 3704   3.688   2.711   8.939 -0.0501  0.1203 -0.0644
  232loPI   C3A 3705   3.676   2.751   8.495  0.5257 -0.2096  0.1148
  232loPI   C4A 3706   3.873   3.058   8.204 -0.1717  0.0370  0.0141
  232loPI   C5A 3707   3.852   3.303   7.770 -0.0742 -0.2698 -0.0000
  232loPI   C6A 3708   4.199   3.446   7.532 -0.0641  0.0221 -0.3539
  232loPI   C1B 3709   4.710   2.793   8.836 -0.3967  0.6847  0.2721
  232loPI   C2B 3710   4.811   2.921   8.424 -0.4035  0.1342  0.4337
  232loPI   C3B 3711   4.729   3.153   8.047  0.2085  0.2437 -0.4376
  232loPI   C4B 3712   4.745   3.069   7.699  0.1086  0.3556  0.0901
  233loPI    C1 3713  10.687   0.877  10.248  0.0340 -0.1378 -0.0271
  233loPI    C2 3714  11.010   0.969  10.030 -0.1007  0.1910 -0.0936
  233loPI    C3 3715  10.967   1.121  10.397 -0.0780 -0.0246 -0.0003
  233loPI   PO4 3716  10.497   0.911  10.110  0.2266  0.0642  0.1212
  233loPI   GL1 3717  10.478   0.752   9.726  0.0702 -0.1920 -0.1970
  233loPI   GL2 3718  10.716   0.953   9.602 -0.0156  0.2553  0.0744
  233loPI   C1A 3719  10.372   0.562   9.318  0.0934 -0.0312  0.2135
  233loPI   C2A 3720  10.315   0.658   8.889 -0.2010 -0.1876  0.0182
  233loPI   C3A 3721  10.256   0.726   8.454  0.0131 -0.2522 -0.0258
  233loPI   C4A 3722  10.111   0.874   8.143  0.3320  0.2156  0.2858
  233loPI   C5A 3723  10.173   1.099   7.735  0.2268  0.1535 -0.1111
  233loPI   C6A 3724   9.999   1.504   7.697  0.0959 -0.0466 -0.1519
  233loPI   C1B 3725  10.638   0.942   9.161 -0.0783  0.0946 -0.2719
  233loPI   C2B 3726  10.743   0.874   8.727  0.1376  0.2373 -0.1031
  233loPI   C3B 3727  10.805   0.876   8.330 -0.0231  0.2216 -0.3164
  233loPI   C4B 3728  11.124   0.669   8.211  0.2055 -0.2444  0.0626
  234loPI    C1 3729  17.179   0.627  10.341  0.0683 -0.0022  0.0567
  234loPI    C2 3730  17.331   0.836  10.035  0.0568 -0.0938 -0.0118
  234loPI    C3 3731  17.520   0.831  10.388 -0.1568  0.3693  0.1164
  234loPI   PO4 3732  17.129   0.441  10.188 -0.1635 -0.0015 -0.3327
  234loPI   GL1 3733  17.009   0.194   9.867  0.2988  0.1715 -0.0549
  234loPI   GL2 3734  17.180   0.418   9.703 -0.0550 -0.2094 -0.2535
  234loPI   C1A 3735  16.929   0.131   9.404  0.2267  0.1361  0.0970
  234loPI   C2A 3736  16.949   0.043   8.945 -0.0510 -0.0101  0.2463
  234loPI   C3A 3737  16.804   0.023   8.656  0.1172 -0.1133 -0.0636
  234loPI   C4A 3738  16.781  -0.004   8.130 -0.3137 -0.0658 -0.0815
  234loPI   C5A 3739  17.042  -0.360   7.828  0.2202 -0.1205  0.0107
  234loPI   C6A 3740  16.918  -0.583   7.563 -0.2207  0.3465 -0.0630
  234loPI   C1B 3741  17.339   0.408   9.297 -0.1756  0.2127  0.1274
  234loPI   C2B 3742  17.276   0.377   8.799  0.0372  0.0904 -0.0330
  234loPI   C3B 3743  17.216   0.445   8.438 -0.0852  0.0309  0.2725
  234loPI   C4B 3744  17.187   0.454   7.949  0.2097 -0.0786 -0.1589
  235loPI    C1 3745  12.676   3.479  10.513  0.2378  0.3575  0.2032
  235loPI    C2 3746  12.379   3.597  10.753  0.0847  0.1525  0.1171
  235loPI    C3 3747  12.627   3.306  10.870 -0.1781 -0.1630 -0.0917
  235loPI   PO4 3748  12.692   3.738  10.352 -0.1147 -0.0812  0.0351
  235loPI   GL1 3749  12.777   4.000  10.049  0.0013  0.0992 -0.2198
  235loPI   GL2 3750  13.107   4.081   9.996  0.0927 -0.2149  0.1016
  235loPI   C1A 3751  12.821   3.804   9.578 -0.1264  0.0211  0.1091
  235loPI   C2A 3752  12.970   3.610   9.245 -0.0166  0.0978  0.1483
  235loPI   C3A 3753  12.865   3.582   8.825  0.0518 -0.1168  0.2841
  235loPI   C4A 3754  13.015   3.486   8.330 -0.0177 -0.1917  0.2085
  235loPI   C5A 3755  12.940   3.336   7.937 -0.1596 -0.2922  0.2066
  235loPI   C6A 3756  12.946   3.037   7.511 -0.0807 -0.1214 -0.0853
  235loPI   C1B 3757  13.247   4.266   9.598 -0.1639  0.2631  0.0999
  235loPI   C2B 3758  13.184   4.124   9.206 -0.1968 -0.1998 -0.1054
  235loPI   C3B 3759  13.233   4.031   8.772 -0.3381  0.2056 -0.1242
  235loPI   C4B 3760  12.963   3.967   8.436  0.0146  0.0046 -0.0494
  236loPI    C1 3761   0.980   0.057  10.235  0.0319 -0.0732 -0.3425
  236loPI    C2 3762   1.339   0.234  10.243  0.0213 -0.0551  0.2892
  236loPI    C3 3763   1.283  -0.113  10.434 -0.2723 -0.1147  0.1008
  236loPI   PO4 3764   0.916  -0.014  10.033 -0.0383 -0.0198 -0.1842
  236loPI   GL1 3765   0.757  -0.319   9.784 -0.0363  0.2119  0.1746
  236loPI   GL2 3766   0.932  -0.585   9.643  0.0323 -0.0625  0.0775
  236loPI   C1A 3767   0.451  -0.256   9.517 -0.1057  0.2760  0.3982
  236loPI   C2A 3768   0.493  -0.290   9.054  0.3061  0.1412 -0.0586
  236loPI   C3A 3769   0.538  -0.243   8.558  0.2186  0.2393 -0.2148
  236loPI   C4A 3770   0.465   0.100   8.358 -0.3357  0.1291  0.1432
  236loPI   C5A 3771   0.411   0.142   7.899 -0.0527 -0.2994  0.0662
  236loPI   C6A 3772   0.457   0.204   7.387  0.0126  0.1669  0.2040
  236loPI   C1B 3773   0.807  -0.605   9.285  0.0364 -0.0449  0.0615
  236loPI   C2B 3774   0.856  -0.584   8.763  0.0463  0.3151  0.1196
  236loPI   C3B 3775   0.819  -0.610   8.331 -0.0290 -0.0635 -0.2321
  236loPI   C4B 3776   0.721  -0.514   7.949 -0.1390 -0.0159  0.1976
  237loPI    C1 3777  11.162  16.281  10.587  0.2357 -0.0755  0.0610
  237loPI    C2 3778  11.263  16.599  10.808 -0.0822 -0.0671  0.2007
  237loPI    C3 3779  11.470  16.258  10.841  0.2244  0.1047  0.0924
  237loPI   PO4 3780  10.895  16.198  10.592  0.3437 -0.2719 -0.3471
  237loPI   GL1 3781  10.620  16.252  10.229  0.0298  0.1949 -0.3653
  237loPI   GL2 3782  10.644  15.965  10.145 -0.0027  0.3101 -0.0392
  237loPI   C1A 3783  10.614  16.416   9.852  0.0510  0.0018  0.0771
  237loPI   C2A 3784  10.558  16.308   9.362 -0.2408  0.1737  0.2629
  237loPI   C3A 3785  10.590  16.267   8.987 -0.1385 -0.0485  0.1647
  237loPI   C4A 3786  10.510  16.435   8.503 -0.2425 -0.0790 -0.1710
  237loPI   C5A 3787  10.440  16.722   8.183 -0.2600  0.1036  0.0667
  237loPI   C6A 3788  10.260  16.990   7.857 -0.0334  0.1666  0.0490
  237loPI   C1B 3789  11.028  15.989   9.754  0.3056 -0.3688  0.2538
  237loPI   C2B 3790  10.924  15.974   9.408 -0.1367 -0.0133 -0.1514
  237loPI   C3B 3791  10.970  15.946   8.998 -0.1990 -0.0714 -0.0905
  237loPI   C4B 3792  10.626  15.787   8.750  0.0139 -0.0043  0.1228
  238loPI    C1 3793   9.805   0.949  10.405 -0.0163  0.2493 -0.2374
  238loPI    C2 3794   9.603   0.818  10.086 -0.3296  0.1424 -0.0009
  238loPI    C3 3795   9.519   1.177  10.242 -0.0977  0.2438 -0.1039
  238loPI   PO4 3796  10.075   0.969  10.318  0.2870 -0.0325 -0.1887
  238loPI   GL1 3797  10.061   1.082   9.955 -0.0326 -0.3016 -0.2932
  238loPI   GL2 3798   9.817   1.138   9.695  0.0777  0.1242  0.0924
  238loPI   C1A 3799  10.269   1.146   9.503  0.0674  0.1741  0.0101
  238loPI   C2A 3800  10.165   1.154   9.130  0.0401  0.0630 -0.0099
  238loPI   C3A 3801  10.343   1.153   8.761 -0.0376  0.1587 -0.1132
  238loPI   C4A 3802  10.478   1.220   8.249  0.0335  0.0504 -0.2565
  238loPI   C5A 3803  10.679   1.188   7.817  0.1036  0.0400  0.1390
  238loPI   C6A 3804  10.539   1.241   7.439 -0.1738 -0.2195  0.3012
  238loPI   C1B 3805   9.656   1.031   9.338  0.0963 -0.1133  0.1238
  238loPI   C2B 3806   9.434   1.136   8.903 -0.4636 -0.0374  0.0836
  238loPI   C3B 3807   9.426   1.418   8.752 -0.3937  0.1487  0.1489
  238loPI   C4B 3808   9.567   1.560   8.377 -0.0754 -0.0049 -0.1206
  239loPI    C1 3809  18.175   8.907  10.077 -0.0203 -0.2808  0.0044
  239loPI    C2 3810  18.494   8.782  10.282  0.1274  0.1664  0.0584
  239loPI    C3 3811  18.138   8.808  10.462  0.1061 -0.1124  0.0608
  239loPI   PO4 3812  18.226   8.763   9.857  0.1663  0.0991  0.3917
  239loPI   GL1 3813  18.235   8.767   9.402  0.0318 -0.1663  0.1430
  239loPI   GL2 3814  18.530   8.773   9.431 -0.0956 -0.0517 -0.0730
  239loPI   C1A 3815  18.007   8.688   8.959  0.1450 -0.0576  0.0419
  239loPI   C2A 3816  18.030   8.469   8.540  0.2301  0.0334  0.2123
  239loPI   C3A 3817  18.020   8.525   8.152 -0.0537 -0.1497  0.3034
  239loPI   C4A 3818  17.927   8.322   7.638 -0.0025 -0.0269 -0.0212
  239loPI   C5A 3819  17.657   8.174   7.356  0.4203 -0.1379  0.0894
  239loPI   C6A 3820  17.374   8.078   7.025 -0.4015  0.0648 -0.0880
  239loPI   C1B 3821  18.528   8.790   9.009  0.1069  0.0838 -0.0217
  239loPI   C2B 3822  18.526   8.832   8.560 -0.0763 -0.0834  0.0883
  239loPI   C3B 3823  18.365   8.870   8.107 -0.2161  0.0365  0.1392
  239loPI   C4B 3824  18.606   9.091   7.747 -0.2701  0.0221 -0.1317
  240loPI    C1 3825   7.849   3.339  10.039  0.1900 -0.0280  0.1046
  240loPI    C2 3826   8.064   3.147  10.315  0.2201  0.2050  0.2461
  240loPI    C3 3827   7.714   2.996  10.194  0.3252 -0.0269  0.2262
  240loPI   PO4 3828   8.058   3.480   9.903 -0.1756 -0.0841 -0.1420
  240loPI   GL1 3829   8.410   3.321   9.602  0.1094  0.0529 -0.1223
  240loPI   GL2 3830   8.114   3.398   9.357 -0.2734  0.3435  0.1780
  240loPI   C1A 3831   8.533   3.474   9.115 -0.0567  0.0127 -0.0931
  240loPI   C2A 3832   8.810   3.691   8.865 -0.1010 -0.0722 -0.0536
  240loPI   C3A 3833   9.001   3.818   8.563  0.0754 -0.1205  0.2026
  240loPI   C4A 3834   9.064   3.815   8.079 -0.1123  0.2622 -0.0074
  240loPI   C5A 3835   9.139   3.815   7.700 -0.1491 -0.1997  0.0212
  240loPI   C6A 3836   9.157   4.094   7.332  0.0728  0.0317 -0.0720
  240loPI   C1B 3837   8.132   3.202   9.010 -0.0049 -0.1931  0.0251
  240loPI   C2B 3838   7.961   3.105   8.758 -0.0532 -0.1627 -0.1262
  240loPI   C3B 3839   7.818   3.019   8.437  0.0536 -0.0211  0.3223
  240loPI   C4B 3840   7.879   3.024   8.006  0.0686 -0.0283 -0.0654
  241loPI    C1 3841  11.011  15.451  10.787 -0.2404  0.1451  0.1014
  241loPI    C2 3842  10.697  15.203  10.786  0.0716 -0.2606  0.0795
  241loPI    C3 3843  10.803  15.389  11.124 -0.3010  0.0311  0.0436
  241loPI   PO4 3844  11.138  15.312  10.515  0.1216 -0.3954 -0.1862
  241loPI   GL1 3845  11.205  15.322  10.073 -0.0541  0.0542 -0.1788
  241loPI   GL2 3846  11.280  15.614   9.911  0.3596  0.1189 -0.2881
  241loPI   C1A 3847  11.177  15.145   9.685  0.2196  0.0593  0.0312
  241loPI   C2A 3848  11.224  14.989   9.284  0.0335 -0.2431  0.0279
  241loPI   C3A 3849  11.539  14.991   8.915  0.1340  0.0663 -0.0160
  241loPI   C4A 3850  11.444  15.040   8.473 -0.2016 -0.3598 -0.1129
  241loPI   C5A 3851  11.225  15.315   8.165  0.0591  0.0132 -0.1131
  241loPI   C6A 3852  11.212  15.516   7.800  0.1649 -0.2214 -0.0220
  241loPI   C1B 3853  11.325  15.611   9.498 -0.4148  0.0573 -0.0216
  241loPI   C2B 3854  11.260  15.517   9.093 -0.0000 -0.0882 -0.1660
  241loPI   C3B 3855  11.102  15.114   8.812  0.0526  0.1088  0.3640
  241loPI   C4B 3856  10.977  14.883   8.429  0.0331 -0.1773 -0.1703
  242loPI    C1 3857  18.530  11.432  10.192  0.0325 -0.2506  0.1759
  242loPI    C2 3858  18.346  11.673  10.452  0.1679  0.1862 -0.1200
  242loPI    C3 3859  18.734  11.586  10.500  0.1454  0.1103 -0.0727
  242loPI   PO4 3860  18.435  11.401  10.040 -0.0868 -0.0209 -0.0587
  242loPI   GL1 3861  18.585  11.184   9.663  0.2479  0.0980  0.0517
  242loPI   GL2 3862  18.794  11.023   9.673 -0.1222  0.0499 -0.0947
  242loPI   C1A 3863  18.592  11.471   9.300 -0.2918  0.0852  0.2577
  242loPI   C2A 3864  18.602  11.426   8.830  0.3141  0.1946  0.0424
  242loPI   C3A 3865  18.478  11.298   8.498  0.0947 -0.1060  0.0646
  242loPI   C4A 3866  18.479  11.170   8.143  0.1728 -0.1075 -0.0662
  242loPI   C5A 3867  18.208  11.176   7.752 -0.0036  0.0231  0.0718
  242loPI   C6A 3868  18.120  11.366   7.391  0.2622 -0.1997  0.2362
  242loPI   C1B 3869  18.706  10.665   9.439  0.1698  0.1179 -0.2077
  242loPI   C2B 3870  18.550  10.573   9.086 -0.2391 -0.4136 -0.0413
  242loPI   C3B 3871  18.163  10.459   8.924  0.1504  0.0294  0.2363
  242loPI   C4B 3872  17.979  10.051   8.725 -0.0429  0.1934 -0.0483
  243loPI    C1 3873   7.467   2.022   9.996 -0.0296 -0.0726  0.0441
  243loPI    C2 3874   7.242   2.222  10.259 -0.0452 -0.0150 -0.0129
  243loPI    C3 3875   7.391   1.863  10.355  0.0947  0.0825  0.1406
  243loPI   PO4 3876   7.382   2.182   9.777 -0.1512  0.2339  0.0067
  243loPI   GL1 3877   7.170   1.905   9.426 -0.0466  0.1782  0.2722
  243loPI   GL2 3878   7.471   1.782   9.443 -0.0494 -0.3638 -0.4452
  243loPI   C1A 3879   7.236   1.826   8.979  0.1715  0.0826 -0.3111
  243loPI   C2A 3880   7.379   1.769   8.607 -0.2409 -0.0158 -0.2790
  243loPI   C3A 3881   7.288   1.549   8.151 -0.2053 -0.0629 -0.1423
  243loPI   C4A 3882   7.348   1.482   7.725 -0.3087  0.1516 -0.3529
  243loPI   C5A 3883   7.636   1.653   7.418 -0.1021 -0.1599 -0.0331
  243loPI   C6A 3884   7.997   1.751   7.301  0.0890 -0.3230  0.3858
  243loPI   C1B 3885   7.701   1.576   9.043  0.3642  0.0502  0.0590
  243loPI   C2B 3886   7.879   1.601   8.651 -0.2283 -0.2401 -0.1283
  243loPI   C3B 3887   7.915   1.662   8.226  0.0739 -0.0253 -0.0508
  243loPI   C4B 3888   7.959   1.636   7.792 -0.1328  0.2594 -0.1747
  244loPI    C1 3889  10.190   2.182  10.043 -0.0520  0.0310 -0.0686
  244loPI    C2 3890   9.968   2.389  10.304  0.1460  0.1375  0.0177
  244loPI    C3 3891   9.984   1.990  10.326  0.0920  0.1404  0.1127
  244loPI   PO4 3892  10.389   2.349  10.048 -0.2786  0.0458 -0.1245
  244loPI   GL1 3893  10.490   2.668   9.760 -0.1493  0.1257 -0.0988
  244loPI   GL2 3894  10.769   2.552   9.768 -0.0475 -0.1091 -0.0753
  244loPI   C1A 3895  10.503   2.793   9.297  0.1784  0.3346 -0.0522
  244loPI   C2A 3896  10.528   2.694   8.958  0.0552  0.1937 -0.0111
  244loPI   C3A 3897  10.451   2.657   8.475  0.2436  0.0267 -0.0768
  244loPI   C4A 3898  10.514   2.788   8.050 -0.1215  0.0516 -0.0690
  244loPI   C5A 3899  10.802   3.006   7.737 -0.2208  0.0861 -0.3057
  244loPI   C6A 3900  11.199   3.087   7.760  0.0499  0.0009  0.0491
  244loPI   C1B 3901  10.799   2.437   9.348 -0.1812  0.0609 -0.1857
  244loPI   C2B 3902  10.910   2.345   8.930  0.1038  0.1131  0.4757
  244loPI   C3B 3903  10.971   2.420   8.486 -0.1583 -0.2581 -0.1357
  244loPI   C4B 3904  10.991   2.660   8.089  0.1067 -0.0511 -0.0621
  245loPI    C1 3905   6.634   5.966   9.944 -0.0720  0.3672 -0.1906
  245loPI    C2 3906   6.235   5.986   9.972 -0.0664  0.2887 -0.0422
  245loPI    C3 3907   6.438   5.727  10.198  0.0638  0.2810 -0.1664
  245loPI   PO4 3908   6.676   5.923   9.644  0.3212  0.0175  0.2084
  245loPI   GL1 3909   6.746   5.975   9.326 -0.1799 -0.1634  0.0061
  245loPI   GL2 3910   6.915   6.260   9.338 -0.0369 -0.0874 -0.0179
  245loPI   C1A 3911   6.623   5.942   8.949  0.1403 -0.0518 -0.2126
  245loPI   C2A 3912   6.641   5.976   8.530 -0.0085 -0.0058  0.0195
  245loPI   C3A 3913   6.599   5.751   8.076 -0.1185  0.1010  0.0771
  245loPI   C4A 3914   6.843   5.426   7.846 -0.2679  0.1856  0.0810
  245loPI   C5A 3915   6.657   5.113   7.603  0.1383  0.2132  0.2634
  245loPI   C6A 3916   6.327   5.159   7.362  0.2454 -0.0847 -0.0676
  245loPI   C1B 3917   7.234   6.029   9.064 -0.0851 -0.1707  0.1230
  245loPI   C2B 3918   7.604   5.965   8.763 -0.6432 -0.0403  0.0436
  245loPI   C3B 3919   7.555   5.720   8.393 -0.1046  0.0877 -0.0297
  245loPI   C4B 3920   7.640   5.754   8.020  0.0810 -0.3251  0.2969
  246loPI    C1 3921   3.751   0.242   9.913 -0.0669 -0.0641 -0.0568
  246loPI    C2 3922   3.794   0.471   9.588  0.0188 -0.0417 -0.0300
  246loPI    C3 3923   3.910   0.608   9.946  0.1442 -0.1575 -0.0257
  246loPI   PO4 3924   3.840   0.017   9.806  0.1502 -0.2018 -0.1229
  246loPI   GL1 3925   3.743  -0.116   9.352 -0.3119  0.1337  0.1053
  246loPI   GL2 3926   3.498  -0.020   9.314 -0.1105  0.2670  0.0874
  246loPI   C1A 3927   4.061   0.105   9.072 -0.1533  0.1332 -0.2374
  246loPI   C2A 3928   4.415   0.232   8.797 -0.0032 -0.2373  0.2306
  246loPI   C3A 3929   4.342   0.279   8.368  0.0955 -0.2212 -0.0602
  246loPI   C4A 3930   4.169   0.370   7.949 -0.0531  0.2400  0.0323
  246loPI   C5A 3931   3.839   0.164   7.638  0.2198 -0.0669 -0.1425
  246loPI   C6A 3932   3.446   0.351   7.448  0.0670  0.2963 -0.1051
  246loPI   C1B 3933   3.587   0.121   8.847  0.1120 -0.1435 -0.1126
  246loPI   C2B 3934   3.489   0.107   8.415 -0.2046 -0.1311 -0.0520
  246loPI   C3B 3935   3.544   0.113   8.072  0.3591  0.0417 -0.0280
  246loPI   C4B 3936   3.373  -0.007   7.790 -0.1137 -0.1136 -0.1138
  247loPI    C1 3937  14.780  17.890  10.865 -0.1749  0.0627  0.0855
  247loPI    C2 3938  14.746  18.279  10.951  0.1844  0.0748  0.1923
  247loPI    C3 3939  14.954  18.038  11.193  0.4080 -0.0798 -0.1463
  247loPI   PO4 3940  14.607  17.771  10.652  0.0318 -0.0824  0.1841
  247loPI   GL1 3941  14.635  17.667  10.108  0.3519 -0.1059 -0.0437
  247loPI   GL2 3942  14.595  17.349   9.999 -0.2391  0.0295 -0.1270
  247loPI   C1A 3943  14.731  17.648   9.648  0.3565 -0.0271  0.3074
  247loPI   C2A 3944  14.860  17.675   9.218 -0.1363 -0.1625  0.0652
  247loPI   C3A 3945  15.122  17.746   8.890 -0.1207 -0.0061 -0.3132
  247loPI   C4A 3946  15.158  17.776   8.373  0.2051  0.1685 -0.1212
  247loPI   C5A 3947  15.007  17.626   7.967 -0.1067 -0.3174 -0.0441
  247loPI   C6A 3948  14.796  17.382   7.779  0.0795  0.0408 -0.2331
  247loPI   C1B 3949  14.753  17.174   9.592  0.0057 -0.1838 -0.1023
  247loPI   C2B 3950  14.780  17.166   9.102 -0.2541 -0.1448  0.0375
  247loPI   C3B 3951  14.949  17.225   8.699  0.0541  0.0771 -0.1582
  247loPI   C4B 3952  14.891  17.162   8.210  0.1010  0.5107 -0.0395
  248loPI    C1 3953   8.179  17.155  10.100 -0.1945  0.0189  0.1447
  248loPI    C2 3954   8.331  16.823  10.264 -0.1556 -0.0154  0.0393
  248loPI    C3 3955   8.459  17.182  10.385  0.0245 -0.0440 -0.0617
  248loPI   PO4 3956   8.223  17.064   9.794 -0.2313 -0.2156  0.0353
  248loPI   GL1 3957   8.317  17.146   9.396 -0.2531  0.1118  0.0523
  248loPI   GL2 3958   8.599  17.110   9.466 -0.1061  0.0254  0.1820
  248loPI   C1A 3959   8.293  17.050   8.942 -0.0523  0.3415 -0.0481
  248loPI   C2A 3960   8.082  17.195   8.551 -0.2760 -0.2686  0.3003
  248loPI   C3A 3961   7.908  17.166   8.124 -0.0968  0.2947  0.0697
  248loPI   C4A 3962   7.674  17.019   7.765 -0.0781  0.0012  0.0617
  248loPI   C5A 3963   7.515  17.338   7.525  0.3199  0.0078 -0.2713
  248loPI   C6A 3964   7.625  17.550   7.136 -0.0570  0.3065  0.1473
  248loPI   C1B 3965   8.726  17.046   9.163  0.0321  0.2271  0.2188
  248loPI   C2B 3966   8.763  16.945   8.804 -0.5588 -0.1050 -0.2338
  248loPI   C3B 3967   8.628  17.077   8.439 -0.1824  0.1073  0.0962
  248loPI   C4B 3968   8.436  17.371   8.066  0.1693 -0.1850 -0.1635
  249loPI    C1 3969   1.474   2.504   9.825 -0.2862  0.1611  0.1974
  249loPI    C2 3970   1.422   2.566  10.217 -0.0709 -0.1821  0.2845
  249loPI    C3 3971   1.519   2.201  10.083 -0.2757 -0.0997 -0.1040
  249loPI   PO4 3972   1.242   2.591   9.716  0.0501 -0.0174 -0.1440
  249loPI   GL1 3973   0.895   2.388   9.483 -0.2076  0.2381  0.0447
  249loPI   GL2 3974   1.227   2.337   9.276 -0.4645 -0.0686  0.0783
  249loPI   C1A 3975   0.673   2.415   9.103 -0.1025 -0.0148 -0.1770
  249loPI   C2A 3976   0.522   2.260   8.745  0.0516  0.1557  0.1778
  249loPI   C3A 3977   0.515   2.246   8.271 -0.1096  0.1647 -0.2079
  249loPI   C4A 3978   0.487   2.393   7.856 -0.3660  0.2388  0.0222
  249loPI   C5A 3979   0.260   2.468   7.396  0.2314 -0.2837  0.0296
  249loPI   C6A 3980  -0.158   2.477   7.202 -0.0789 -0.2248 -0.1789
  249loPI   C1B 3981   1.141   2.355   8.799 -0.1928  0.1719 -0.0356
  249loPI   C2B 3982   1.112   2.262   8.356 -0.3792  0.2569 -0.2013
  249loPI   C3B 3983   1.058   2.309   7.856 -0.0188  0.0330 -0.1297
  249loPI   C4B 3984   0.836   2.412   7.532 -0.1267  0.3779  0.1489
  250loPI    C1 3985   1.437  13.045   9.996 -0.0991  0.2969 -0.1206
  250loPI    C2 3986   1.169  12.789   9.843  0.0190 -0.0574  0.2465
  250loPI    C3 3987   1.113  13.184   9.808 -0.3255 -0.1287 -0.0576
  250loPI   PO4 3988   1.667  12.908   9.827  0.0693 -0.0201 -0.0972
  250loPI   GL1 3989   1.472  12.774   9.408 -0.2210  0.1560  0.0633
  250loPI   GL2 3990   1.772  12.593   9.479 -0.2918  0.2285 -0.2270
  250loPI   C1A 3991   1.568  12.538   9.021  0.2446 -0.1144  0.1171
  250loPI   C2A 3992   1.770  12.375   8.652 -0.0595 -0.4725  0.0126
  250loPI   C3A 3993   1.582  12.268   8.328 -0.0317 -0.3568 -0.1215
  250loPI   C4A 3994   1.674  12.360   7.948 -0.0155 -0.2842  0.0359
  250loPI   C5A 3995   1.543  12.380   7.555 -0.0361  0.2307 -0.0372
  250loPI   C6A 3996   1.241  12.298   7.311  0.0384 -0.0614 -0.1227
  250loPI   C1B 3997   2.099  12.492   9.125  0.2156  0.0335  0.0132
  250loPI   C2B 3998   2.324  12.555   8.718  0.0617  0.2124  0.0650
  250loPI   C3B 3999   2.566  12.458   8.434  0.2210 -0.2222  0.0001
  250loPI   C4B 4000   2.559  12.139   8.001  0.3756 -0.2752 -0.1934
  251loPI    C1 4001  13.270   6.970  10.487  0.4078  0.0526  0.1655
  251loPI    C2 4002  13.275   6.575  10.548 -0.2061  0.0346  0.1626
  251loPI    C3 4003  13.160   6.821  10.841 -0.0774  0.1944  0.0811
  251loPI   PO4 4004  13.174   7.028  10.225 -0.2149  0.1002  0.2544
  251loPI   GL1 4005  13.056   6.988   9.754 -0.0651  0.0047  0.2499
  251loPI   GL2 4006  13.269   6.774   9.778 -0.0235 -0.2891  0.0560
  251loPI   C1A 4007  13.108   7.113   9.372 -0.1083  0.0218 -0.0909
  251loPI   C2A 4008  13.344   7.339   9.061  0.1115  0.0901  0.0730
  251loPI   C3A 4009  13.355   7.206   8.614  0.1122 -0.3310 -0.0647
  251loPI   C4A 4010  13.716   6.875   8.506  0.2234 -0.1788  0.2701
  251loPI   C5A 4011  13.935   6.712   8.126  0.0447 -0.2154 -0.2077
  251loPI   C6A 4012  14.175   6.734   7.743 -0.1268  0.1009  0.0915
  251loPI   C1B 4013  13.175   6.608   9.404 -0.1414 -0.2670  0.0538
  251loPI   C2B 4014  12.984   6.337   9.169  0.1022  0.1974 -0.2808
  251loPI   C3B 4015  13.060   6.014   8.821  0.2919  0.0235  0.0882
  251loPI   C4B 4016  12.975   5.999   8.352  0.1127 -0.1736 -0.1004
  252loPI    C1 4017   7.235   6.913   9.820 -0.1435 -0.0897  0.1163
  252loPI    C2 4018   6.949   6.796  10.074 -0.0954 -0.1210  0.1562
  252loPI    C3 4019   7.332   6.795  10.190 -0.0711 -0.1580  0.0758
  252loPI   PO4 4020   7.253   6.588   9.607 -0.2407 -0.1162 -0.0965
  252loPI   GL1 4021   7.426   6.454   9.235  0.0788  0.1980 -0.1406
  252loPI   GL2 4022   7.763   6.669   9.200  0.1172 -0.0266 -0.0251
  252loPI   C1A 4023   7.498   6.479   8.811  0.3010  0.0944 -0.0735
  252loPI   C2A 4024   7.467   6.387   8.384 -0.0409 -0.1201 -0.0907
  252loPI   C3A 4025   7.521   6.274   7.920 -0.0879  0.4206  0.2023
  252loPI   C4A 4026   7.616   6.210   7.520  0.2676  0.2261 -0.0389
  252loPI   C5A 4027   7.526   6.081   7.045 -0.0073  0.1273  0.3291
  252loPI   C6A 4028   7.275   6.190   6.736 -0.0742  0.0045  0.3167
  252loPI   C1B 4029   7.716   6.923   8.858 -0.2747  0.0652  0.3570
  252loPI   C2B 4030   7.774   6.960   8.436 -0.0448 -0.0152  0.0191
  252loPI   C3B 4031   7.750   7.062   8.009 -0.0407 -0.0897 -0.1197
  252loPI   C4B 4032   7.810   7.187   7.633 -0.2406  0.0636  0.0982
  253loPI    C1 4033   0.539  13.144  10.030 -0.0561  0.2720 -0.0840
  253loPI    C2 4034   0.853  13.052  10.258 -0.1846 -0.4072 -0.1605
  253loPI    C3 4035   0.489  13.078  10.421 -0.1415  0.0799 -0.1264
  253loPI   PO4 4036   0.644  13.018   9.771 -0.1439  0.1971  0.0698
  253loPI   GL1 4037   0.800  13.175   9.388  0.1225  0.1362  0.0091
  253loPI   GL2 4038   0.992  12.906   9.346  0.1257 -0.0168  0.0545
  253loPI   C1A 4039   0.675  13.127   8.935 -0.2003  0.0634 -0.0688
  253loPI   C2A 4040   0.850  12.972   8.620  0.0514  0.1323  0.1210
  253loPI   C3A 4041   0.859  12.772   8.268 -0.0062  0.2400 -0.2421
  253loPI   C4A 4042   1.117  12.527   8.077 -0.2470  0.0909  0.2765
  253loPI   C5A 4043   1.170  12.243   7.836 -0.3142  0.0472  0.0870
  253loPI   C6A 4044   1.131  11.889   7.620  0.2666 -0.0619 -0.0993
  253loPI   C1B 4045   1.028  12.626   8.954 -0.0512 -0.0128 -0.1754
  253loPI   C2B 4046   1.279  12.596   8.585  0.0721  0.0869 -0.1769
  253loPI   C3B 4047   1.493  12.857   8.174 -0.0709 -0.1075  0.1972
  253loPI   C4B 4048   1.822  12.826   7.751  0.3184  0.1207  0.1079
  254loPI    C1 4049   5.963  15.779  10.156 -0.1581  0.2383  0.1907
  254loPI    C2 4050   5.741  15.944  10.445 -0.0833  0.4565  0.1255
  254loPI    C3 4051   5.985  16.172  10.225 -0.0035  0.2627  0.0101
  254loPI   PO4 4052   5.802  15.673   9.913  0.3198 -0.1580 -0.0008
  254loPI   GL1 4053   5.462  15.562   9.755  0.0976 -0.2514  0.0671
  254loPI   GL2 4054   5.477  15.867   9.553 -0.0115 -0.1833  0.1540
  254loPI   C1A 4055   5.704  15.464   9.327  0.0046 -0.0364  0.1820
  254loPI   C2A 4056   5.830  15.540   8.891 -0.2041  0.0932  0.0597
  254loPI   C3A 4057   5.670  15.486   8.599 -0.2795  0.3408 -0.2408
  254loPI   C4A 4058   5.531  15.614   8.115 -0.1308  0.1065 -0.1562
  254loPI   C5A 4059   5.303  15.689   7.671  0.3337  0.1980 -0.2372
  254loPI   C6A 4060   5.121  15.902   7.378  0.1697 -0.0374 -0.1483
  254loPI   C1B 4061   5.744  16.004   9.245 -0.1002 -0.1786 -0.0346
  254loPI   C2B 4062   5.853  16.048   8.821  0.2941  0.2631 -0.1335
  254loPI   C3B 4063   5.890  15.930   8.429 -0.1661  0.3757  0.4488
  254loPI   C4B 4064   6.253  15.832   8.043 -0.0022  0.1562  0.1042
  255loPI    C1 4065   1.008   3.362  10.280 -0.1612 -0.0964 -0.0973
  255loPI    C2 4066   1.377   3.429  10.419  0.0239 -0.2567 -0.4924
  255loPI    C3 4067   1.199   3.077  10.486 -0.2145 -0.0498  0.0168
  255loPI   PO4 4068   1.035   3.556  10.064 -0.3502 -0.1440  0.2035
  255loPI   GL1 4069   1.034   3.465   9.589 -0.0933 -0.1893  0.1307
  255loPI   GL2 4070   0.780   3.764   9.586  0.3502 -0.1849  0.0292
  255loPI   C1A 4071   0.659   3.340   9.290  0.0974  0.1285 -0.0482
  255loPI   C2A 4072   0.588   3.300   8.808 -0.1571 -0.1180  0.1442
  255loPI   C3A 4073   0.726   3.090   8.411  0.3530 -0.1493  0.2230
  255loPI   C4A 4074   0.599   3.135   8.055  0.0298  0.1555 -0.1384
  255loPI   C5A 4075   0.477   3.301   7.723 -0.0163  0.1820 -0.0158
  255loPI   C6A 4076   0.276   3.676   7.395  0.0579 -0.0247  0.0368
  255loPI   C1B 4077   0.492   3.852   9.284 -0.2057 -0.2242  0.1264
  255loPI   C2B 4078   0.424   3.728   8.934 -0.1376  0.1236  0.2853
  255loPI   C3B 4079   0.353   3.854   8.512  0.0954  0.0350  0.0058
  255loPI   C4B 4080   0.399   3.862   7.898  0.2173  0.1571 -0.1828
  256loPI    C1 4081  15.208  13.252  10.945 -0.0340  0.1229  0.1148
  256loPI    C2 4082  14.838  13.177  10.813  0.0310 -0.1789  0.0960
  256loPI    C3 4083  14.930  13.111  11.196  0.0724 -0.1288  0.0947
  256loPI   PO4 4084  15.344  13.144  10.792 -0.4320  0.0653 -0.1861
  256loPI   GL1 4085  15.598  13.051  10.339 -0.1266  0.1513  0.3185
  256loPI   GL2 4086  15.924  13.022  10.121 -0.0789 -0.1317 -0.1302
  256loPI   C1A 4087  15.505  13.307   9.975  0.1116  0.1599 -0.1353
  256loPI   C2A 4088  15.400  13.446   9.654 -0.0779  0.1637 -0.1149
  256loPI   C3A 4089  15.427  13.403   9.181 -0.3785  0.6254 -0.0045
  256loPI   C4A 4090  15.409  13.432   8.757  0.3307  0.2341  0.3164
  256loPI   C5A 4091  15.441  13.412   8.398 -0.1923 -0.3865  0.1739
  256loPI   C6A 4092  15.669  13.623   8.166 -0.0693 -0.3126 -0.0452
  256loPI   C1B 4093  15.836  12.929   9.689  0.3269 -0.0610  0.0640
  256loPI   C2B 4094  15.776  13.069   9.229 -0.0758 -0.2299 -0.0176
  256loPI   C3B 4095  15.820  13.124   8.776  0.1438  0.1909  0.0689
  256loPI   C4B 4096  15.966  13.186   8.382 -0.0438  0.3271 -0.1992
  257loPI    C1 4097  13.090   0.376  10.150  0.0061 -0.3060  0.0881
  257loPI    C2 4098  13.061   0.402  10.548 -0.1066 -0.0176  0.0635
  257loPI    C3 4099  12.733   0.432  10.321 -0.0102  0.0913 -0.0636
  257loPI   PO4 4100  13.199   0.526  10.048  0.0551  0.0298  0.0020
  257loPI   GL1 4101  13.433   0.298   9.639  0.0153 -0.0266  0.0179
  257loPI   GL2 4102  13.702   0.254   9.654  0.5604 -0.3032  0.1273
  257loPI   C1A 4103  13.368   0.204   9.145  0.1150  0.3259  0.0476
  257loPI   C2A 4104  13.443   0.425   8.705  0.0756  0.3629  0.1721
  257loPI   C3A 4105  13.547   0.490   8.248 -0.0170  0.2220 -0.1795
  257loPI   C4A 4106  13.295   0.623   7.979  0.0104  0.1558 -0.2704
  257loPI   C5A 4107  13.340   0.782   7.531 -0.1520  0.0834 -0.1077
  257loPI   C6A 4108  13.451   0.544   7.163  0.0264  0.1636 -0.0846
  257loPI   C1B 4109  13.877   0.300   9.255 -0.0658 -0.1163  0.3396
  257loPI   C2B 4110  14.017   0.405   8.840  0.0422  0.1651 -0.3944
  257loPI   C3B 4111  14.046   0.361   8.495 -0.1726  0.0385  0.0567
  257loPI   C4B 4112  14.133   0.555   8.117  0.0806  0.0403  0.3302
  258loPI    C1 4113  11.003  18.096  10.698 -0.0395 -0.2019  0.0451
  258loPI    C2 4114  11.008  17.836  11.002 -0.1479 -0.1227  0.1156
  258loPI    C3 4115  11.107  18.218  11.064 -0.0476 -0.1333  0.0247
  258loPI   PO4 4116  10.884  18.029  10.442  0.1169 -0.0191  0.2691
  258loPI   GL1 4117  10.843  18.124  10.091 -0.4454 -0.1306  0.1365
  258loPI   GL2 4118  10.614  18.300   9.937  0.3143  0.2981 -0.1405
  258loPI   C1A 4119  11.111  18.392   9.801  0.3822 -0.0847 -0.0653
  258loPI   C2A 4120  11.125  18.385   9.347  0.0057 -0.0186 -0.0387
  258loPI   C3A 4121  11.197  18.378   8.987 -0.2582 -0.3377 -0.3773
  258loPI   C4A 4122  11.276  18.206   8.511 -0.1334  0.3131 -0.0116
  258loPI   C5A 4123  11.466  18.190   8.113 -0.0149  0.0471  0.0146
  258loPI   C6A 4124  11.357  17.977   7.710  0.1667  0.1347  0.0037
  258loPI   C1B 4125  10.653  18.527   9.545 -0.0525  0.1561  0.0700
  258loPI   C2B 4126  10.663  18.739   9.236 -0.1729  0.0836  0.2962
  258loPI   C3B 4127  10.385  18.975   8.948  0.2093 -0.0153  0.0556
  258loPI   C4B 4128  10.195  19.069   8.570  0.0673 -0.2115  0.0126
  259loPI    C1 4129   8.378   7.294   9.975  0.0656  0.1873  0.1221
  259loPI    C2 4130   8.704   7.523   9.944  0.1882  0.0523  0.3805
  259loPI    C3 4131   8.649   7.296  10.269  0.0037 -0.1845  0.1877
  259loPI   PO4 4132   8.209   7.453   9.777  0.2491 -0.0871  0.0583
  259loPI   GL1 4133   8.136   7.380   9.412 -0.0930  0.0944  0.0998
  259loPI   GL2 4134   8.021   7.726   9.365 -0.1729 -0.2921  0.0635
  259loPI   C1A 4135   8.108   7.292   8.964  0.2212  0.1982  0.1310
  259loPI   C2A 4136   8.188   7.372   8.455 -0.2897  0.1302  0.0470
  259loPI   C3A 4137   8.236   7.369   7.979 -0.0183 -0.0196 -0.3411
  259loPI   C4A 4138   8.186   7.531   7.598 -0.0040  0.0929  0.0708
  259loPI   C5A 4139   8.119   7.671   7.208  0.2240 -0.6104 -0.2672
  259loPI   C6A 4140   8.236   7.693   6.800  0.0623 -0.4329  0.1721
  259loPI   C1B 4141   8.134   7.767   8.870 -0.0075  0.1741 -0.1549
  259loPI   C2B 4142   8.336   7.927   8.492  0.4935  0.2158  0.0751
  259loPI   C3B 4143   8.417   8.171   8.152  0.2795  0.0530 -0.2304
  259loPI   C4B 4144   8.609   8.380   7.742 -0.1769  0.3899  0.0264
  260loPI    C1 4145   5.522   7.996  10.061 -0.0024  0.2651 -0.0451
  260loPI    C2 4146   5.268   7.687  10.068  0.0528  0.2205  0.0025
  260loPI    C3 4147   5.315   7.915  10.394  0.2400  0.0916  0.0676
  260loPI   PO4 4148   5.472   8.125   9.806 -0.1068 -0.2089  0.0839
  260loPI   GL1 4149   5.445   8.081   9.357  0.1053  0.2865  0.1017
  260loPI   GL2 4150   5.413   8.391   9.122  0.1069  0.2517 -0.0639
  260loPI   C1A 4151   5.120   7.959   8.972 -0.0421 -0.4717  0.0617
  260loPI   C2A 4152   5.224   7.895   8.510 -0.0589 -0.1779  0.0877
  260loPI   C3A 4153   5.356   8.045   8.096  0.3153  0.3624  0.0761
  260loPI   C4A 4154   5.521   8.334   7.837  0.1195 -0.3067 -0.1629
  260loPI   C5A 4155   5.769   8.282   7.434  0.1029 -0.2948 -0.1856
  260loPI   C6A 4156   5.754   8.126   7.049 -0.0770  0.1752 -0.1362
  260loPI   C1B 4157   5.459   8.417   8.666 -0.4647 -0.0528 -0.5037
  260loPI   C2B 4158   5.713   8.375   8.377 -0.1507 -0.0300 -0.2819
  260loPI   C3B 4159   5.948   8.138   8.119 -0.0047  0.2351 -0.1988
  260loPI   C4B 4160   6.036   7.971   7.808 -0.3532 -0.0538  0.0761
  261loPI    C1 4161   0.303   9.757  10.251  0.0391 -0.2798 -0.1599
  261loPI    C2 4162  -0.085   9.842  10.303  0.1145 -0.0130 -0.0147
  261loPI    C3 4163   0.143   9.745  10.618  0.2659  0.2766 -0.0310
  261loPI   PO4 4164   0.214   9.819   9.889 -0.2097 -0.0071 -0.2729
  261loPI   GL1 4165   0.200  10.050   9.626  0.1011  0.0224  0.0281
  261loPI   GL2 4166   0.099  10.349   9.774 -0.0527  0.1204 -0.0270
  261loPI   C1A 4167   0.018  10.099   9.246 -0.0380 -0.3610 -0.0712
  261loPI   C2A 4168  -0.166   9.981   8.899 -0.0975 -0.0774 -0.0734
  261loPI   C3A 4169  -0.532   9.674   8.874 -0.3310  0.0986 -0.3363
  261loPI   C4A 4170  -0.621   9.536   8.512 -0.2341 -0.0338 -0.1392
  261loPI   C5A 4171  -0.616   9.279   8.041  0.0444 -0.1763  0.1738
  261loPI   C6A 4172  -0.675   9.336   7.624 -0.1501 -0.1466 -0.0303
  261loPI   C1B 4173  -0.347  10.266   9.466  0.2040  0.1841 -0.1186
  261loPI   C2B 4174  -0.690  10.067   9.264 -0.3360 -0.0774 -0.3490
  261loPI   C3B 4175  -0.837   9.639   9.260 -0.0228  0.1880  0.0496
  261loPI   C4B 4176  -0.990   9.471   9.055  0.2707  0.1779  0.2446
  262loPI    C1 4177  16.374   8.501  10.381 -0.0171  0.0558  0.0782
  262loPI    C2 4178  16.001   8.547  10.516  0.0382  0.2408  0.1720
  262loPI    C3 4179  16.253   8.300  10.704 -0.0631  0.0458  0.0546
  262loPI   PO4 4180  16.356   8.442  10.112  0.0392 -0.0327 -0.0104
  262loPI   GL1 4181  16.350   8.565   9.651 -0.1421  0.3132 -0.0150
  262loPI   GL2 4182  16.724   8.448   9.599  0.0725 -0.2681  0.4399
  262loPI   C1A 4183  16.065   8.322   9.399 -0.0528 -0.1635 -0.2914
  262loPI   C2A 4184  15.714   8.250   9.103 -0.2808 -0.1982  0.0775
  262loPI   C3A 4185  15.675   8.204   8.660  0.1899  0.0644  0.3780
  262loPI   C4A 4186  15.485   7.947   8.361  0.0076 -0.0281 -0.0634
  262loPI   C5A 4187  15.153   7.894   8.124  0.0736 -0.3862  0.1865
  262loPI   C6A 4188  14.808   8.078   7.933  0.0062 -0.0358 -0.1186
  262loPI   C1B 4189  16.546   8.380   9.213 -0.0765 -0.0199  0.3109
  262loPI   C2B 4190  16.194   8.240   8.946  0.1639  0.0983 -0.1329
  262loPI   C3B 4191  16.097   8.271   8.450 -0.0038  0.0103 -0.1318
  262loPI   C4B 4192  16.290   8.341   8.082 -0.1207  0.0567  0.1301
  263loPI    C1 4193   9.216   5.642  10.204 -0.0157 -0.0084  0.2055
  263loPI    C2 4194   8.944   5.560  10.486 -0.1975 -0.0995  0.0070
  263loPI    C3 4195   8.832   5.739  10.146 -0.0221 -0.2087 -0.1099
  263loPI   PO4 4196   9.309   5.458  10.080  0.3497  0.0476 -0.2312
  263loPI   GL1 4197   9.362   5.216   9.724 -0.1033 -0.2325 -0.0683
  263loPI   GL2 4198   9.080   5.119   9.778  0.3056  0.0649 -0.0495
  263loPI   C1A 4199   9.362   5.175   9.296  0.3043  0.0367  0.0021
  263loPI   C2A 4200   9.424   5.198   8.813  0.5309  0.2666 -0.1434
  263loPI   C3A 4201   9.407   4.951   8.419  0.1464  0.0667  0.0495
  263loPI   C4A 4202   9.108   4.932   8.035 -0.1553 -0.0184  0.0185
  263loPI   C5A 4203   8.945   4.823   7.635 -0.2010  0.0254  0.1858
  263loPI   C6A 4204   8.523   4.753   7.493  0.0630  0.0778  0.2736
  263loPI   C1B 4205   9.009   4.816   9.397 -0.1704  0.0427  0.0048
  263loPI   C2B 4206   9.111   4.797   9.019 -0.2348  0.0334 -0.0345
  263loPI   C3B 4207   9.070   4.612   8.546  0.1394 -0.1522 -0.1592
  263loPI   C4B 4208   9.326   4.570   8.189 -0.0146  0.0230 -0.0640
  264loPI    C1 4209  13.758  16.684  10.633  0.0987  0.0876  0.1040
  264loPI    C2 4210  13.897  16.492  10.956 -0.1012 -0.1165  0.0718
  264loPI    C3 4211  13.638  16.794  10.999  0.0665  0.0231  0.1132
  264loPI   PO4 4212  13.685  16.514  10.510 -0.1078 -0.1207 -0.2678
  264loPI   GL1 4213  13.901  16.546  10.091  0.2356  0.0992  0.0046
  264loPI   GL2 4214  13.734  16.792   9.727  0.2635  0.0059 -0.2965
  264loPI   C1A 4215  13.996  16.394   9.671 -0.1961  0.0954  0.0518
  264loPI   C2A 4216  14.048  16.297   9.234  0.5024  0.0103 -0.2143
  264loPI   C3A 4217  14.023  16.327   8.774 -0.0255 -0.2854 -0.2204
  264loPI   C4A 4218  14.134  16.445   8.383 -0.2889 -0.0151 -0.0948
  264loPI   C5A 4219  14.346  16.812   8.241 -0.0356  0.0930  0.1007
  264loPI   C6A 4220  14.657  16.880   7.840  0.0567 -0.1223  0.1534
  264loPI   C1B 4221  13.950  16.824   9.364 -0.1755 -0.1601  0.2019
  264loPI   C2B 4222  13.919  16.803   8.911  0.0836  0.0229 -0.0257
  264loPI   C3B 4223  14.010  16.964   8.616  0.0204  0.2827 -0.1977
  264loPI   C4B 4224  13.925  17.064   8.244  0.0335  0.0688  0.0731
  265loPI    C1 4225  11.377  11.178  10.755  0.0406 -0.0660  0.0212
  265loPI    C2 4226  11.569  11.499  10.897  0.0214 -0.1970  0.3505
  265loPI    C3 4227  11.359  11.265  11.145 -0.3040 -0.2346  0.0467
  265loPI   PO4 4228  11.425  11.159  10.505 -0.2073  0.1901 -0.3511
  265loPI   GL1 4229  11.663  11.376  10.242 -0.0649 -0.0481 -0.2526
  265loPI   GL2 4230  11.903  11.462  10.033  0.1025 -0.1127  0.1750
  265loPI   C1A 4231  11.322  11.360   9.870  0.1381 -0.0923 -0.0195
  265loPI   C2A 4232  11.099  11.592   9.528 -0.2579  0.1767  0.3766
  265loPI   C3A 4233  11.059  11.602   9.091 -0.1086 -0.2616  0.0461
  265loPI   C4A 4234  11.183  11.509   8.621 -0.0422 -0.0800  0.1152
  265loPI   C5A 4235  10.976  11.472   8.289 -0.0650 -0.0140 -0.1202
  265loPI   C6A 4236  10.576  11.501   8.074  0.0033  0.0140 -0.0128
  265loPI   C1B 4237  11.748  11.562   9.564 -0.0372 -0.0138  0.0627
  265loPI   C2B 4238  11.482  11.322   9.336  0.3068  0.2993  0.1403
  265loPI   C3B 4239  11.463  11.241   8.931 -0.0552 -0.1855  0.4183
  265loPI   C4B 4240  11.441  11.083   8.364  0.0872 -0.5080 -0.1453
  266loPI    C1 4241   7.127  16.915  10.019 -0.2052 -0.1586  0.0948
  266loPI    C2 4242   7.399  16.622  10.030 -0.0840 -0.0526 -0.0370
  266loPI    C3 4243   7.213  16.736  10.366  0.0686 -0.0937  0.0622
  266loPI   PO4 4244   7.248  17.073   9.775 -0.0210  0.1080  0.0812
  266loPI   GL1 4245   7.466  17.221   9.429  0.2981  0.0489  0.0639
  266loPI   GL2 4246   7.132  17.395   9.241 -0.2585 -0.0656 -0.1252
  266loPI   C1A 4247   7.385  16.894   9.172  0.1760 -0.0096 -0.0707
  266loPI   C2A 4248   7.429  16.759   8.639  0.2261  0.1743 -0.5474
  266loPI   C3A 4249   7.449  16.791   8.145  0.3730  0.0591  0.0724
  266loPI   C4A 4250   7.156  17.103   7.982  0.5052 -0.0846  0.0991
  266loPI   C5A 4251   6.917  17.367   8.152 -0.0952 -0.0117 -0.1101
  266loPI   C6A 4252   6.636  17.599   8.418  0.1058 -0.0456 -0.0242
  266loPI   C1B 4253   7.495  17.579   9.023 -0.1842  0.1218 -0.0792
  266loPI   C2B 4254   7.905  17.669   8.767 -0.1752 -0.0926  0.4608
  266loPI   C3B 4255   7.986  17.617   8.293  0.2198  0.2273 -0.1611
  266loPI   C4B 4256   8.017  17.760   7.954  0.1545  0.0906 -0.0398
  267loPI    C1 4257   6.409   6.448   9.966  0.1186  0.1626  0.0119
  267loPI    C2 4258   6.664   6.343  10.256  0.0766  0.1397  0.0406
  267loPI    C3 4259   6.438   6.670  10.298  0.0487  0.1197  0.0470
  267loPI   PO4 4260   6.468   6.450   9.680  0.1127  0.0825  0.0745
  267loPI   GL1 4261   6.414   6.355   9.191  0.0366  0.0345 -0.1378
  267loPI   GL2 4262   6.274   6.637   9.254 -0.1951  0.2576 -0.0829
  267loPI   C1A 4263   6.497   6.453   8.686  0.1943 -0.0302 -0.3192
  267loPI   C2A 4264   6.726   6.712   8.394 -0.0346 -0.0021  0.3184
  267loPI   C3A 4265   6.776   6.991   8.143 -0.0995 -0.1147  0.1002
  267loPI   C4A 4266   6.724   7.306   7.927 -0.0652 -0.2619  0.1329
  267loPI   C5A 4267   6.881   7.361   7.508  0.2655 -0.2957  0.1000
  267loPI   C6A 4268   7.083   7.461   7.171 -0.0633  0.0876  0.0825
  267loPI   C1B 4269   6.365   7.041   9.174  0.2502 -0.1292 -0.3439
  267loPI   C2B 4270   6.332   7.346   8.904  0.1935 -0.0081  0.5143
  267loPI   C3B 4271   6.467   7.315   8.444  0.3187  0.1414  0.0027
  267loPI   C4B 4272   6.278   7.450   8.157 -0.0767  0.2915  0.0145
  268loPI    C1 4273   6.627   1.440   9.929  0.3709 -0.0590  0.0965
  268loPI    C2 4274   6.478   1.378  10.295 -0.1315  0.0939 -0.0742
  268loPI    C3 4275   6.666   1.082  10.102 -0.0134 -0.0376  0.2364
  268loPI   PO4 4276   6.480   1.633   9.827 -0.0485 -0.3427 -0.0812
  268loPI   GL1 4277   6.640   1.765   9.458 -0.1008  0.1987 -0.0403
  268loPI   GL2 4278   6.640   2.088   9.561 -0.1813 -0.0137 -0.4901
  268loPI   C1A 4279   6.795   1.924   9.034 -0.0156 -0.2514  0.3968
  268loPI   C2A 4280   6.946   1.997   8.613  0.3353 -0.0161  0.1383
  268loPI   C3A 4281   7.168   2.082   8.190 -0.0355 -0.2887 -0.0231
  268loPI   C4A 4282   7.071   1.867   7.761  0.0846  0.0166  0.1125
  268loPI   C5A 4283   7.299   2.138   7.453 -0.0175  0.2139  0.0791
  268loPI   C6A 4284   7.152   2.315   7.136  0.0682 -0.1133 -0.3878
  268loPI   C1B 4285   6.690   2.394   9.241  0.1123 -0.0520 -0.4034
  268loPI   C2B 4286   6.798   2.457   8.786 -0.0286  0.2156  0.2845
  268loPI   C3B 4287   6.923   2.637   8.315  0.0599 -0.3424 -0.1540
  268loPI   C4B 4288   6.975   2.843   7.921 -0.1553 -0.1728  0.1322
  269loPI    C1 4289   8.177   9.423  10.268 -0.1177  0.0263  0.0520
  269loPI    C2 4290   8.038   9.203  10.571  0.1478  0.0423  0.1882
  269loPI    C3 4291   8.322   9.477  10.637  0.1022  0.1489 -0.0500
  269loPI   PO4 4292   8.259   9.225  10.070 -0.2330 -0.0900  0.1174
  269loPI   GL1 4293   8.066   9.203   9.700 -0.2248 -0.0551 -0.4272
  269loPI   GL2 4294   7.853   9.414   9.817 -0.0819 -0.2076 -0.0825
  269loPI   C1A 4295   8.288   9.068   9.361  0.1059  0.3196 -0.0126
  269loPI   C2A 4296   8.398   9.318   9.067  0.0845  0.0045 -0.1913
  269loPI   C3A 4297   8.371   9.349   8.648  0.1322 -0.3129  0.4602
  269loPI   C4A 4298   8.491   9.166   8.228 -0.2953 -0.1569  0.0101
  269loPI   C5A 4299   8.531   9.246   7.731 -0.2998 -0.0914  0.2676
  269loPI   C6A 4300   8.509   9.701   7.508  0.0950  0.0399  0.0031
  269loPI   C1B 4301   7.885   9.538   9.289 -0.2336 -0.0459 -0.2927
  269loPI   C2B 4302   8.021   9.721   8.900  0.2521 -0.0891  0.1147
  269loPI   C3B 4303   8.095   9.792   8.365 -0.0077  0.0499 -0.1230
  269loPI   C4B 4304   8.454   9.624   8.105  0.0802  0.1006  0.1304
  270loPI    C1 4305   1.758  18.215  10.153 -0.1779  0.0887 -0.0475
  270loPI    C2 4306   1.795  18.093  10.532 -0.0344  0.0244 -0.0816
  270loPI    C3 4307   1.762  18.483  10.450  0.1740  0.0565 -0.0193
  270loPI   PO4 4308   1.905  18.054  10.036 -0.1745  0.1235 -0.3291
  270loPI   GL1 4309   1.848  18.033   9.602 -0.0934 -0.0976  0.1867
  270loPI   GL2 4310   1.545  18.088   9.516  0.3591  0.0411 -0.1504
  270loPI   C1A 4311   1.781  17.974   9.124 -0.1784 -0.3205  0.0446
  270loPI   C2A 4312   1.866  17.800   8.683  0.0093  0.1541  0.1699
  270loPI   C3A 4313   1.948  17.662   8.341 -0.1738  0.0661 -0.0643
  270loPI   C4A 4314   2.112  17.791   7.945  0.3293  0.4838 -0.2035
  270loPI   C5A 4315   2.114  18.141   7.708  0.0102 -0.0874 -0.0316
  270loPI   C6A 4316   1.668  18.339   7.617  0.1478 -0.2707 -0.2529
  270loPI   C1B 4317   1.194  17.831   9.301 -0.0422  0.1015 -0.1027
  270loPI   C2B 4318   1.269  17.818   8.810  0.0390  0.1037  0.0393
  270loPI   C3B 4319   1.231  17.841   8.400 -0.0248  0.2290 -0.0978
  270loPI   C4B 4320   1.227  17.771   8.010 -0.0090 -0.2286 -0.2277
  271loPI    C1 4321  10.165  10.477  10.401 -0.3981 -0.2413  0.0888
  271loPI    C2 4322  10.021  10.475  10.774  0.0240  0.0011  0.2598
  271loPI    C3 4323  10.310  10.219  10.671 -0.0257 -0.0014  0.1250
  271loPI   PO4 4324  10.055  10.538  10.159 -0.2761  0.1676 -0.1530
  271loPI   GL1 4325   9.892  10.765   9.860  0.3226 -0.2621  0.2169
  271loPI   GL2 4326   9.606  10.894   9.809 -0.1550 -0.1491  0.2510
  271loPI   C1A 4327  10.207  10.843   9.523  0.3639 -0.1514 -0.4031
  271loPI   C2A 4328  10.219  10.611   9.096  0.0309 -0.1810  0.1442
  271loPI   C3A 4329  10.314  10.411   8.661  0.1201  0.0083  0.1561
  271loPI   C4A 4330  10.563  10.420   8.243  0.2673 -0.0877  0.1944
  271loPI   C5A 4331  10.658  10.573   7.905 -0.0777  0.1511 -0.0823
  271loPI   C6A 4332  10.659  10.604   7.561 -0.1565  0.2790 -0.0513
  271loPI   C1B 4333   9.628  10.982   9.485 -0.0276  0.0105  0.0124
  271loPI   C2B 4334   9.802  10.993   9.112 -0.0237  0.0186  0.0390
  271loPI   C3B 4335   9.909  11.251   8.721  0.0072 -0.0296 -0.1099
  271loPI   C4B 4336   9.873  11.287   8.224 -0.0820  0.1067  0.1293
  272loPI    C1 4337   2.217   2.293  10.046 -0.0075  0.0653  0.0194
  272loPI    C2 4338   2.361   2.036  10.317 -0.0885 -0.0555 -0.0511
  272loPI    C3 4339   2.099   2.317  10.428 -0.1169 -0.1007 -0.0027
  272loPI   PO4 4340   2.062   2.132   9.889 -0.0249 -0.4062  0.0501
  272loPI   GL1 4341   1.731   2.053   9.594  0.1638 -0.0935  0.2944
  272loPI   GL2 4342   1.705   2.326   9.431 -0.2003 -0.0332  0.4649
  272loPI   C1A 4343   1.863   1.868   9.202  0.1311 -0.1728  0.1724
  272loPI   C2A 4344   1.913   1.586   8.854 -0.0366 -0.0372  0.1310
  272loPI   C3A 4345   1.746   1.628   8.565  0.1463 -0.0454  0.0745
  272loPI   C4A 4346   1.890   1.520   8.154  0.0318  0.0165 -0.0295
  272loPI   C5A 4347   1.984   1.347   7.758  0.1599 -0.2157  0.0365
  272loPI   C6A 4348   2.248   1.028   7.601  0.0010  0.1541  0.2786
  272loPI   C1B 4349   2.033   2.364   9.133 -0.1238 -0.0127 -0.0954
  272loPI   C2B 4350   1.970   2.487   8.721  0.2327 -0.1072  0.0697
  272loPI   C3B 4351   1.938   2.568   8.205 -0.1988  0.0440  0.1550
  272loPI   C4B 4352   2.061   2.609   7.842  0.0680 -0.2978 -0.2150
  273loPI    C1 4353   6.698  15.619  10.342  0.1208 -0.0818  0.0525
  273loPI    C2 4354   6.554  15.282  10.501  0.0138 -0.0294  0.0680
  273loPI    C3 4355   6.340  15.619  10.521  0.1713  0.0664  0.1546
  273loPI   PO4 4356   6.785  15.534  10.107 -0.0010 -0.0159  0.0120
  273loPI   GL1 4357   6.930  15.802   9.805 -0.2407 -0.0192 -0.1242
  273loPI   GL2 4358   7.211  15.746   9.885 -0.1342 -0.1546 -0.0274
  273loPI   C1A 4359   7.192  16.052   9.490 -0.1566  0.2436  0.0085
  273loPI   C2A 4360   7.312  15.973   9.078 -0.2819  0.0095  0.0229
  273loPI   C3A 4361   7.419  15.877   8.704 -0.1444  0.2149 -0.2279
  273loPI   C4A 4362   7.373  15.602   8.451 -0.1527 -0.0306 -0.0853
  273loPI   C5A 4363   7.278  15.831   8.059 -0.2941  0.0447 -0.0012
  273loPI   C6A 4364   7.189  15.736   7.704 -0.3128  0.3311 -0.0456
  273loPI   C1B 4365   7.187  15.595   9.349 -0.0252 -0.2775 -0.1265
  273loPI   C2B 4366   7.003  15.533   8.986  0.0300  0.1659 -0.0886
  273loPI   C3B 4367   6.906  15.399   8.568 -0.0791  0.3358 -0.1134
  273loPI   C4B 4368   6.781  15.610   8.160  0.1019  0.2183  0.2309
  274loPI    C1 4369  16.383  12.210  10.692  0.1870  0.0442  0.0478
  274loPI    C2 4370  16.052  12.424  10.760  0.3040  0.1958  0.1495
  274loPI    C3 4371  16.091  12.059  10.919 -0.0154 -0.0212 -0.2508
  274loPI   PO4 4372  16.449  12.323  10.395 -0.0548  0.1040  0.0142
  274loPI   GL1 4373  16.325  12.546  10.125  0.1658 -0.0654 -0.1285
  274loPI   GL2 4374  16.014  12.566  10.207 -0.2017  0.0108  0.3361
  274loPI   C1A 4375  16.273  12.774   9.768  0.1239 -0.0072 -0.0869
  274loPI   C2A 4376  16.260  12.719   9.339 -0.0245 -0.0052  0.0905
  274loPI   C3A 4377  16.185  12.816   8.953  0.4269 -0.2999 -0.1818
  274loPI   C4A 4378  16.236  12.802   8.578 -0.2423  0.2201 -0.1410
  274loPI   C5A 4379  16.424  12.688   8.208  0.1364 -0.1531 -0.1278
  274loPI   C6A 4380  16.650  12.472   7.917 -0.0861  0.2346  0.0051
  274loPI   C1B 4381  15.822  12.433   9.686  0.2584  0.1858  0.0777
  274loPI   C2B 4382  15.722  12.559   9.333 -0.2522  0.2807  0.1398
  274loPI   C3B 4383  15.682  12.595   8.878  0.2985  0.0975 -0.2264
  274loPI   C4B 4384  15.765  12.604   8.463 -0.0085 -0.0593  0.0537
  275loPI    C1 4385  12.108   5.724  10.365 -0.1645  0.0082 -0.0146
  275loPI    C2 4386  11.944   6.065  10.495 -0.2213  0.0184 -0.1119
  275loPI    C3 4387  12.041   5.777  10.755  0.1210  0.2357  0.0067
  275loPI   PO4 4388  12.185   5.752  10.210  0.1320 -0.0988 -0.0837
  275loPI   GL1 4389  12.438   5.655   9.735 -0.2929 -0.0319 -0.3033
  275loPI   GL2 4390  12.188   5.576   9.698  0.1189  0.0479 -0.1431
  275loPI   C1A 4391  12.471   5.736   9.350  0.1012 -0.1347 -0.1860
  275loPI   C2A 4392  12.631   5.809   8.961 -0.0276 -0.3497  0.2163
  275loPI   C3A 4393  12.669   5.653   8.618  0.0988  0.1034  0.3202
  275loPI   C4A 4394  12.583   5.503   8.272 -0.0269 -0.0895  0.1872
  275loPI   C5A 4395  12.398   5.435   7.866 -0.3015  0.0614  0.1334
  275loPI   C6A 4396  12.365   5.198   7.412  0.1031 -0.2075  0.2005
  275loPI   C1B 4397  12.023   5.963   9.488  0.0460 -0.0970  0.1507
  275loPI   C2B 4398  11.897   6.306   9.237 -0.0478  0.1097  0.1015
  275loPI   C3B 4399  11.752   6.241   8.859  0.0928 -0.0382  0.1278
  275loPI   C4B 4400  11.680   5.837   8.574 -0.1032  0.1255 -0.0137
  276loPI    C1 4401  16.526   4.483  10.552 -0.1382 -0.0024  0.0127
  276loPI    C2 4402  16.457   4.219  10.845 -0.2601  0.1434  0.1166
  276loPI    C3 4403  16.576   4.591  10.934 -0.1082  0.1307 -0.0287
  276loPI   PO4 4404  16.282   4.328  10.356  0.0630  0.0688  0.0758
  276loPI   GL1 4405  16.255   4.270   9.883  0.0185  0.3403  0.0517
  276loPI   GL2 4406  16.429   3.945   9.949  0.2645  0.4770  0.0315
  276loPI   C1A 4407  16.192   4.238   9.394  0.1193  0.1296  0.0740
  276loPI   C2A 4408  16.194   4.266   8.929  0.4907  0.1081  0.2230
  276loPI   C3A 4409  16.062   4.203   8.541  0.0859  0.0587  0.2434
  276loPI   C4A 4410  15.953   4.123   8.118 -0.0042  0.0845  0.2482
  276loPI   C5A 4411  16.246   4.092   7.701  0.2152  0.1439 -0.1986
  276loPI   C6A 4412  16.439   3.804   7.517 -0.0701 -0.1869 -0.0839
  276loPI   C1B 4413  16.488   3.849   9.538 -0.1201  0.4857  0.0638
  276loPI   C2B 4414  16.402   3.834   9.175  0.1513  0.0761 -0.2520
  276loPI   C3B 4415  16.223   3.749   8.745 -0.2020  0.2130  0.1595
  276loPI   C4B 4416  16.182   3.727   8.354 -0.1423  0.1592  0.2521
  277loPI    C1 4417   1.775   4.026   9.956 -0.0439  0.0764  0.0314
  277loPI    C2 4418   1.478   3.927  10.205 -0.2222  0.1309 -0.1569
  277loPI    C3 4419   1.620   4.301  10.201 -0.1482  0.1044 -0.0657
  277loPI   PO4 4420   1.754   4.000   9.718 -0.1119  0.1272  0.1914
  277loPI   GL1 4421   1.818   3.919   9.297 -0.2274  0.1402  0.0207
  277loPI   GL2 4422   1.962   4.217   9.185  0.0421 -0.1679  0.1724
  277loPI   C1A 4423   1.675   3.701   8.940  0.1287  0.1960  0.2564
  277loPI   C2A 4424   1.738   3.567   8.610  0.0547  0.1312  0.0707
  277loPI   C3A 4425   1.994   3.444   8.166 -0.0992  0.0106  0.0623
  277loPI   C4A 4426   1.981   3.513   7.697  0.1655  0.2439 -0.2505
  277loPI   C5A 4427   2.022   3.718   7.299  0.0475  0.0124 -0.1593
  277loPI   C6A 4428   2.041   4.114   7.411  0.0714  0.1047 -0.0017
  277loPI   C1B 4429   1.995   4.308   8.683  0.0047 -0.1705  0.1155
  277loPI   C2B 4430   2.055   4.309   8.247 -0.3866  0.0898  0.2288
  277loPI   C3B 4431   2.120   4.493   7.870 -0.1902  0.0579  0.2865
  277loPI   C4B 4432   2.496   4.734   7.618 -0.1020 -0.2154 -0.2520
  278loPI    C1 4433  11.462  12.045  10.801 -0.0015  0.0286 -0.0411
  278loPI    C2 4434  11.731  11.945  11.080  0.0693 -0.2152 -0.1933
  278loPI    C3 4435  11.345  11.852  11.131  0.0115  0.1239  0.0196
  278loPI   PO4 4436  11.652  11.909  10.533  0.1510 -0.0544 -0.1933
  278loPI   GL1 4437  11.609  11.877  10.075  0.1022  0.1098  0.0447
  278loPI   GL2 4438  12.021  11.967  10.192  0.5144  0.0624  0.0208
  278loPI   C1A 4439  11.431  11.900   9.781  0.0878  0.1446  0.4343
  278loPI   C2A 4440  11.486  11.821   9.263  0.2591  0.0760  0.0497
  278loPI   C3A 4441  11.598  11.728   8.848 -0.1702 -0.0903  0.4123
  278loPI   C4A 4442  11.860  11.437   8.593 -0.3265 -0.0083 -0.1253
  278loPI   C5A 4443  11.952  10.957   8.529  0.2552  0.0395  0.0210
  278loPI   C6A 4444  11.672  10.636   8.265 -0.0530 -0.1358 -0.0195
  278loPI   C1B 4445  11.957  12.096   9.742 -0.0432  0.0514  0.2755
  278loPI   C2B 4446  11.924  11.993   9.320  0.0708  0.0269  0.2045
  278loPI   C3B 4447  11.955  11.666   9.142 -0.0301 -0.0375 -0.2453
  278loPI   C4B 4448  11.952  11.239   9.048  0.2513  0.0141  0.4363
  279loPI    C1 4449   9.323  17.093  10.507 -0.2539 -0.1028  0.0829
  279loPI    C2 4450   9.308  17.418  10.740  0.2340 -0.1488  0.1882
  279loPI    C3 4451   9.242  17.056  10.897 -0.3662 -0.1056  0.0597
  279loPI   PO4 4452   9.570  16.994  10.287 -0.0629  0.1873 -0.1201
  279loPI   GL1 4453   9.685  17.172   9.950  0.1321  0.2233 -0.3117
  279loPI   GL2 4454   9.675  17.384   9.806  0.2132  0.1718 -0.0789
  279loPI   C1A 4455   9.884  17.005   9.503  0.3363 -0.0117 -0.0427
  279loPI   C2A 4456   9.884  17.094   9.073  0.0652 -0.2446  0.1340
  279loPI   C3A 4457   9.986  17.088   8.632 -0.3106 -0.2957 -0.0603
  279loPI   C4A 4458  10.340  17.187   8.340  0.1203  0.1210  0.1048
  279loPI   C5A 4459  10.287  17.449   7.983 -0.0502 -0.0975 -0.0601
  279loPI   C6A 4460  10.542  17.756   7.770 -0.1523 -0.1120  0.0729
  279loPI   C1B 4461   9.446  17.200   9.465 -0.2461  0.0719  0.0450
  279loPI   C2B 4462   9.311  17.101   9.039  0.1039  0.3808  0.2255
  279loPI   C3B 4463   9.254  16.863   8.619  0.1019  0.0030  0.1111
  279loPI   C4B 4464   9.513  16.871   8.300 -0.0346 -0.3881  0.1440
  280loPI    C1 4465  17.147   3.937  10.705  0.0078 -0.0084 -0.2779
  280loPI    C2 4466  16.979   4.289  10.794  0.1994  0.0171 -0.0054
  280loPI    C3 4467  16.940   3.979  11.044  0.2069 -0.0961 -0.1433
  280loPI   PO4 4468  17.281   4.082  10.484  0.1427 -0.0061  0.2828
  280loPI   GL1 4469  17.343   4.133  10.032  0.0288  0.0019 -0.0417
  280loPI   GL2 4470  17.065   4.140   9.904 -0.2886 -0.1502 -0.0784
  280loPI   C1A 4471  17.388   4.003   9.516 -0.0661 -0.0225  0.1198
  280loPI   C2A 4472  17.248   4.010   9.011 -0.1819  0.0705 -0.5621
  280loPI   C3A 4473  17.171   4.015   8.567  0.0991 -0.1063  0.1129
  280loPI   C4A 4474  16.957   4.132   8.159 -0.3346  0.0977  0.0651
  280loPI   C5A 4475  16.787   4.180   7.708 -0.0946 -0.1147 -0.0362
  280loPI   C6A 4476  17.028   4.185   7.271 -0.0549  0.1644 -0.1824
  280loPI   C1B 4477  16.938   4.082   9.463  0.3920 -0.2272  0.2968
  280loPI   C2B 4478  16.708   4.194   9.068 -0.1011  0.4007  0.0291
  280loPI   C3B 4479  16.674   4.173   8.589  0.1404 -0.0092 -0.2742
  280loPI   C4B 4480  16.474   4.197   8.214 -0.0703 -0.2071 -0.3671
  281loPI    C1 4481   1.287  16.580  10.200  0.0064 -0.0465  0.2384
  281loPI    C2 4482   0.904  16.506  10.109  0.1521 -0.2890 -0.2059
  281loPI    C3 4483   1.054  16.383  10.459 -0.1759 -0.1797 -0.0227
  281loPI   PO4 4484   1.295  16.800   9.999 -0.1734  0.0896 -0.1669
  281loPI   GL1 4485   1.038  16.786   9.718  0.0869 -0.2180 -0.0860
  281loPI   GL2 4486   0.956  17.169   9.842 -0.1576 -0.0066  0.3495
  281loPI   C1A 4487   0.955  16.820   9.220 -0.1296  0.1244  0.2266
  281loPI   C2A 4488   0.780  16.882   8.837  0.0192  0.1903  0.1890
  281loPI   C3A 4489   0.857  16.947   8.364  0.1428 -0.1794 -0.0265
  281loPI   C4A 4490   0.649  16.895   8.001  0.2685 -0.1405 -0.2469
  281loPI   C5A 4491   0.434  16.763   7.659  0.1236  0.0357 -0.3320
  281loPI   C6A 4492   0.364  16.299   7.575 -0.2018  0.1902 -0.1040
  281loPI   C1B 4493   0.753  17.177   9.487  0.3345 -0.1013 -0.3763
  281loPI   C2B 4494   0.487  17.236   9.161  0.0728 -0.2193 -0.0185
  281loPI   C3B 4495   0.549  17.307   8.746 -0.1414  0.0744  0.3702
  281loPI   C4B 4496   0.468  17.272   8.291  0.0431  0.0134 -0.0423
  282loPI    C1 4497   4.872  11.514  10.005  0.0780  0.0178  0.1410
  282loPI    C2 4498   5.082  11.440  10.338 -0.0265 -0.3000  0.1399
  282loPI    C3 4499   4.703  11.568  10.364  0.1724  0.3198  0.1422
  282loPI   PO4 4500   5.141  11.619   9.852 -0.0631 -0.2061 -0.0769
  282loPI   GL1 4501   5.116  11.624   9.449  0.2848  0.1054 -0.1355
  282loPI   GL2 4502   4.799  11.634   9.382 -0.0063 -0.1710 -0.2750
  282loPI   C1A 4503   5.253  11.635   8.935 -0.0113 -0.0957  0.2801
  282loPI   C2A 4504   5.275  11.650   8.548 -0.2767  0.1173  0.0662
  282loPI   C3A 4505   5.236  11.748   8.054 -0.1684  0.0312  0.1766
  282loPI   C4A 4506   5.211  12.084   7.847 -0.4040 -0.1289  0.0528
  282loPI   C5A 4507   5.451  12.532   7.832  0.0183 -0.2056 -0.2716
  282loPI   C6A 4508   5.611  12.858   8.136  0.0346  0.2898 -0.0932
  282loPI   C1B 4509   4.784  11.575   8.909 -0.0035  0.3815 -0.1172
  282loPI   C2B 4510   4.739  11.798   8.421 -0.0437 -0.2418  0.1164
  282loPI   C3B 4511   4.714  12.062   8.130  0.0387 -0.2430  0.0125
  282loPI   C4B 4512   4.350  12.209   8.177 -0.2331  0.0140 -0.0478
  283loPI    C1 4513  11.998   0.112  10.461 -0.0486 -0.1887  0.0494
  283loPI    C2 4514  12.084   0.307  10.799 -0.2105 -0.0672  0.0219
  283loPI    C3 4515  11.786   0.040  10.792 -0.2653 -0.0047 -0.0464
  283loPI   PO4 4516  12.212   0.311  10.276  0.1898 -0.0159 -0.1678
  283loPI   GL1 4517  12.265   0.411   9.880  0.0466  0.3066  0.1065
  283loPI   GL2 4518  12.342   0.767  10.027 -0.1063 -0.0064  0.1450
  283loPI   C1A 4519  12.440   0.347   9.522 -0.0904  0.1160  0.0196
  283loPI   C2A 4520  12.631   0.654   9.319 -0.4709 -0.1182  0.0552
  283loPI   C3A 4521  12.740   0.746   8.977  0.4129  0.1339 -0.1481
  283loPI   C4A 4522  12.384   0.849   8.740 -0.1174  0.1632  0.0088
  283loPI   C5A 4523  12.234   0.964   8.440 -0.0688  0.0508  0.0852
  283loPI   C6A 4524  12.403   1.149   8.066  0.0732  0.0693  0.0468
  283loPI   C1B 4525  12.379   0.984   9.585  0.2619  0.2088 -0.2617
  283loPI   C2B 4526  12.270   1.067   9.269 -0.4605  0.0320 -0.0123
  283loPI   C3B 4527  12.412   1.352   8.934  0.5833  0.0617  0.1493
  283loPI   C4B 4528  12.412   1.570   8.476 -0.3022  0.1410  0.1242
  284loPI    C1 4529   6.617   7.172  10.176  0.3637 -0.0570  0.0554
  284loPI    C2 4530   6.346   7.403  10.359  0.0805 -0.1519 -0.2354
  284loPI    C3 4531   6.722   7.533  10.315 -0.1263  0.3599 -0.5970
  284loPI   PO4 4532   6.579   7.072   9.969 -0.0628 -0.0518 -0.1052
  284loPI   GL1 4533   6.763   7.153   9.641  0.0578 -0.1365 -0.1446
  284loPI   GL2 4534   6.781   6.827   9.565  0.2309  0.1313 -0.1151
  284loPI   C1A 4535   6.856   7.307   9.219 -0.1222  0.0165  0.0445
  284loPI   C2A 4536   6.897   7.176   8.809 -0.0249 -0.1062  0.2009
  284loPI   C3A 4537   7.217   7.278   8.535 -0.2603 -0.0476 -0.3324
  284loPI   C4A 4538   7.245   7.213   8.082  0.0025  0.1652  0.0048
  284loPI   C5A 4539   7.332   7.282   7.634 -0.0924 -0.2368  0.0155
  284loPI   C6A 4540   7.409   7.062   7.255 -0.1771  0.0327 -0.1462
  284loPI   C1B 4541   6.805   6.705   9.035  0.2108  0.0551 -0.0868
  284loPI   C2B 4542   6.996   6.379   8.721 -0.0810  0.1142  0.0699
  284loPI   C3B 4543   6.995   6.304   8.233  0.2558 -0.0242 -0.3038
  284loPI   C4B 4544   7.009   6.382   7.793 -0.0235 -0.0154  0.1279
  285loPI    C1 4545  17.701  16.905  10.235  0.2126  0.0257  0.0544
  285loPI    C2 4546  17.486  16.568  10.227  0.0031  0.1556  0.1414
  285loPI    C3 4547  17.872  16.562  10.121 -0.0795 -0.0526 -0.1580
  285loPI   PO4 4548  17.499  17.042  10.049  0.2760  0.2054 -0.1094
  285loPI   GL1 4549  17.350  17.043   9.664 -0.1436  0.1560 -0.6109
  285loPI   GL2 4550  17.139  16.837   9.473 -0.3283  0.1461 -0.3727
  285loPI   C1A 4551  17.598  17.189   9.323  0.0217 -0.0057 -0.0139
  285loPI   C2A 4552  17.804  17.034   8.961  0.1379  0.1104  0.1675
  285loPI   C3A 4553  17.750  17.205   8.563  0.1958 -0.1964 -0.1399
  285loPI   C4A 4554  17.770  17.323   8.117 -0.0966 -0.0028  0.2573
  285loPI   C5A 4555  18.071  17.453   7.782 -0.3791  0.4603 -0.0567
  285loPI   C6A 4556  18.424  17.795   7.770 -0.1146 -0.0394  0.0339
  285loPI   C1B 4557  17.295  16.789   9.124 -0.1494  0.0269  0.1348
  285loPI   C2B 4558  17.358  16.835   8.728  0.0151  0.1288 -0.0494
  285loPI   C3B 4559  17.424  16.827   8.273 -0.0775 -0.0948  0.0550
  285loPI   C4B 4560  17.468  16.896   7.918 -0.4099 -0.1091 -0.3302
  286loPI    C1 4561   3.742   6.164   9.815  0.1166  0.1349  0.0114
  286loPI    C2 4562   3.696   6.510  10.012  0.3950  0.1323  0.0842
  286loPI    C3 4563   3.594   6.165  10.187 -0.1966  0.1977 -0.1098
  286loPI   PO4 4564   3.804   6.273   9.590  0.2227 -0.0495 -0.0813
  286loPI   GL1 4565   3.535   6.068   9.211  0.0220  0.2609  0.0771
  286loPI   GL2 4566   3.629   6.353   9.127 -0.0662 -0.2701 -0.3604
  286loPI   C1A 4567   3.532   5.973   8.832  0.1270  0.1394  0.0648
  286loPI   C2A 4568   3.506   5.903   8.399 -0.1975 -0.0505 -0.0542
  286loPI   C3A 4569   3.604   6.138   8.032  0.2820  0.2379  0.0981
  286loPI   C4A 4570   3.874   6.158   7.636 -0.0087 -0.0956  0.1694
  286loPI   C5A 4571   3.808   6.340   7.291  0.1009  0.2481 -0.0138
  286loPI   C6A 4572   3.748   6.900   7.304 -0.2171  0.0504 -0.2132
  286loPI   C1B 4573   3.766   6.419   8.774  0.3100 -0.0794  0.0682
  286loPI   C2B 4574   3.854   6.808   8.537 -0.3148  0.2064 -0.2049
  286loPI   C3B 4575   4.094   7.073   8.203 -0.1641 -0.0921  0.0705
  286loPI   C4B 4576   4.320   7.196   7.917 -0.0071  0.1959  0.1287
  287loPI    C1 4577   3.352   1.919   9.726 -0.1904  0.2035  0.0431
  287loPI    C2 4578   3.688   2.062   9.890 -0.0412 -0.1494  0.0537
  287loPI    C3 4579   3.410   2.314   9.752  0.2920  0.1485 -0.0890
  287loPI   PO4 4580   3.382   1.707   9.515  0.0636 -0.1600  0.4566
  287loPI   GL1 4581   3.814   1.526   9.404 -0.0674  0.5544 -0.3240
  287loPI   GL2 4582   3.678   1.200   9.265  0.1479  0.1140  0.2087
  287loPI   C1A 4583   3.863   1.770   9.024  0.2406 -0.2054 -0.0238
  287loPI   C2A 4584   3.767   1.865   8.556 -0.1891  0.1577  0.0012
  287loPI   C3A 4585   3.739   1.893   8.086  0.0842 -0.2516 -0.0812
  287loPI   C4A 4586   3.644   1.801   7.694  0.1657  0.0359 -0.0739
  287loPI   C5A 4587   3.264   1.836   7.544 -0.1519 -0.0680  0.1557
  287loPI   C6A 4588   3.128   1.975   7.143 -0.0608  0.1070 -0.1427
  287loPI   C1B 4589   3.562   1.382   8.857  0.0241  0.2516  0.0417
  287loPI   C2B 4590   3.626   1.409   8.437  0.0588 -0.1130 -0.0765
  287loPI   C3B 4591   3.217   1.469   8.130  0.2594 -0.1232  0.0123
  287loPI   C4B 4592   2.872   1.680   7.821  0.4276  0.0300 -0.0825
  288loPI    C1 4593  13.779   3.236  10.522  0.1505 -0.0621  0.1135
  288loPI    C2 4594  14.000   3.359  10.832  0.1853  0.1744 -0.0030
  288loPI    C3 4595  13.609   3.289  10.881  0.2266  0.0338  0.1359
  288loPI   PO4 4596  13.951   3.457  10.351  0.2648 -0.3443 -0.2961
  288loPI   GL1 4597  14.031   3.311   9.949 -0.1822 -0.1473 -0.2397
  288loPI   GL2 4598  14.077   3.682   9.898 -0.1455 -0.1566  0.0963
  288loPI   C1A 4599  14.048   3.112   9.574 -0.2386 -0.0828 -0.1796
  288loPI   C2A 4600  14.160   3.072   9.109 -0.1536  0.0905 -0.2678
  288loPI   C3A 4601  14.121   3.053   8.650  0.0459 -0.1236  0.0018
  288loPI   C4A 4602  14.045   2.966   8.199  0.1795  0.0497 -0.0520
  288loPI   C5A 4603  13.848   3.040   7.846 -0.0217 -0.5029 -0.1856
  288loPI   C6A 4604  13.565   3.158   7.726  0.3213  0.3205  0.0233
  288loPI   C1B 4605  14.040   3.601   9.480 -0.1333 -0.2161  0.0055
  288loPI   C2B 4606  13.971   3.532   8.973 -0.2596  0.3075 -0.4740
  288loPI   C3B 4607  13.869   3.500   8.541 -0.0209  0.0050  0.1699
  288loPI   C4B 4608  13.842   3.508   8.056 -0.0370  0.2749  0.0317
  289loPI    C1 4609   8.661  15.726  10.871  0.3113 -0.0784  0.0260
  289loPI    C2 4610   8.736  16.119  10.851 -0.0827 -0.0026 -0.0371
  289loPI    C3 4611   8.735  15.934  11.205  0.2534  0.0190 -0.0213
  289loPI   PO4 4612   8.685  15.681  10.654  0.1836 -0.1420  0.1017
  289loPI   GL1 4613   8.709  15.795  10.272  0.0160 -0.1580  0.2849
  289loPI   GL2 4614   8.530  16.014  10.252  0.1341 -0.3253 -0.3300
  289loPI   C1A 4615   8.714  15.492   9.952  0.0107  0.1011 -0.6315
  289loPI   C2A 4616   8.694  15.484   9.562 -0.1929 -0.4433 -0.2725
  289loPI   C3A 4617   8.823  15.526   9.152  0.1662 -0.1733 -0.2064
  289loPI   C4A 4618   8.900  15.630   8.799  0.1298 -0.1506 -0.0052
  289loPI   C5A 4619   8.827  15.630   8.361  0.6481 -0.2250  0.2281
  289loPI   C6A 4620   8.772  15.903   8.007 -0.0916  0.0270 -0.1897
  289loPI   C1B 4621   8.647  16.113   9.762  0.0134  0.1391  0.0799
  289loPI   C2B 4622   8.786  16.190   9.343  0.0094 -0.2531 -0.1105
  289loPI   C3B 4623   8.680  16.110   8.887 -0.2675  0.1964 -0.2792
  289loPI   C4B 4624   8.822  16.146   8.440 -0.1485  0.2560 -0.2333
  290loPI    C1 4625   3.625  13.063  10.548  0.3508 -0.1362 -0.1699
  290loPI    C2 4626   3.881  13.370  10.527 -0.0410  0.2035 -0.1097
  290loPI    C3 4627   3.758  13.236  10.883  0.1519 -0.0487 -0.1349
  290loPI   PO4 4628   3.545  13.215  10.102 -0.1850 -0.1267 -0.3100
  290loPI   GL1 4629   3.786  13.110   9.727 -0.1650  0.1605  0.4594
  290loPI   GL2 4630   4.091  13.190   9.630  0.0678 -0.4223  0.0686
  290loPI   C1A 4631   3.670  13.070   9.353  0.1141 -0.1553 -0.0596
  290loPI   C2A 4632   3.784  12.960   8.986  0.0623 -0.0763  0.0373
  290loPI   C3A 4633   4.179  12.880   8.764 -0.0169  0.0692 -0.1473
  290loPI   C4A 4634   4.329  12.647   8.471 -0.2823  0.1939 -0.0053
  290loPI   C5A 4635   4.614  12.677   8.089 -0.0607 -0.0533  0.0305
  290loPI   C6A 4636   4.944  12.477   8.027  0.1814 -0.0892 -0.0055
  290loPI   C1B 4637   4.318  13.027   9.204  0.0592  0.1861 -0.2444
  290loPI   C2B 4638   4.431  13.266   8.898  0.0441  0.0925 -0.3116
  290loPI   C3B 4639   4.421  13.249   8.453  0.0874  0.0580  0.1533
  290loPI   C4B 4640   4.479  13.424   8.095  0.0132 -0.1462  0.0724
  291loPI    C1 4641   9.989   4.752  10.560  0.0016 -0.1800 -0.1124
  291loPI    C2 4642   9.891   5.054  10.802 -0.0926 -0.0427 -0.3188
  291loPI    C3 4643  10.269   4.923  10.789 -0.0388  0.1053 -0.2717
  291loPI   PO4 4644   9.879   4.825  10.309  0.3096 -0.0278 -0.0505
  291loPI   GL1 4645   9.821   4.890   9.870 -0.1179 -0.3620  0.1189
  291loPI   GL2 4646   9.920   4.558   9.882 -0.2381 -0.2410  0.3285
  291loPI   C1A 4647   9.841   5.103   9.522 -0.0732 -0.0637 -0.2559
  291loPI   C2A 4648   9.908   5.031   9.106  0.1034 -0.2946 -0.0323
  291loPI   C3A 4649   9.992   5.047   8.752  0.2052 -0.1104  0.0126
  291loPI   C4A 4650  10.033   4.899   8.328 -0.0154 -0.0878  0.2217
  291loPI   C5A 4651   9.698   4.930   7.997  0.2468 -0.3669 -0.0584
  291loPI   C6A 4652   9.390   5.053   7.623  0.0084  0.2601 -0.0315
  291loPI   C1B 4653   9.991   4.630   9.472 -0.2533 -0.3367 -0.2496
  291loPI   C2B 4654  10.130   4.454   9.133  0.2801 -0.4054 -0.0289
  291loPI   C3B 4655  10.105   4.254   8.784 -0.1199  0.0063 -0.1997
  291loPI   C4B 4656  10.275   4.210   8.399 -0.2444  0.2148 -0.0764
  292loPI    C1 4657  12.493  15.828  10.059 -0.0982  0.2244  0.0163
  292loPI    C2 4658  12.650  15.848  10.427  0.1028  0.1187 -0.0617
  292loPI    C3 4659  12.708  16.147  10.168 -0.2035  0.2826  0.0541
  292loPI   PO4 4660  12.507  15.574  10.035 -0.2592  0.0346 -0.1448
  292loPI   GL1 4661  12.598  15.462   9.716  0.0650 -0.0461  0.0129
  292loPI   GL2 4662  12.816  15.205   9.855 -0.1752  0.0418 -0.0174
  292loPI   C1A 4663  12.899  15.417   9.425 -0.1515  0.0307  0.0538
  292loPI   C2A 4664  12.989  15.401   9.003 -0.1491  0.2791 -0.3180
  292loPI   C3A 4665  12.835  15.421   8.558 -0.1830  0.0663 -0.0394
  292loPI   C4A 4666  12.875  15.882   8.431  0.3165 -0.2798 -0.0106
  292loPI   C5A 4667  12.894  16.154   8.061  0.0046  0.0642  0.0123
  292loPI   C6A 4668  12.599  16.338   7.786  0.2104 -0.2525  0.0329
  292loPI   C1B 4669  12.737  14.947   9.528  0.0078 -0.2716 -0.0330
  292loPI   C2B 4670  12.594  14.756   9.208 -0.1425 -0.0515 -0.0868
  292loPI   C3B 4671  12.243  14.478   9.235  0.2893  0.0319  0.0189
  292loPI   C4B 4672  11.934  14.365   9.499 -0.0128  0.2606 -0.1190
  293loPI    C1 4673   8.812  13.896  10.735 -0.2031  0.0564 -0.1363
  293loPI    C2 4674   8.413  13.889  10.707 -0.2169 -0.2116  0.0886
  293loPI    C3 4675   8.590  13.828  11.060  0.0246 -0.0879 -0.0088
  293loPI   PO4 4676   8.964  13.757  10.596  0.1055 -0.0462  0.2877
  293loPI   GL1 4677   9.069  13.936  10.315 -0.2004 -0.2952  0.0305
  293loPI   GL2 4678   8.992  13.997  10.003 -0.0043  0.0550  0.2077
  293loPI   C1A 4679   9.473  14.122  10.067 -0.1333  0.0136 -0.2094
  293loPI   C2A 4680   9.608  14.122   9.648 -0.1946  0.0778  0.1417
  293loPI   C3A 4681   9.621  14.125   9.294  0.0398  0.1451  0.1756
  293loPI   C4A 4682   9.407  14.300   8.961 -0.0119 -0.0208 -0.1499
  293loPI   C5A 4683   9.427  14.393   8.449 -0.4090  0.2035 -0.1747
  293loPI   C6A 4684   9.371  14.765   8.173  0.1200  0.0865  0.2097
  293loPI   C1B 4685   9.078  14.069   9.567  0.2586  0.1090 -0.0671
  293loPI   C2B 4686   9.005  14.014   9.233 -0.2121  0.0759 -0.1054
  293loPI   C3B 4687   9.047  14.073   8.763 -0.1379 -0.0874  0.1319
  293loPI   C4B 4688   9.126  13.946   8.367  0.3478 -0.1197  0.1413
  294loPI    C1 4689  10.081   9.910  10.229  0.0732  0.0443  0.1823
  294loPI    C2 4690   9.706  10.016  10.143  0.1371  0.0880 -0.0496
  294loPI    C3 4691   9.775   9.693  10.367 -0.0374  0.0441 -0.0571
  294loPI   PO4 4692  10.262   9.880   9.982  0.0606 -0.3218 -0.3242
  294loPI   GL1 4693  10.622   9.840   9.725 -0.2927 -0.0968  0.0281
  294loPI   GL2 4694  10.789  10.132   9.694  0.0447 -0.0756 -0.1193
  294loPI   C1A 4695  10.689   9.796   9.208  0.1603 -0.2729 -0.0960
  294loPI   C2A 4696  10.677   9.617   8.747 -0.3206 -0.0427 -0.1438
  294loPI   C3A 4697  10.543   9.407   8.371 -0.2053  0.0524  0.1023
  294loPI   C4A 4698  10.423   9.558   8.095  0.0658 -0.1400  0.1778
  294loPI   C5A 4699  10.422   9.444   7.758  0.2726  0.0753  0.2851
  294loPI   C6A 4700   9.964   9.362   7.577 -0.0373 -0.0426 -0.1139
  294loPI   C1B 4701  10.955  10.293   9.401 -0.1696 -0.2726 -0.1102
  294loPI   C2B 4702  11.035  10.214   9.008 -0.1463 -0.0937 -0.0598
  294loPI   C3B 4703  11.426  10.157   8.844  0.0824  0.0143 -0.1715
  294loPI   C4B 4704  11.672   9.764   8.813  0.1479 -0.1172 -0.4175
  295loPI    C1 4705   2.059  11.630  10.100  0.0769  0.1569  0.0087
  295loPI    C2 4706   2.368  11.388  10.019  0.0000  0.0568  0.0130
  295loPI    C3 4707   2.335  11.557  10.380 -0.0301 -0.0517  0.0615
  295loPI   PO4 4708   2.080  11.753   9.832 -0.0330 -0.0071 -0.0686
  295loPI   GL1 4709   1.959  11.653   9.456 -0.0809  0.0547 -0.0167
  295loPI   GL2 4710   2.015  11.965   9.273  0.2167 -0.5432 -0.1433
  295loPI   C1A 4711   1.822  11.614   8.971 -0.2127 -0.2098  0.3037
  295loPI   C2A 4712   1.878  11.338   8.666  0.2408  0.0025 -0.2605
  295loPI   C3A 4713   1.849  11.067   8.364  0.2410  0.1157  0.0105
  295loPI   C4A 4714   1.803  10.954   7.904  0.1736 -0.1287  0.1696
  295loPI   C5A 4715   1.952  11.072   7.511  0.2867 -0.1570  0.0992
  295loPI   C6A 4716   2.199  10.914   7.205  0.2868  0.0806 -0.0082
  295loPI   C1B 4717   2.083  12.031   8.788  0.1839  0.0630  0.1277
  295loPI   C2B 4718   2.124  12.165   8.372 -0.3067  0.0958 -0.0822
  295loPI   C3B 4719   2.034  12.007   7.985  0.0773  0.3047 -0.3935
  295loPI   C4B 4720   2.139  11.663   7.703 -0.1333 -0.1102  0.0088
  296loPI    C1 4721   5.608   2.588   9.975  0.0655 -0.0693 -0.1224
  296loPI    C2 4722   5.594   2.965   9.845 -0.0688 -0.0715 -0.1153
  296loPI    C3 4723   5.676   2.890  10.229  0.2320 -0.0612 -0.1752
  296loPI   PO4 4724   5.515   2.481   9.756 -0.1054 -0.2672  0.0741
  296loPI   GL1 4725   5.419   2.484   9.312 -0.0642 -0.0581 -0.0994
  296loPI   GL2 4726   5.741   2.278   9.209  0.1371 -0.2364  0.0717
  296loPI   C1A 4727   5.577   2.717   8.950  0.1470 -0.0515 -0.0754
  296loPI   C2A 4728   5.730   3.100   8.856 -0.0906  0.1133 -0.1035
  296loPI   C3A 4729   5.848   3.379   8.644  0.1126  0.3920  0.2098
  296loPI   C4A 4730   5.669   3.511   8.232  0.2439 -0.1822 -0.0341
  296loPI   C5A 4731   5.753   3.203   7.843  0.1703  0.1663  0.0973
  296loPI   C6A 4732   5.743   2.910   7.439 -0.1542 -0.0050  0.2818
  296loPI   C1B 4733   5.997   2.277   8.917 -0.1623 -0.1462  0.1061
  296loPI   C2B 4734   6.067   2.395   8.600  0.1125 -0.0576 -0.0702
  296loPI   C3B 4735   6.094   2.263   8.164 -0.1985 -0.0389  0.2100
  296loPI   C4B 4736   5.975   2.598   7.840  0.2274  0.2654  0.0196
  297loPI    C1 4737   9.852   0.450  10.417  0.0846 -0.2116  0.0772
  297loPI    C2 4738  10.074   0.233  10.669 -0.0019 -0.1322  0.2233
  297loPI    C3 4739  10.024   0.624  10.734  0.0392 -0.0956  0.0386
  297loPI   PO4 4740   9.824   0.264  10.224 -0.4021  0.0002  0.0193
  297loPI   GL1 4741   9.563   0.269   9.870 -0.2303 -0.1347 -0.0057
  297loPI   GL2 4742   9.720  -0.131   9.717  0.3405  0.1389 -0.1878
  297loPI   C1A 4743   9.503   0.268   9.441 -0.1461 -0.0407  0.1538
  297loPI   C2A 4744   9.277   0.225   9.079 -0.0097  0.2016  0.0478
  297loPI   C3A 4745   9.361  -0.109   8.804 -0.1549 -0.0094  0.0839
  297loPI   C4A 4746   9.378  -0.380   8.423 -0.0027 -0.2731  0.1505
  297loPI   C5A 4747   9.584  -0.648   8.130 -0.1942 -0.1261  0.0972
  297loPI   C6A 4748   9.858  -0.996   8.023  0.1139  0.1841 -0.1487
  297loPI   C1B 4749   9.413  -0.243   9.375 -0.2057 -0.2889 -0.2036
  297loPI   C2B 4750   9.313  -0.536   9.088 -0.1366  0.1445 -0.2814
  297loPI   C3B 4751   9.280  -0.809   8.733 -0.0005 -0.0792 -0.1018
  297loPI   C4B 4752   9.319  -1.076   8.347 -0.2638  0.0348 -0.1976
  298loPI    C1 4753  18.171   4.468  10.165  0.0740  0.2105  0.2136
  298loPI    C2 4754  18.275   4.612  10.523 -0.0819  0.2456  0.2458
  298loPI    C3 4755  18.532   4.387  10.315  0.1624  0.5612  0.1993
  298loPI   PO4 4756  18.050   4.602  10.005 -0.0315  0.3585  0.0827
  298loPI   GL1 4757  17.883   4.541   9.647 -0.0823 -0.1248  0.1275
  298loPI   GL2 4758  17.660   4.460   9.750 -0.0987 -0.0498 -0.1184
  298loPI   C1A 4759  18.073   4.509   9.177 -0.1955  0.0224 -0.0280
  298loPI   C2A 4760  18.100   4.362   8.730  0.3838  0.2647 -0.2494
  298loPI   C3A 4761  17.929   4.301   8.304 -0.1312  0.0615 -0.2671
  298loPI   C4A 4762  17.765   4.397   7.834  0.0661 -0.1668  0.2383
  298loPI   C5A 4763  17.856   4.713   7.643 -0.2505 -0.1544 -0.1688
  298loPI   C6A 4764  17.929   4.908   7.327 -0.2453 -0.3998  0.0616
  298loPI   C1B 4765  17.554   4.414   9.235  0.0151  0.2389 -0.1051
  298loPI   C2B 4766  17.522   4.506   8.746  0.2349  0.1651 -0.0710
  298loPI   C3B 4767  17.375   4.431   8.286 -0.1799 -0.1753  0.1248
  298loPI   C4B 4768  17.041   4.536   7.903  0.1507  0.0555 -0.0030
  299loPI    C1 4769  13.569   0.214  10.206  0.2917  0.3161  0.1216
  299loPI    C2 4770  13.426  -0.067  10.453  0.1465  0.0686 -0.2347
  299loPI    C3 4771  13.527   0.293  10.595 -0.1067 -0.0076  0.1514
  299loPI   PO4 4772  13.729   0.092  10.104 -0.0943  0.0272 -0.0633
  299loPI   GL1 4773  13.727  -0.262   9.798 -0.1093  0.0160  0.1850
  299loPI   GL2 4774  13.471  -0.186   9.559  0.1506  0.2261 -0.0437
  299loPI   C1A 4775  13.758  -0.614   9.545 -0.1932 -0.0404  0.2806
  299loPI   C2A 4776  13.955  -0.602   9.097  0.1374  0.0983 -0.4144
  299loPI   C3A 4777  13.971  -0.425   8.679  0.0760  0.0206 -0.1189
  299loPI   C4A 4778  14.037  -0.179   8.361 -0.2644 -0.0736  0.0180
  299loPI   C5A 4779  14.203   0.018   7.987 -0.0068 -0.1458  0.0631
  299loPI   C6A 4780  14.255   0.318   7.617  0.3733 -0.1276  0.1242
  299loPI   C1B 4781  13.712  -0.216   9.176  0.0103  0.2398  0.1160
  299loPI   C2B 4782  13.764  -0.013   8.764  0.0284  0.4051  0.3363
  299loPI   C3B 4783  13.416  -0.053   8.451  0.0637  0.1843  0.0018
  299loPI   C4B 4784  13.238  -0.049   8.105 -0.1834 -0.2839 -0.4690
  300loPI    C1 4785  12.019  12.926  10.994 -0.0826  0.2848 -0.1302
  300loPI    C2 4786  11.623  12.890  11.041 -0.0287 -0.1603  0.0317
  300loPI    C3 4787  11.871  12.772  11.332  0.2243  0.2092 -0.0269
  300loPI   PO4 4788  11.952  12.931  10.579 -0.0158  0.1418 -0.1565
  300loPI   GL1 4789  12.036  13.028  10.214 -0.1250 -0.0031 -0.1037
  300loPI   GL2 4790  12.398  13.039  10.244 -0.0081  0.0591 -0.3477
  300loPI   C1A 4791  12.150  13.179   9.752 -0.1787  0.1819  0.1337
  300loPI   C2A 4792  12.025  13.067   9.318 -0.2668  0.0998  0.1679
  300loPI   C3A 4793  12.263  13.001   8.973  0.2507 -0.2666  0.1585
  300loPI   C4A 4794  12.214  13.226   8.537  0.0866  0.0210  0.0137
  300loPI   C5A 4795  12.229  13.456   8.183  0.3231 -0.0470 -0.1372
  300loPI   C6A 4796  11.968  13.499   7.858 -0.0869  0.0423  0.1817
  300loPI   C1B 4797  12.133  12.631   9.870 -0.3447  0.3661  0.1000
  300loPI   C2B 4798  12.029  12.475   9.478  0.3939  0.5221  0.0513
  300loPI   C3B 4799  11.893  12.643   9.142 -0.1818 -0.0453 -0.0387
  300loPI   C4B 4800  11.730  12.712   8.691  0.0194  0.0821  0.0660
  301loPI    C1 4801  15.990   1.588  10.410 -0.0828  0.1175 -0.1816
  301loPI    C2 4802  15.791   1.243  10.377  0.2851 -0.1333  0.1369
  301loPI    C3 4803  15.658   1.528  10.624  0.0292 -0.0785 -0.0600
  301loPI   PO4 4804  15.982   1.645  10.160  0.1771  0.1462 -0.0941
  301loPI   GL1 4805  15.709   1.786   9.897 -0.2819  0.3281  0.3627
  301loPI   GL2 4806  15.430   1.759   9.770 -0.0378  0.1846  0.1146
  301loPI   C1A 4807  15.891   1.618   9.478 -0.2111 -0.0138 -0.2184
  301loPI   C2A 4808  15.813   1.646   9.081  0.1882  0.1839 -0.1442
  301loPI   C3A 4809  15.837   1.452   8.611 -0.1135  0.2073  0.0113
  301loPI   C4A 4810  15.836   1.424   8.256 -0.0644 -0.0388  0.5159
  301loPI   C5A 4811  16.007   1.250   7.826  0.2417  0.0354 -0.0423
  301loPI   C6A 4812  16.303   0.972   7.575 -0.2565 -0.2372  0.1261
  301loPI   C1B 4813  15.134   1.996   9.491 -0.1728 -0.1044 -0.0482
  301loPI   C2B 4814  15.072   2.118   9.070 -0.1456  0.0520 -0.0688
  301loPI   C3B 4815  15.136   2.193   8.741 -0.0763 -0.3116  0.1684
  301loPI   C4B 4816  15.237   2.013   8.391  0.1326  0.3940 -0.0826
  302loPI    C1 4817   7.361  13.976  10.568 -0.1620  0.3716 -0.0073
  302loPI    C2 4818   7.572  14.094  10.887 -0.0992  0.0614  0.0690
  302loPI    C3 4819   7.246  13.867  10.935 -0.0478 -0.0483 -0.0906
  302loPI   PO4 4820   7.272  14.187  10.427  0.1340 -0.2683 -0.2640
  302loPI   GL1 4821   7.471  14.333  10.010 -0.1842  0.1963 -0.0290
  302loPI   GL2 4822   7.095  14.495   9.964 -0.1726 -0.0497  0.2878
  302loPI   C1A 4823   7.571  14.508   9.629 -0.0027  0.1697  0.4530
  302loPI   C2A 4824   7.523  14.644   9.205  0.1335 -0.1458  0.0890
  302loPI   C3A 4825   7.362  14.521   8.739  0.1195  0.0127 -0.0331
  302loPI   C4A 4826   7.577  14.568   8.387  0.3600  0.1336  0.0013
  302loPI   C5A 4827   7.587  14.603   7.910  0.1004 -0.1595  0.1994
  302loPI   C6A 4828   7.570  14.293   7.670 -0.0719 -0.3089  0.0265
  302loPI   C1B 4829   7.117  14.262   9.625 -0.2813  0.0777  0.0903
  302loPI   C2B 4830   7.158  14.160   9.156 -0.1274  0.3040 -0.1145
  302loPI   C3B 4831   7.203  14.057   8.746 -0.1613 -0.2705 -0.4180
  302loPI   C4B 4832   7.269  14.089   8.310  0.0829  0.1419  0.0539
  303loPI    C1 4833   8.517   3.346  10.147  0.2057 -0.0457 -0.0076
  303loPI    C2 4834   8.529   3.693   9.948 -0.2345  0.0607  0.1387
  303loPI    C3 4835   8.755   3.640  10.273 -0.0320  0.1414  0.0128
  303loPI   PO4 4836   8.561   3.162  10.062 -0.0669 -0.1393 -0.0348
  303loPI   GL1 4837   8.768   2.935   9.727  0.0369  0.1882 -0.0070
  303loPI   GL2 4838   8.532   2.811   9.560  0.1142 -0.2294  0.2503
  303loPI   C1A 4839   8.962   3.211   9.323  0.4235  0.0402 -0.0761
  303loPI   C2A 4840   9.016   3.220   8.996  0.0291 -0.1791  0.1661
  303loPI   C3A 4841   8.809   3.254   8.643 -0.0541  0.1386 -0.2650
  303loPI   C4A 4842   8.732   3.157   8.211  0.2825  0.0226 -0.0146
  303loPI   C5A 4843   8.874   3.372   7.918  0.0709  0.1423  0.3400
  303loPI   C6A 4844   8.817   3.470   7.505  0.2954  0.0250 -0.1693
  303loPI   C1B 4845   8.576   2.976   9.149 -0.3065 -0.1465 -0.1559
  303loPI   C2B 4846   8.477   2.916   8.777  0.1202 -0.1346  0.1458
  303loPI   C3B 4847   8.288   3.022   8.385  0.0227  0.2726 -0.2245
  303loPI   C4B 4848   8.295   3.409   8.069 -0.4104 -0.0183 -0.0944
  304loPI    C1 4849  14.659  12.482  10.900 -0.0934 -0.1630 -0.0138
  304loPI    C2 4850  14.796  12.638  11.242  0.0690  0.1751 -0.2281
  304loPI    C3 4851  14.409  12.545  11.206  0.0725  0.0253  0.0853
  304loPI   PO4 4852  14.902  12.295  10.774  0.0859 -0.2331  0.3243
  304loPI   GL1 4853  14.903  12.425  10.408 -0.0134 -0.2263 -0.0957
  304loPI   GL2 4854  14.782  12.138  10.285  0.0186  0.1178  0.0393
  304loPI   C1A 4855  14.903  12.699   9.975 -0.2836  0.1264  0.2553
  304loPI   C2A 4856  14.904  12.703   9.531  0.0424 -0.0646 -0.2876
  304loPI   C3A 4857  14.876  12.709   9.118  0.1016  0.0174  0.1228
  304loPI   C4A 4858  14.886  12.706   8.632 -0.1059  0.0267  0.0862
  304loPI   C5A 4859  14.696  12.774   8.246 -0.0970  0.1764 -0.3446
  304loPI   C6A 4860  14.913  12.923   7.881  0.0521  0.2450  0.0630
  304loPI   C1B 4861  14.872  12.189   9.787  0.0290 -0.1031  0.2115
  304loPI   C2B 4862  14.785  12.252   9.377  0.0953 -0.1408  0.0204
  304loPI   C3B 4863  14.855  12.239   8.934  0.2151 -0.5367 -0.0467
  304loPI   C4B 4864  14.691  12.232   8.534 -0.2406  0.3686  0.1952
  305loPI    C1 4865  16.144  18.522  10.523 -0.1424  0.2851  0.0684
  305loPI    C2 4866  16.026  18.350  10.864 -0.0557 -0.2313 -0.1528
  305loPI    C3 4867  15.754  18.488  10.604 -0.1256 -0.0084  0.0353
  305loPI   PO4 4868  16.362  18.368  10.472 -0.0067  0.3147 -0.2003
  305loPI   GL1 4869  16.525  18.249  10.052  0.2115 -0.3799 -0.2271
  305loPI   GL2 4870  16.669  18.077   9.846 -0.1694  0.2214  0.1328
  305loPI   C1A 4871  16.217  18.336   9.702  0.0165 -0.1407 -0.0184
  305loPI   C2A 4872  16.223  18.150   9.304  0.0625  0.0206  0.0615
  305loPI   C3A 4873  16.191  18.061   8.857 -0.3104 -0.1063  0.1528
  305loPI   C4A 4874  16.097  18.380   8.584  0.0024  0.0052 -0.1164
  305loPI   C5A 4875  15.948  18.473   8.219  0.3761  0.1140  0.2672
  305loPI   C6A 4876  15.836  18.545   7.847 -0.0954  0.1007  0.3279
  305loPI   C1B 4877  16.768  17.998   9.392  0.2507  0.1681 -0.2262
  305loPI   C2B 4878  16.685  17.994   8.996 -0.3553 -0.1966  0.1942
  305loPI   C3B 4879  16.606  17.921   8.549  0.1908 -0.0889 -0.0769
  305loPI   C4B 4880  16.254  18.049   8.225 -0.0272 -0.2175  0.2947
  306loPI    C1 4881  11.356  13.380  11.304 -0.1489 -0.0874 -0.0592
  306loPI    C2 4882  11.052  13.626  11.387  0.2211  0.4760 -0.3084
  306loPI    C3 4883  11.429  13.746  11.449  0.4122 -0.0539 -0.3945
  306loPI   PO4 4884  11.287  13.274  11.103 -0.2613  0.1452 -0.0673
  306loPI   GL1 4885  11.221  13.269  10.700 -0.2246 -0.0139 -0.0748
  306loPI   GL2 4886  11.375  12.948  10.617  0.1604  0.0147 -0.3104
  306loPI   C1A 4887  11.510  13.391  10.409 -0.0969  0.1378  0.0899
  306loPI   C2A 4888  11.633  13.287   9.917  0.0485  0.0947  0.2394
  306loPI   C3A 4889  11.659  13.348   9.489 -0.1594  0.0957  0.2427
  306loPI   C4A 4890  11.893  13.472   9.103  0.0428  0.1010  0.2696
  306loPI   C5A 4891  11.800  13.583   8.734  0.2635  0.0901 -0.2810
  306loPI   C6A 4892  11.808  13.688   8.298  0.0423 -0.2079 -0.0809
  306loPI   C1B 4893  11.533  12.874  10.152  0.2437  0.1181  0.2679
  306loPI   C2B 4894  11.568  12.759   9.631  0.1419 -0.2715 -0.0444
  306loPI   C3B 4895  11.487  12.917   9.151  0.1434  0.1710 -0.1376
  306loPI   C4B 4896  11.506  13.138   8.759 -0.0316 -0.1137  0.0928
  307loPI    C1 4897  16.080   2.176  10.543 -0.3131 -0.2073  0.1644
  307loPI    C2 4898  15.873   1.974  10.820 -0.4382  0.0824  0.2863
  307loPI    C3 4899  16.147   2.243  10.932 -0.1568 -0.1323  0.1251
  307loPI   PO4 4900  16.173   2.081  10.409  0.2194 -0.1151 -0.0989
  307loPI   GL1 4901  16.148   2.075  10.012 -0.2393 -0.3316  0.0717
  307loPI   GL2 4902  16.306   1.760   9.845  0.0330 -0.0605  0.4882
  307loPI   C1A 4903  16.172   2.139   9.571 -0.2938 -0.2643 -0.1053
  307loPI   C2A 4904  16.149   2.015   9.216 -0.0560  0.0429 -0.2974
  307loPI   C3A 4905  16.126   1.887   8.727  0.1079  0.4696 -0.0530
  307loPI   C4A 4906  16.241   1.943   8.316  0.1785 -0.0483  0.1547
  307loPI   C5A 4907  16.426   1.896   7.962 -0.2106  0.4900 -0.0041
  307loPI   C6A 4908  16.535   1.503   7.790 -0.0397  0.0261  0.3210
  307loPI   C1B 4909  16.337   1.499   9.546  0.1117 -0.0349 -0.1995
  307loPI   C2B 4910  16.295   1.520   9.123 -0.1725  0.0144 -0.0035
  307loPI   C3B 4911  16.318   1.457   8.685 -0.0469  0.2441 -0.0830
  307loPI   C4B 4912  16.364   1.473   8.228  0.3543 -0.1348  0.2458
  308loPI    C1 4913   6.475  16.875  10.408  0.0369  0.0240  0.1111
  308loPI    C2 4914   6.714  16.592  10.559 -0.0459 -0.1856 -0.1423
  308loPI    C3 4915   6.324  16.518  10.506 -0.1064  0.0437 -0.0314
  308loPI   PO4 4916   6.591  16.946  10.111 -0.3144 -0.0439 -0.0758
  308loPI   GL1 4917   6.687  16.865   9.793 -0.1895 -0.2725 -0.1499
  308loPI   GL2 4918   6.777  17.115   9.608 -0.1301 -0.4136 -0.1136
  308loPI   C1A 4919   6.432  16.569   9.491 -0.0796 -0.3039  0.0943
  308loPI   C2A 4920   5.990  16.498   9.208  0.0723  0.4439  0.0752
  308loPI   C3A 4921   5.742  16.832   8.979  0.2269  0.1111 -0.0960
  308loPI   C4A 4922   5.690  17.129   8.617 -0.2698  0.0422 -0.1492
  308loPI   C5A 4923   5.719  17.015   8.210 -0.0159  0.2691 -0.3129
  308loPI   C6A 4924   5.568  17.093   7.721  0.2317 -0.3184 -0.1061
  308loPI   C1B 4925   6.895  16.924   9.262 -0.0515  0.0313 -0.0718
  308loPI   C2B 4926   6.909  16.834   8.922  0.1207 -0.2141 -0.1169
  308loPI   C3B 4927   7.034  16.973   8.478 -0.0297 -0.0642 -0.0851
  308loPI   C4B 4928   6.945  16.641   8.151 -0.2172 -0.1261 -0.0045
  309loPI    C1 4929   8.429  12.587  10.595 -0.0995  0.0434  0.0502
  309loPI    C2 4930   8.110  12.798  10.711 -0.0543  0.1167  0.0416
  309loPI    C3 4931   8.270  12.526  10.957  0.0058  0.2301  0.1292
  309loPI   PO4 4932   8.438  12.671  10.350 -0.0635 -0.1660  0.1490
  309loPI   GL1 4933   8.557  12.468  10.028  0.0180 -0.0729 -0.2431
  309loPI   GL2 4934   8.269  12.477   9.860 -0.0223  0.0640  0.0142
  309loPI   C1A 4935   8.774  12.587   9.629  0.0295 -0.1120  0.0896
  309loPI   C2A 4936   8.936  12.863   9.341  0.0649  0.1180  0.0291
  309loPI   C3A 4937   8.724  13.099   9.036  0.0297 -0.1847 -0.3837
  309loPI   C4A 4938   8.554  13.250   8.615 -0.1379 -0.1659  0.1793
  309loPI   C5A 4939   8.450  13.388   8.167 -0.0326  0.0713  0.0649
  309loPI   C6A 4940   8.518  13.607   7.784  0.2443  0.0080 -0.0958
  309loPI   C1B 4941   8.309  12.238   9.501 -0.2135 -0.1126  0.1362
  309loPI   C2B 4942   8.329  12.131   9.127  0.3229  0.2753 -0.1503
  309loPI   C3B 4943   8.290  12.398   8.749  0.4197 -0.0895  0.0366
  309loPI   C4B 4944   8.134  12.484   8.305  0.3208 -0.2582  0.0819
  310loPI    C1 4945  14.583  10.142  10.527 -0.0017 -0.0215 -0.1566
  310loPI    C2 4946  14.276  10.271  10.306 -0.1196  0.0629  0.0535
  310loPI    C3 4947  14.343  10.429  10.667  0.0601 -0.0859  0.0869
  310loPI   PO4 4948  14.698  10.176  10.433  0.1260  0.0295  0.1699
  310loPI   GL1 4949  14.675  10.408  10.006 -0.4008  0.3203  0.1071
  310loPI   GL2 4950  14.941  10.593  10.018  0.1513  0.0183  0.1236
  310loPI   C1A 4951  14.523  10.074   9.740  0.0112 -0.2040 -0.0863
  310loPI   C2A 4952  14.507  10.140   9.398 -0.0138  0.1378 -0.1258
  310loPI   C3A 4953  14.363  10.051   9.051 -0.1532 -0.1313 -0.1039
  310loPI   C4A 4954  14.014   9.839   9.086  0.2393 -0.2043 -0.1204
  310loPI   C5A 4955  13.809   9.687   8.742 -0.2283 -0.3376 -0.6354
  310loPI   C6A 4956  13.673   9.504   8.260 -0.3340 -0.0579 -0.2398
  310loPI   C1B 4957  14.653  10.578   9.538 -0.4852  0.2561 -0.1331
  310loPI   C2B 4958  14.577  10.748   9.142  0.1974 -0.0661 -0.0712
  310loPI   C3B 4959  14.674  10.637   8.719 -0.1200 -0.0517 -0.0120
  310loPI   C4B 4960  14.608  10.761   8.326 -0.0449 -0.0868  0.0161
  311loPI    C1 4961   1.954  17.337  10.284 -0.1799 -0.0508  0.0385
  311loPI    C2 4962   2.300  17.374  10.482 -0.1833 -0.3342  0.1017
  311loPI    C3 4963   2.008  17.642  10.537  0.0356 -0.0758  0.0247
  311loPI   PO4 4964   2.132  17.152  10.081 -0.2188  0.1715 -0.0055
  311loPI   GL1 4965   2.099  17.253   9.569  0.3907 -0.0017  0.4079
  311loPI   GL2 4966   2.306  17.534   9.568  0.3628  0.4564 -0.4048
  311loPI   C1A 4967   2.027  17.173   9.151  0.3968 -0.2445  0.1283
  311loPI   C2A 4968   1.927  17.099   8.697  0.0395  0.0077 -0.1052
  311loPI   C3A 4969   1.965  17.161   8.225  0.0867  0.0870  0.1480
  311loPI   C4A 4970   1.952  17.047   7.805 -0.0856 -0.1078  0.1470
  311loPI   C5A 4971   1.620  17.263   7.505  0.0668 -0.2482  0.1458
  311loPI   C6A 4972   1.250  17.340   7.168 -0.2352 -0.1475  0.1134
  311loPI   C1B 4973   2.127  17.663   9.177  0.3071  0.0401  0.0198
  311loPI   C2B 4974   2.269  17.526   8.735  0.1708  0.0531 -0.3434
  311loPI   C3B 4975   2.383  17.252   8.479  0.0072 -0.1014  0.1926
  311loPI   C4B 4976   2.411  17.069   8.079 -0.1072 -0.0773  0.1080
  312loPI    C1 4977  14.150   8.436  10.222  0.1671  0.1940 -0.0339
  312loPI    C2 4978  14.213   8.322  10.600  0.0991  0.1109 -0.0473
  312loPI    C3 4979  14.160   8.709  10.514  0.2860  0.1491  0.0047
  312loPI   PO4 4980  13.896   8.253  10.172 -0.0078  0.0832  0.0463
  312loPI   GL1 4981  13.874   8.335   9.829  0.1391  0.2876  0.3384
  312loPI   GL2 4982  14.127   8.163   9.735 -0.1217 -0.0043 -0.1573
  312loPI   C1A 4983  13.594   8.445   9.468  0.0990 -0.1865  0.2563
  312loPI   C2A 4984  13.466   8.296   9.033 -0.2543 -0.1489 -0.2500
  312loPI   C3A 4985  13.284   8.167   8.689 -0.0623 -0.1790  0.4048
  312loPI   C4A 4986  13.252   7.983   8.377 -0.4329 -0.0629  0.1090
  312loPI   C5A 4987  13.339   8.030   8.019  0.1348 -0.0146  0.0950
  312loPI   C6A 4988  13.535   7.870   7.549 -0.1693 -0.1273  0.3357
  312loPI   C1B 4989  14.206   8.070   9.300 -0.0726  0.0137  0.0991
  312loPI   C2B 4990  14.249   7.831   9.032 -0.2019 -0.1735 -0.0036
  312loPI   C3B 4991  14.076   7.747   8.576  0.0135  0.1988  0.2348
  312loPI   C4B 4992  14.201   7.668   8.272 -0.0331 -0.2042  0.1232
  313loPI    C1 4993   6.804  16.145  10.137  0.3695 -0.2557  0.0068
  313loPI    C2 4994   6.457  15.969  10.044  0.0209  0.4175 -0.0274
  313loPI    C3 4995   6.532  16.076  10.422  0.1396  0.3856 -0.0414
  313loPI   PO4 4996   6.839  16.428  10.061  0.2608 -0.0857  0.2281
  313loPI   GL1 4997   6.928  16.440   9.635 -0.0639 -0.0611 -0.0687
  313loPI   GL2 4998   7.181  16.614   9.561  0.2741  0.0274 -0.2668
  313loPI   C1A 4999   6.591  16.127   9.582 -0.0591  0.2384 -0.0393
  313loPI   C2A 5000   6.280  16.022   9.311 -0.0211 -0.1565  0.0980
  313loPI   C3A 5001   6.288  15.823   8.829 -0.3537 -0.2089  0.0612
  313loPI   C4A 5002   6.247  15.517   8.512  0.0480  0.0612 -0.0200
  313loPI   C5A 5003   6.314  15.355   8.040  0.0262  0.2741  0.2256
  313loPI   C6A 5004   5.959  15.405   7.825  0.1956 -0.2807  0.1894
  313loPI   C1B 5005   7.075  16.441   9.160 -0.0814  0.3259  0.0945
  313loPI   C2B 5006   7.131  16.329   8.786 -0.0048 -0.0129 -0.1690
  313loPI   C3B 5007   7.080  16.240   8.386  0.1845 -0.1465 -0.0492
  313loPI   C4B 5008   6.846  16.059   8.061  0.0186 -0.2892  0.2670
  314loPI    C1 5009   9.723   5.309  10.435  0.1634  0.1784  0.0061
  314loPI    C2 5010   9.674   5.705  10.456 -0.0106  0.1749 -0.2867
  314loPI    C3 5011   9.473   5.466  10.705  0.2625  0.2782  0.0407
  314loPI   PO4 5012   9.774   5.321  10.156 -0.2730 -0.1459  0.1344
  314loPI   GL1 5013   9.732   5.597   9.808  0.1806  0.1093 -0.1252
  314loPI   GL2 5014  10.081   5.566   9.807 -0.1966  0.0356 -0.0949
  314loPI   C1A 5015   9.751   5.618   9.367 -0.0261  0.4294  0.0362
  314loPI   C2A 5016   9.697   5.615   8.961 -0.2244 -0.0671 -0.2204
  314loPI   C3A 5017   9.653   5.600   8.563 -0.2392 -0.2077  0.0515
  314loPI   C4A 5018   9.635   5.488   8.123  0.2891 -0.1114 -0.0575
  314loPI   C5A 5019  10.027   5.371   7.804  0.1343  0.0994  0.0161
  314loPI   C6A 5020  10.369   5.185   8.018  0.1179 -0.0954 -0.4208
  314loPI   C1B 5021  10.219   5.456   9.365 -0.0312 -0.1273  0.0100
  314loPI   C2B 5022  10.364   5.322   8.997  0.2526  0.1001  0.0107
  314loPI   C3B 5023  10.442   5.133   8.592  0.1034  0.1725 -0.2106
  314loPI   C4B 5024  10.716   4.948   8.455  0.2394  0.1108 -0.1763
  315loPI    C1 5025   1.591  12.121  10.398 -0.1150  0.0938  0.1049
  315loPI    C2 5026   1.945  12.295  10.468 -0.0815  0.0642  0.0114
  315loPI    C3 5027   1.616  12.429  10.652 -0.0175  0.0753  0.1183
  315loPI   PO4 5028   1.691  11.995  10.142  0.2015 -0.1965 -0.0242
  315loPI   GL1 5029   1.523  11.793   9.742  0.3973 -0.1532 -0.1813
  315loPI   GL2 5030   1.612  12.092   9.641  0.1547  0.1105  0.1537
  315loPI   C1A 5031   1.490  11.335   9.385  0.0876 -0.1873 -0.2560
  315loPI   C2A 5032   1.685  11.032   9.125  0.0149  0.0561  0.0623
  315loPI   C3A 5033   1.676  10.808   8.779 -0.0476 -0.1017  0.0470
  315loPI   C4A 5034   1.636  10.609   8.364  0.1581 -0.4463 -0.0766
  315loPI   C5A 5035   1.521  10.573   7.855 -0.1800  0.0286  0.0448
  315loPI   C6A 5036   1.338  10.813   7.570 -0.3567 -0.1409  0.0927
  315loPI   C1B 5037   1.499  12.043   9.185 -0.2122  0.4040  0.4470
  315loPI   C2B 5038   1.479  11.991   8.718 -0.4299  0.2467 -0.0575
  315loPI   C3B 5039   1.827  11.795   8.454 -0.2031  0.1481  0.0610
  315loPI   C4B 5040   1.945  11.538   8.179  0.2688  0.4088  0.1573
  316loPI    C1 5041   2.505  15.031   9.676 -0.0492 -0.1247 -0.0884
  316loPI    C2 5042   2.397  15.359   9.878  0.2047  0.0388 -0.2133
  316loPI    C3 5043   2.537  15.041  10.075  0.3105  0.1427 -0.1188
  316loPI   PO4 5044   2.584  15.138   9.489  0.1528  0.2233  0.1646
  316loPI   GL1 5045   2.529  15.150   9.009 -0.2577 -0.1350 -0.0807
  316loPI   GL2 5046   2.560  15.506   9.083 -0.0380  0.6286 -0.1147
  316loPI   C1A 5047   2.633  15.323   8.582  0.3087  0.0522  0.1633
  316loPI   C2A 5048   2.568  15.282   8.096 -0.1983  0.0386 -0.0625
  316loPI   C3A 5049   2.636  15.413   7.696  0.0404 -0.1102 -0.2933
  316loPI   C4A 5050   2.609  15.747   7.350  0.0985  0.1616 -0.1862
  316loPI   C5A 5051   2.841  15.725   7.105  0.2053 -0.0773 -0.0245
  316loPI   C6A 5052   2.843  15.668   6.667 -0.1711 -0.2805  0.0799
  316loPI   C1B 5053   2.517  15.737   8.772 -0.0886  0.3552  0.2092
  316loPI   C2B 5054   2.463  15.735   8.378 -0.2470 -0.4235  0.0265
  316loPI   C3B 5055   2.524  15.830   7.941 -0.0061 -0.0400 -0.0045
  316loPI   C4B 5056   2.541  16.145   7.680  0.1875  0.0039 -0.0223
  317loPI    C1 5057   3.165   3.764  10.324  0.1245  0.1576  0.0607
  317loPI    C2 5058   2.852   3.713  10.568 -0.0279 -0.2822 -0.2160
  317loPI    C3 5059   3.223   3.655  10.704 -0.0820 -0.0602  0.0325
  317loPI   PO4 5060   3.045   3.597  10.139  0.0797 -0.3731 -0.0251
  317loPI   GL1 5061   3.062   3.419   9.745  0.0779  0.4046 -0.0634
  317loPI   GL2 5062   3.363   3.489   9.604  0.0284  0.1828  0.4351
  317loPI   C1A 5063   3.001   3.260   9.262  0.0764  0.1693  0.0871
  317loPI   C2A 5064   2.845   3.173   8.796  0.1879  0.2927 -0.2815
  317loPI   C3A 5065   2.697   2.983   8.382 -0.3771  0.2713  0.3889
  317loPI   C4A 5066   2.940   2.649   8.237  0.3731 -0.1808  0.0836
  317loPI   C5A 5067   3.307   2.592   8.018 -0.1530 -0.2233  0.0331
  317loPI   C6A 5068   3.498   2.289   7.783  0.1721 -0.1766 -0.2018
  317loPI   C1B 5069   3.354   3.560   9.112  0.1685 -0.0988  0.1535
  317loPI   C2B 5070   3.225   3.733   8.667  0.0768 -0.0740  0.4160
  317loPI   C3B 5071   3.012   3.579   8.361 -0.3285 -0.0765  0.1042
  317loPI   C4B 5072   2.971   3.771   7.918  0.1966 -0.2985 -0.3210
  318loPI    C1 5073   5.985  16.820  10.236  0.0844  0.1267  0.0273
  318loPI    C2 5074   5.847  16.712  10.595 -0.3312  0.2401 -0.0924
  318loPI    C3 5075   6.059  17.049  10.555  0.1562 -0.0307  0.1244
  318loPI   PO4 5076   5.761  16.622  10.103 -0.0477 -0.0105 -0.1467
  318loPI   GL1 5077   5.732  16.647   9.674  0.0112 -0.1802  0.3207
  318loPI   GL2 5078   5.584  16.934   9.427  0.1477 -0.0041  0.1261
  318loPI   C1A 5079   5.523  16.473   9.216  0.0399 -0.1795 -0.2111
  318loPI   C2A 5080   5.545  16.425   8.791  0.1888  0.1023  0.0772
  318loPI   C3A 5081   5.852  16.436   8.533  0.1106 -0.0240  0.0646
  318loPI   C4A 5082   6.234  16.317   8.546 -0.2032  0.0015 -0.2412
  318loPI   C5A 5083   6.503  16.031   8.460 -0.1198 -0.0986 -0.1379
  318loPI   C6A 5084   6.838  15.879   8.622 -0.0755 -0.0200  0.2797
  318loPI   C1B 5085   5.867  17.116   9.325 -0.0549 -0.3697  0.1432
  318loPI   C2B 5086   6.097  17.275   8.927 -0.2478 -0.0881  0.0370
  318loPI   C3B 5087   6.131  17.307   8.503  0.0106  0.1718 -0.3233
  318loPI   C4B 5088   6.121  17.356   8.175  0.1031 -0.3082 -0.2696
  319loPI    C1 5089   4.056   8.991   9.786  0.1411  0.2217  0.0442
  319loPI    C2 5090   3.929   8.658   9.969  0.3020  0.1849  0.0904
  319loPI    C3 5091   3.868   9.015  10.139  0.0456  0.1879 -0.0043
  319loPI   PO4 5092   4.027   8.875   9.542  0.1010  0.2020 -0.1471
  319loPI   GL1 5093   4.262   8.803   9.232  0.2067  0.4896  0.2853
  319loPI   GL2 5094   4.436   8.537   9.221 -0.0719 -0.2649 -0.4371
  319loPI   C1A 5095   4.306   8.949   8.848  0.1153  0.2341  0.0455
  319loPI   C2A 5096   4.337   8.920   8.386  0.0836 -0.0315  0.1554
  319loPI   C3A 5097   4.365   8.850   8.027  0.2363  0.0601  0.0397
  319loPI   C4A 5098   4.166   8.929   7.616 -0.0271 -0.0600 -0.0643
  319loPI   C5A 5099   4.019   8.725   7.285 -0.0315 -0.1348  0.0555
  319loPI   C6A 5100   4.236   8.408   6.941  0.0173 -0.1080  0.2019
  319loPI   C1B 5101   4.354   8.458   8.751  0.5350 -0.0230  0.1825
  319loPI   C2B 5102   4.586   8.495   8.347  0.3294  0.1280 -0.1171
  319loPI   C3B 5103   4.536   8.421   7.957  0.2276  0.0851  0.0791
  319loPI   C4B 5104   4.472   8.550   7.506  0.1449 -0.2572 -0.1700
  320loPI    C1 5105   9.976  15.228  11.077  0.2219 -0.0951 -0.3303
  320loPI    C2 5106  10.343  15.111  11.185  0.0565 -0.1868  0.1570
  320loPI    C3 5107  10.029  14.870  11.248 -0.0908 -0.1157 -0.2698
  320loPI   PO4 5108   9.995  15.401  10.798 -0.0085  0.2233  0.0430
  320loPI   GL1 5109  10.271  15.315  10.514  0.1836 -0.0790 -0.1042
  320loPI   GL2 5110  10.161  15.602  10.349  0.1760  0.2994  0.3114
  320loPI   C1A 5111   9.926  15.112  10.246 -0.0987 -0.2801 -0.1029
  320loPI   C2A 5112   9.821  15.154   9.871  0.0395 -0.0262 -0.0765
  320loPI   C3A 5113   9.825  15.084   9.456  0.0698  0.0476  0.0764
  320loPI   C4A 5114   9.827  15.093   8.992  0.0443  0.1657  0.0487
  320loPI   C5A 5115   9.822  15.152   8.565  0.2415  0.0003  0.0048
  320loPI   C6A 5116   9.988  15.295   8.204 -0.1105  0.0188  0.0418
  320loPI   C1B 5117  10.248  15.415  10.007 -0.3372  0.1680 -0.0773
  320loPI   C2B 5118  10.341  15.287   9.570  0.1130 -0.2975 -0.1206
  320loPI   C3B 5119  10.258  15.289   9.094  0.2057 -0.0835 -0.1388
  320loPI   C4B 5120  10.147  15.512   8.673 -0.2721 -0.0545 -0.0034
  321loPI    C1 5121  11.151  10.238  10.500  0.4793  0.0087  0.0301
  321loPI    C2 5122  10.817  10.100  10.670  0.4070  0.2177  0.0610
  321loPI    C3 5123  11.157   9.893  10.701  0.2966  0.0378  0.0880
  321loPI   PO4 5124  11.078  10.304  10.148 -0.3119  0.1186  0.1322
  321loPI   GL1 5125  11.280  10.362   9.788  0.0188 -0.1099 -0.2349
  321loPI   GL2 5126  11.450  10.140   9.602 -0.0280 -0.0604 -0.0501
  321loPI   C1A 5127  11.243  10.816   9.663  0.2969 -0.2611 -0.0219
  321loPI   C2A 5128  10.968  11.130   9.459 -0.2390  0.0036 -0.2071
  321loPI   C3A 5129  10.757  11.176   9.064 -0.1457  0.1270 -0.3232
  321loPI   C4A 5130  10.514  11.378   8.689  0.2505 -0.6193 -0.0101
  321loPI   C5A 5131  10.334  11.183   8.343 -0.0944 -0.5344  0.1231
  321loPI   C6A 5132  10.307  10.897   8.115  0.0462  0.2994 -0.2010
  321loPI   C1B 5133  11.340   9.934   9.258  0.0519 -0.3912 -0.2419
  321loPI   C2B 5134  11.119   9.695   8.992  0.1472  0.1593  0.1224
  321loPI   C3B 5135  11.199   9.791   8.529 -0.1561  0.0560  0.2338
  321loPI   C4B 5136  11.163   9.755   8.033 -0.1999 -0.1195 -0.0083
  322loPI    C1 5137  15.883  13.927  11.084 -0.0196 -0.1725 -0.0829
  322loPI    C2 5138  16.265  13.887  11.197  0.0125  0.2025 -0.0468
  322loPI    C3 5139  16.016  14.117  11.410 -0.2400 -0.0505 -0.0624
  322loPI   PO4 5140  15.856  13.842  10.799 -0.4821  0.0275  0.3316
  322loPI   GL1 5141  15.830  13.894  10.309  0.1464  0.0054 -0.0280
  322loPI   GL2 5142  16.038  13.591  10.361  0.0602 -0.0474  0.1282
  322loPI   C1A 5143  15.523  13.824   9.977 -0.2135 -0.1774  0.1656
  322loPI   C2A 5144  15.497  13.962   9.525 -0.2250 -0.1363  0.0589
  322loPI   C3A 5145  15.495  13.899   9.067 -0.1337  0.3194 -0.2920
  322loPI   C4A 5146  15.415  13.985   8.710  0.0700 -0.0431  0.3081
  322loPI   C5A 5147  15.640  14.053   8.387  0.0916 -0.1082 -0.0374
  322loPI   C6A 5148  16.074  14.057   8.315  0.2743  0.2991 -0.1097
  322loPI   C1B 5149  15.950  13.583   9.966 -0.1967 -0.0353 -0.0114
  322loPI   C2B 5150  15.883  13.608   9.516  0.0094  0.0751  0.1356
  322loPI   C3B 5151  15.880  13.544   9.085  0.2859  0.1892  0.3960
  322loPI   C4B 5152  15.874  13.614   8.673 -0.0943 -0.1030 -0.1669
  323loPI    C1 5153   5.805   4.284   9.770 -0.0411 -0.1721  0.0506
  323loPI    C2 5154   5.891   4.004  10.043  0.2753 -0.1047  0.0236
  323loPI    C3 5155   5.934   4.391  10.133 -0.0749 -0.0644  0.0311
  323loPI   PO4 5156   5.985   4.257   9.592 -0.0106  0.0344  0.0804
  323loPI   GL1 5157   6.048   4.172   9.144 -0.2778  0.1185  0.0213
  323loPI   GL2 5158   6.226   3.882   9.106 -0.0736 -0.0168  0.0157
  323loPI   C1A 5159   6.037   4.256   8.697 -0.2838 -0.2350  0.4566
  323loPI   C2A 5160   5.908   4.580   8.462 -0.3414  0.0657  0.4360
  323loPI   C3A 5161   5.723   4.706   8.033 -0.0919  0.1689 -0.2079
  323loPI   C4A 5162   5.673   4.863   7.651 -0.2266 -0.1967  0.0220
  323loPI   C5A 5163   5.268   4.865   7.329 -0.0004  0.0032  0.2481
  323loPI   C6A 5164   4.981   4.528   7.400 -0.0307 -0.4287  0.3506
  323loPI   C1B 5165   6.242   3.748   8.753  0.3354  0.0348 -0.2406
  323loPI   C2B 5166   6.133   3.752   8.331  0.2053 -0.2476  0.4691
  323loPI   C3B 5167   5.943   3.777   7.897 -0.1436 -0.1076 -0.1436
  323loPI   C4B 5168   5.630   3.700   7.722  0.2336  0.2657 -0.1988
  324loPI    C1 5169  12.638   0.937  10.503 -0.4412  0.2095 -0.4303
  324loPI    C2 5170  12.730   0.773  10.857  0.3040  0.3225 -0.5543
  324loPI    C3 5171  12.418   0.635  10.647 -0.0442  0.1395  0.0591
  324loPI   PO4 5172  12.870   0.949  10.377  0.0456  0.0556  0.0877
  324loPI   GL1 5173  12.958   0.955   9.986  0.1752  0.1588 -0.1084
  324loPI   GL2 5174  12.841   0.668   9.799  0.2764  0.3653  0.0228
  324loPI   C1A 5175  13.253   1.038   9.618  0.0105  0.3495  0.1257
  324loPI   C2A 5176  13.372   1.185   9.187 -0.2377 -0.0854  0.0368
  324loPI   C3A 5177  13.573   1.230   8.816 -0.0211 -0.0428  0.0171
  324loPI   C4A 5178  13.587   1.273   8.375 -0.0732  0.1387  0.0955
  324loPI   C5A 5179  13.568   1.016   7.965 -0.1904  0.0525 -0.0225
  324loPI   C6A 5180  13.848   1.022   7.737  0.3349  0.0093 -0.1126
  324loPI   C1B 5181  13.097   0.538   9.394 -0.0277 -0.3013 -0.0584
  324loPI   C2B 5182  13.214   0.738   9.032  0.1274  0.1419 -0.0148
  324loPI   C3B 5183  13.217   0.906   8.574 -0.0164  0.2004 -0.0133
  324loPI   C4B 5184  13.108   1.060   8.186  0.1230  0.1099  0.2544
  325loPI    C1 5185   7.209  15.379  10.360  0.2511 -0.2312  0.0977
  325loPI    C2 5186   7.023  15.399  10.714 -0.0030 -0.1778 -0.0364
  325loPI    C3 5187   7.121  15.735  10.520  0.0094 -0.2075 -0.0818
  325loPI   PO4 5188   7.400  15.227  10.340  0.2299  0.0086 -0.1431
  325loPI   GL1 5189   7.483  14.962   9.925 -0.1493 -0.3973  0.1573
  325loPI   GL2 5190   7.783  14.935  10.042  0.2695 -0.0553 -0.1033
  325loPI   C1A 5191   7.159  14.816   9.598 -0.0759 -0.1331  0.0400
  325loPI   C2A 5192   7.021  14.622   9.276  0.1027  0.0531 -0.1122
  325loPI   C3A 5193   6.877  14.500   8.887  0.0323  0.1670  0.0027
  325loPI   C4A 5194   6.841  14.379   8.463  0.0178  0.0205  0.2603
  325loPI   C5A 5195   6.660  14.173   8.022  0.0066 -0.0928  0.1549
  325loPI   C6A 5196   6.424  14.351   7.647  0.1791  0.0079 -0.0233
  325loPI   C1B 5197   7.919  14.920   9.680  0.1181 -0.1006  0.0274
  325loPI   C2B 5198   7.888  14.960   9.293 -0.0481  0.0999 -0.1932
  325loPI   C3B 5199   7.991  14.853   8.830 -0.1354 -0.1500 -0.2558
  325loPI   C4B 5200   8.072  14.912   8.404  0.2814 -0.4587  0.0925
  326loPI    C1 5201  17.685   4.424  10.258  0.1953 -0.0132  0.0164
  326loPI    C2 5202  17.838   4.380  10.625 -0.1607 -0.1015  0.1582
  326loPI    C3 5203  17.814   4.065  10.380 -0.0833 -0.0797  0.1221
  326loPI   PO4 5204  17.487   4.578  10.241 -0.2648  0.1110  0.1011
  326loPI   GL1 5205  17.242   4.755   9.986  0.0418 -0.0929  0.3453
  326loPI   GL2 5206  17.005   4.996   9.805 -0.0916  0.0529 -0.0549
  326loPI   C1A 5207  17.237   4.466   9.558  0.1871 -0.1489 -0.1093
  326loPI   C2A 5208  17.119   4.488   9.153  0.0812  0.0445  0.2105
  326loPI   C3A 5209  17.006   4.559   8.727 -0.2162 -0.1066 -0.0493
  326loPI   C4A 5210  16.825   4.659   8.308  0.1472  0.0050 -0.0726
  326loPI   C5A 5211  16.604   4.731   7.980  0.0051  0.1429 -0.0314
  326loPI   C6A 5212  16.588   5.014   7.614 -0.0421 -0.0310 -0.4020
  326loPI   C1B 5213  16.910   4.894   9.476 -0.1025  0.1388 -0.0439
  326loPI   C2B 5214  16.843   5.011   9.008  0.1706  0.0896 -0.1669
  326loPI   C3B 5215  16.738   5.038   8.629 -0.2760  0.3931 -0.0231
  326loPI   C4B 5216  16.772   5.152   8.178  0.3102 -0.1463  0.0490
  327loPI    C1 5217   7.720   1.208   9.824  0.3662  0.0988  0.0289
  327loPI    C2 5218   7.568   1.576   9.863 -0.2715 -0.1306 -0.1744
  327loPI    C3 5219   7.589   1.334  10.181  0.1444  0.0713 -0.0414
  327loPI   PO4 5220   7.870   1.212   9.605  0.3246  0.1869  0.0340
  327loPI   GL1 5221   7.930   1.066   9.334  0.1877 -0.5032 -0.2412
  327loPI   GL2 5222   8.245   1.011   9.228  0.0963  0.0927 -0.0125
  327loPI   C1A 5223   7.856   1.096   8.799  0.0336  0.2653 -0.1704
  327loPI   C2A 5224   7.996   1.124   8.409  0.3814 -0.2997 -0.1131
  327loPI   C3A 5225   8.180   1.241   8.029  0.0165  0.0073 -0.0976
  327loPI   C4A 5226   8.287   1.199   7.674 -0.1495  0.2351 -0.1552
  327loPI   C5A 5227   8.717   1.122   7.619  0.0692 -0.0764  0.1525
  327loPI   C6A 5228   8.897   1.442   7.266  0.0491 -0.1684 -0.0279
  327loPI   C1B 5229   8.356   1.059   8.805  0.0530  0.1382 -0.2400
  327loPI   C2B 5230   8.558   1.085   8.411  0.1341  0.1831 -0.1255
  327loPI   C3B 5231   8.716   1.379   8.036 -0.0118 -0.1011 -0.1603
  327loPI   C4B 5232   8.934   1.621   7.752 -0.0709  0.1655 -0.1190
  328loPI    C1 5233   8.381   4.883   9.782 -0.1706  0.1002  0.1130
  328loPI    C2 5234   8.731   4.690   9.775 -0.1568  0.1299 -0.1086
  328loPI    C3 5235   8.564   4.789  10.125 -0.0733 -0.1165  0.0037
  328loPI   PO4 5236   8.248   4.906   9.561  0.1545 -0.0085 -0.1074
  328loPI   GL1 5237   8.029   4.570   9.299 -0.0795  0.2083 -0.1638
  328loPI   GL2 5238   8.278   4.314   9.354  0.0717 -0.0447  0.2298
  328loPI   C1A 5239   7.809   4.398   8.944  0.1717 -0.2394 -0.4557
  328loPI   C2A 5240   7.915   4.170   8.637  0.0812  0.1070 -0.0402
  328loPI   C3A 5241   7.987   3.880   8.288  0.0342  0.1394  0.2130
  328loPI   C4A 5242   8.084   3.826   7.900  0.0492  0.1447 -0.1581
  328loPI   C5A 5243   8.187   3.794   7.453  0.1849 -0.0069  0.2260
  328loPI   C6A 5244   8.385   3.531   7.122  0.0493  0.0309 -0.0453
  328loPI   C1B 5245   8.299   4.407   8.924  0.2084  0.0552 -0.0886
  328loPI   C2B 5246   8.535   4.588   8.554  0.2260  0.1596 -0.0978
  328loPI   C3B 5247   8.624   4.628   8.061  0.0026 -0.1428  0.2184
  328loPI   C4B 5248   8.920   4.356   7.787  0.2891 -0.1712 -0.1447
  329loPI    C1 5249   4.973   1.966   9.750  0.0405 -0.2033  0.1575
  329loPI    C2 5250   4.703   1.991  10.044 -0.0705 -0.1173  0.0494
  329loPI    C3 5251   4.589   1.879   9.678  0.0623 -0.1966  0.0317
  329loPI   PO4 5252   5.058   2.204   9.664  0.1776  0.0358 -0.1861
  329loPI   GL1 5253   4.890   2.194   9.306  0.0067 -0.4033 -0.3619
  329loPI   GL2 5254   4.901   1.879   9.240  0.2884  0.0152 -0.0213
  329loPI   C1A 5255   4.720   2.271   8.903  0.4860 -0.0755  0.0967
  329loPI   C2A 5256   4.526   2.341   8.526  0.1576  0.0650 -0.3626
  329loPI   C3A 5257   4.377   2.297   8.105  0.1110  0.0325 -0.0831
  329loPI   C4A 5258   4.420   2.519   7.694 -0.1293 -0.2752  0.3305
  329loPI   C5A 5259   4.486   2.747   7.372 -0.2946 -0.1596 -0.1829
  329loPI   C6A 5260   4.497   3.192   7.245 -0.0861 -0.0652  0.2259
  329loPI   C1B 5261   5.184   2.055   8.905 -0.1179  0.1414 -0.0913
  329loPI   C2B 5262   5.555   2.309   8.725 -0.0519  0.1102 -0.0853
  329loPI   C3B 5263   5.700   2.597   8.386  0.1155  0.3134 -0.2844
  329loPI   C4B 5264   5.902   2.957   8.369  0.0625  0.0040 -0.0744
  330loPI    C1 5265   0.417   5.297   9.788 -0.0440 -0.1062 -0.0413
  330loPI    C2 5266   0.227   5.122  10.094  0.0193  0.0825  0.1076
  330loPI    C3 5267   0.566   5.324  10.158  0.0169  0.1492 -0.0828
  330loPI   PO4 5268   0.336   5.365   9.545 -0.3634  0.1929  0.2505
  330loPI   GL1 5269   0.235   4.976   9.166  0.1012 -0.0877 -0.1107
  330loPI   GL2 5270  -0.126   5.226   9.213 -0.1580  0.3741 -0.0441
  330loPI   C1A 5271   0.100   4.705   8.858  0.0194 -0.2308  0.1589
  330loPI   C2A 5272   0.106   4.811   8.438 -0.1396 -0.0622 -0.3023
  330loPI   C3A 5273  -0.037   4.792   8.064  0.1632  0.1365 -0.1333
  330loPI   C4A 5274   0.021   4.660   7.684  0.1477  0.1708  0.2535
  330loPI   C5A 5275  -0.031   4.523   7.217 -0.0957 -0.1497 -0.0063
  330loPI   C6A 5276  -0.097   4.490   6.728  0.0354 -0.0615 -0.1215
  330loPI   C1B 5277  -0.125   5.213   8.828 -0.3494  0.0768 -0.2196
  330loPI   C2B 5278  -0.195   5.184   8.486 -0.1268  0.3321 -0.1474
  330loPI   C3B 5279  -0.318   5.177   7.944 -0.0496 -0.1576  0.0290
  330loPI   C4B 5280  -0.718   5.119   7.738 -0.0194  0.2605 -0.1701
  331loPI    C1 5281   7.849   4.812  10.033 -0.2871  0.1099  0.1348
  331loPI    C2 5282   7.857   4.451   9.861  0.2223  0.0614  0.2450
  331loPI    C3 5283   7.708   4.494  10.230  0.2009 -0.0438  0.2487
  331loPI   PO4 5284   7.777   4.995   9.783 -0.0798 -0.0322 -0.0574
  331loPI   GL1 5285   7.562   4.833   9.321 -0.3516  0.1198  0.2393
  331loPI   GL2 5286   7.837   5.124   9.228 -0.1639 -0.2826 -0.1663
  331loPI   C1A 5287   7.489   4.933   8.929  0.4200 -0.0591  0.1478
  331loPI   C2A 5288   7.670   5.283   8.568 -0.3376 -0.1975  0.0091
  331loPI   C3A 5289   7.754   5.261   8.202 -0.2311 -0.4134 -0.1072
  331loPI   C4A 5290   7.892   5.340   7.763  0.2386  0.6383  0.0654
  331loPI   C5A 5291   7.939   5.758   7.565 -0.0460 -0.0626 -0.3094
  331loPI   C6A 5292   8.289   6.003   7.458 -0.0392  0.0656  0.0523
  331loPI   C1B 5293   8.074   4.879   8.885  0.0110  0.0469 -0.0789
  331loPI   C2B 5294   7.812   4.749   8.593 -0.0805  0.1685  0.0843
  331loPI   C3B 5295   7.858   4.519   8.190 -0.0967 -0.2721 -0.0159
  331loPI   C4B 5296   7.776   4.454   7.724  0.0378 -0.0871 -0.1102
  332loPI    C1 5297   2.169   9.749  10.040  0.0348  0.1185 -0.1432
  332loPI    C2 5298   2.536   9.907  10.058  0.1553 -0.1757  0.0867
  332loPI    C3 5299   2.369   9.753  10.387 -0.0733 -0.2708 -0.0712
  332loPI   PO4 5300   2.196   9.727   9.675  0.0842  0.4322 -0.0294
  332loPI   GL1 5301   1.840   9.812   9.385 -0.0433  0.1014 -0.0000
  332loPI   GL2 5302   1.588  10.069   9.182 -0.0239  0.2066 -0.1645
  332loPI   C1A 5303   2.008   9.808   8.958  0.1000 -0.1481 -0.1642
  332loPI   C2A 5304   1.791   9.725   8.608 -0.1877 -0.1529 -0.2920
  332loPI   C3A 5305   1.690  10.142   8.379  0.0105 -0.0476 -0.1531
  332loPI   C4A 5306   1.826  10.251   7.974 -0.0192 -0.1278  0.3733
  332loPI   C5A 5307   1.722  10.436   7.416 -0.3302  0.0631  0.0115
  332loPI   C6A 5308   1.673  10.504   7.013 -0.3447  0.1168 -0.0103
  332loPI   C1B 5309   1.404   9.871   8.927  0.0013  0.1514 -0.1576
  332loPI   C2B 5310   1.196   9.744   8.504  0.0985 -0.3485  0.0757
  332loPI   C3B 5311   1.426   9.882   8.099  0.2012 -0.1145 -0.3582
  332loPI   C4B 5312   1.359  10.127   7.757 -0.0171 -0.1048 -0.1053
  333loPI    C1 5313   4.033   4.992   9.921 -0.1283  0.2841  0.0323
  333loPI    C2 5314   4.313   5.222  10.090  0.0596  0.1774 -0.1298
  333loPI    C3 5315   4.420   4.912   9.861 -0.1904 -0.0784  0.0924
  333loPI   PO4 5316   3.865   5.133   9.662  0.1432 -0.0482 -0.1029
  333loPI   GL1 5317   3.842   4.984   9.180  0.1111 -0.0196 -0.1544
  333loPI   GL2 5318   3.566   5.082   9.125  0.0812  0.1052 -0.2319
  333loPI   C1A 5319   3.851   4.885   8.772 -0.2793  0.1079  0.0054
  333loPI   C2A 5320   3.764   4.628   8.389 -0.0682 -0.0834  0.1497
  333loPI   C3A 5321   3.894   4.420   7.956  0.0691 -0.0092  0.2213
  333loPI   C4A 5322   3.657   4.124   7.842 -0.0242  0.2017  0.3085
  333loPI   C5A 5323   3.355   4.132   7.512 -0.1265  0.0332 -0.0839
  333loPI   C6A 5324   2.951   4.001   7.405 -0.2099 -0.0077  0.1026
  333loPI   C1B 5325   3.341   5.017   8.770  0.1134 -0.0865 -0.0111
  333loPI   C2B 5326   3.460   5.023   8.352  0.0136  0.1316  0.4049
  333loPI   C3B 5327   3.257   5.407   8.083 -0.0751  0.2106  0.0900
  333loPI   C4B 5328   3.476   5.522   7.724 -0.2554  0.1040 -0.0457
  334loPI    C1 5329  13.154  13.806  10.686  0.0037 -0.1447 -0.2752
  334loPI    C2 5330  13.529  13.928  10.617  0.0002  0.0096 -0.0346
  334loPI    C3 5331  13.461  13.613  10.854 -0.0278  0.0603  0.0250
  334loPI   PO4 5332  13.064  13.855  10.405  0.0663  0.1727 -0.1200
  334loPI   GL1 5333  12.996  14.148  10.091  0.0593  0.2002 -0.1731
  334loPI   GL2 5334  12.669  14.189  10.047 -0.0381  0.2196  0.0440
  334loPI   C1A 5335  13.167  14.055   9.664  0.1262  0.0989  0.0578
  334loPI   C2A 5336  13.301  13.998   9.188 -0.0193  0.3325  0.2074
  334loPI   C3A 5337  13.233  13.973   8.826 -0.3422 -0.1387  0.0246
  334loPI   C4A 5338  13.280  13.921   8.356 -0.0955  0.1186  0.2569
  334loPI   C5A 5339  13.425  13.825   7.886  0.1699  0.1793  0.2175
  334loPI   C6A 5340  13.347  13.720   7.405  0.0543 -0.1989 -0.4001
  334loPI   C1B 5341  12.324  14.086   9.808  0.1980 -0.1729 -0.2138
  334loPI   C2B 5342  12.324  13.993   9.375  0.1671  0.0301 -0.2030
  334loPI   C3B 5343  12.430  14.101   8.999  0.0513 -0.1151  0.0130
  334loPI   C4B 5344  12.437  14.579   8.756 -0.0251 -0.0494 -0.1724
  335loPI    C1 5345   5.272  15.692  10.157  0.0917  0.1088  0.0877
  335loPI    C2 5346   5.371  15.650  10.543  0.0873 -0.0074  0.0766
  335loPI    C3 5347   5.242  16.004  10.407  0.0530  0.0241  0.1896
  335loPI   PO4 5348   5.111  15.460  10.074  0.2083 -0.0737  0.2180
  335loPI   GL1 5349   4.947  15.313   9.737 -0.1394  0.0214  0.1961
  335loPI   GL2 5350   4.643  15.385   9.844  0.0176  0.1803  0.2102
  335loPI   C1A 5351   5.074  15.563   9.346 -0.1886 -0.0840  0.0073
  335loPI   C2A 5352   5.172  15.321   9.000  0.0540 -0.0309 -0.1821
  335loPI   C3A 5353   5.223  15.420   8.547  0.2683 -0.3564 -0.2419
  335loPI   C4A 5354   5.062  15.378   8.164  0.0431 -0.3496  0.0021
  335loPI   C5A 5355   4.805  15.679   7.905  0.2976  0.3834 -0.1392
  335loPI   C6A 5356   4.395  15.697   7.690 -0.0702  0.2837 -0.2289
  335loPI   C1B 5357   4.628  15.383   9.360  0.5184 -0.0381 -0.0142
  335loPI   C2B 5358   4.625  15.359   8.916 -0.2285 -0.0956 -0.0754
  335loPI   C3B 5359   4.614  15.414   8.498  0.0568  0.0158 -0.0445
  335loPI   C4B 5360   4.593  15.266   8.032 -0.0645  0.2816 -0.0322
  336loPI    C1 5361   6.869   2.618  10.249 -0.0120  0.0084 -0.0313
  336loPI    C2 5362   6.915   2.925   9.997 -0.1653  0.0983  0.0492
  336loPI    C3 5363   7.082   2.939  10.360 -0.1365  0.0681  0.0370
  336loPI   PO4 5364   6.834   2.440  10.022  0.3413  0.3175  0.0698
  336loPI   GL1 5365   6.980   2.459   9.634  0.0786 -0.1643  0.0944
  336loPI   GL2 5366   7.180   2.689   9.548  0.0376  0.0574 -0.0290
  336loPI   C1A 5367   7.194   2.434   9.158 -0.0191 -0.3365 -0.1094
  336loPI   C2A 5368   7.304   2.449   8.725 -0.5063  0.1804  0.0863
  336loPI   C3A 5369   7.395   2.509   8.286  0.3019 -0.0214 -0.2340
  336loPI   C4A 5370   7.253   2.408   7.852  0.2698  0.0678  0.0931
  336loPI   C5A 5371   7.129   2.688   7.424 -0.0683 -0.3193 -0.0731
  336loPI   C6A 5372   7.141   3.167   7.549  0.1835  0.0162  0.1342
  336loPI   C1B 5373   6.995   2.864   9.079 -0.3289  0.2258  0.1205
  336loPI   C2B 5374   6.796   3.075   8.704  0.0467  0.0049 -0.2918
  336loPI   C3B 5375   6.853   3.194   8.233  0.1017  0.1878 -0.0736
  336loPI   C4B 5376   6.677   3.249   7.759  0.0612  0.0472 -0.1889
  337loPI    C1 5377   0.030  12.279   9.777 -0.1580 -0.2442  0.0133
  337loPI    C2 5378  -0.275  12.485   9.619 -0.1125 -0.0256  0.2058
  337loPI    C3 5379  -0.143  12.572   9.987  0.3859  0.0950  0.0072
  337loPI   PO4 5380   0.219  12.350   9.512  0.1516  0.2056 -0.0494
  337loPI   GL1 5381   0.124  12.395   9.146  0.1863 -0.0747  0.3969
  337loPI   GL2 5382  -0.139  12.456   9.059 -0.2850  0.3996  0.3009
  337loPI   C1A 5383   0.183  12.365   8.658  0.0558  0.0033  0.1022
  337loPI   C2A 5384   0.102  12.437   8.267 -0.2283  0.2614 -0.0957
  337loPI   C3A 5385  -0.041  12.780   8.005 -0.1801 -0.3999 -0.2110
  337loPI   C4A 5386  -0.231  12.836   7.691 -0.0205 -0.0170  0.0956
  337loPI   C5A 5387  -0.238  13.234   7.492 -0.0714  0.1540  0.1973
  337loPI   C6A 5388  -0.580  13.342   7.346 -0.2235 -0.1089 -0.0828
  337loPI   C1B 5389  -0.394  12.279   8.745  0.0199 -0.2703 -0.0366
  337loPI   C2B 5390  -0.411  12.415   8.278 -0.0875 -0.3075 -0.0097
  337loPI   C3B 5391  -0.194  12.366   7.834  0.3417 -0.2067  0.3653
  337loPI   C4B 5392   0.201  12.361   7.766 -0.0781  0.3507 -0.1501
  338loPI    C1 5393   7.257   9.837  10.136 -0.0823 -0.0468  0.1142
  338loPI    C2 5394   7.369  10.214  10.063  0.1106 -0.1320 -0.0405
  338loPI    C3 5395   7.154  10.129  10.389  0.0125  0.1202 -0.0371
  338loPI   PO4 5396   7.343   9.715   9.911 -0.2337 -0.0504  0.0143
  338loPI   GL1 5397   7.421   9.892   9.512 -0.3271 -0.1004 -0.1150
  338loPI   GL2 5398   7.624  10.129   9.575  0.1773  0.2720  0.1727
  338loPI   C1A 5399   7.454   9.705   9.124 -0.0956  0.0809 -0.1329
  338loPI   C2A 5400   7.504   9.612   8.627  0.1140 -0.0133 -0.0137
  338loPI   C3A 5401   7.605   9.722   8.248  0.0111 -0.1032 -0.0938
  338loPI   C4A 5402   7.623   9.658   7.856 -0.0974  0.6370 -0.0839
  338loPI   C5A 5403   7.677   9.509   7.510 -0.2938 -0.1145  0.3550
  338loPI   C6A 5404   7.421   9.210   7.255 -0.1808 -0.1173 -0.0877
  338loPI   C1B 5405   7.615  10.234   9.023 -0.2081 -0.0558  0.3260
  338loPI   C2B 5406   7.753  10.218   8.615 -0.1204 -0.0486 -0.1450
  338loPI   C3B 5407   7.828  10.149   8.171 -0.0519 -0.0223 -0.2608
  338loPI   C4B 5408   8.094   9.901   7.861  0.1493 -0.0973  0.0977
  339loPI    C1 5409  18.495  12.018  10.101 -0.0366 -0.1355  0.0042
  339loPI    C2 5410  18.225  12.278   9.961 -0.0268 -0.1921 -0.1212
  339loPI    C3 5411  18.147  12.068  10.292  0.0820  0.1773  0.1460
  339loPI   PO4 5412  18.504  11.882   9.894 -0.0010 -0.0414 -0.2884
  339loPI   GL1 5413  18.530  12.008   9.448 -0.2688 -0.0676  0.1334
  339loPI   GL2 5414  18.811  11.885   9.372  0.1150  0.1669  0.1019
  339loPI   C1A 5415  18.371  11.977   9.139  0.0013 -0.2248  0.0594
  339loPI   C2A 5416  18.297  11.783   8.607 -0.0122  0.0847  0.0470
  339loPI   C3A 5417  18.393  11.715   8.126  0.0650  0.1793  0.0230
  339loPI   C4A 5418  18.332  11.670   7.744  0.0483 -0.0755 -0.2164
  339loPI   C5A 5419  18.224  11.887   7.345 -0.2794 -0.4769  0.0353
  339loPI   C6A 5420  18.104  12.165   7.003  0.2911  0.0645 -0.2401
  339loPI   C1B 5421  18.835  11.881   8.902 -0.2893 -0.2609 -0.0524
  339loPI   C2B 5422  18.744  11.946   8.419  0.2465 -0.1657  0.0319
  339loPI   C3B 5423  18.904  11.977   8.054  0.0073  0.0759 -0.0631
  339loPI   C4B 5424  18.717  11.976   7.615  0.1422  0.2222 -0.1153
  340loPI    C1 5425   9.128   1.756  10.433 -0.0841  0.0838 -0.1102
  340loPI    C2 5426   9.057   1.937  10.782  0.0096  0.2867 -0.1948
  340loPI    C3 5427   8.789   1.681  10.632 -0.0267  0.1905  0.0294
  340loPI   PO4 5428   9.355   1.652  10.411 -0.3696  0.0510  0.1838
  340loPI   GL1 5429   9.636   1.804  10.050 -0.1431  0.3681  0.1723
  340loPI   GL2 5430   9.678   1.518   9.916  0.2961 -0.1740  0.1125
  340loPI   C1A 5431   9.904   1.983   9.754 -0.1385  0.0423  0.0817
  340loPI   C2A 5432  10.186   2.193   9.440 -0.1265 -0.1985  0.0229
  340loPI   C3A 5433  10.260   2.254   9.079  0.0474 -0.1828 -0.0547
  340loPI   C4A 5434  10.466   2.230   8.708 -0.1857 -0.1496 -0.0891
  340loPI   C5A 5435  10.583   2.187   8.313  0.1093  0.0299 -0.1223
  340loPI   C6A 5436  10.554   2.313   7.941 -0.1287  0.0563 -0.3813
  340loPI   C1B 5437   9.503   1.467   9.545 -0.0258  0.0301  0.1116
  340loPI   C2B 5438   9.750   1.494   9.117 -0.2229 -0.1814  0.0457
  340loPI   C3B 5439   9.917   1.432   8.730  0.1956  0.0615  0.1376
  340loPI   C4B 5440  10.017   1.360   8.197 -0.3238 -0.2529 -0.2279
  341loPI    C1 5441   8.799  11.000  10.742 -0.0394 -0.1284  0.2377
  341loPI    C2 5442   8.449  10.971  10.934 -0.0091 -0.2609  0.2744
  341loPI    C3 5443   8.788  10.869  11.120  0.0633 -0.0181  0.2796
  341loPI   PO4 5444   8.777  10.965  10.462 -0.2253 -0.2930  0.1993
  341loPI   GL1 5445   8.810  10.998  10.008  0.1420 -0.0134 -0.1874
  341loPI   GL2 5446   8.491  10.928  10.039  0.1889 -0.2024 -0.0537
  341loPI   C1A 5447   9.099  11.001   9.565  0.0126  0.0460  0.0325
  341loPI   C2A 5448   9.178  11.166   9.154  0.0747 -0.2860  0.1277
  341loPI   C3A 5449   9.378  11.326   8.792  0.0841  0.2306  0.2196
  341loPI   C4A 5450   9.461  11.262   8.454 -0.1116 -0.1153  0.0045
  341loPI   C5A 5451   9.190  11.311   8.236 -0.0257  0.0203  0.0016
  341loPI   C6A 5452   8.993  11.477   7.882 -0.0706 -0.3560 -0.1007
  341loPI   C1B 5453   8.220  10.837   9.605  0.0867 -0.1907  0.0386
  341loPI   C2B 5454   8.059  11.092   9.166 -0.1280 -0.0508  0.1508
  341loPI   C3B 5455   8.120  11.516   9.018 -0.1655 -0.3059  0.0964
  341loPI   C4B 5456   8.144  11.878   8.761  0.0171 -0.0839 -0.1492
  342loPI    C1 5457   2.633   1.321  10.211  0.2993 -0.0622  0.0050
  342loPI    C2 5458   2.507   1.226  10.579 -0.1136 -0.0122 -0.1176
  342loPI    C3 5459   2.512   1.609  10.462  0.2248 -0.0059 -0.0946
  342loPI   PO4 5460   2.560   1.163  10.011 -0.1466  0.0239  0.2013
  342loPI   GL1 5461   2.320   1.040   9.720 -0.1311  0.1105 -0.0317
  342loPI   GL2 5462   2.271   1.389   9.596 -0.2209 -0.2572  0.1375
  342loPI   C1A 5463   2.414   0.921   9.350  0.0127 -0.3313 -0.0658
  342loPI   C2A 5464   2.665   0.742   8.962  0.4265  0.1736  0.1079
  342loPI   C3A 5465   2.861   0.662   8.625  0.0846 -0.0263  0.0826
  342loPI   C4A 5466   3.156   0.604   8.138 -0.0640  0.2198 -0.0522
  342loPI   C5A 5467   3.002   0.393   7.759 -0.1412 -0.0878  0.0141
  342loPI   C6A 5468   2.812   0.200   7.411  0.0619 -0.1677 -0.2435
  342loPI   C1B 5469   2.749   1.375   9.399 -0.1966  0.3559 -0.2436
  342loPI   C2B 5470   3.031   1.091   9.232  0.0053  0.0608 -0.0605
  342loPI   C3B 5471   3.316   0.901   8.947  0.3857  0.4154  0.0796
  342loPI   C4B 5472   3.419   0.591   8.687  0.0615  0.1051 -0.0248
  343loPI    C1 5473  14.261  16.728  10.746  0.1469 -0.2176  0.1697
  343loPI    C2 5474  14.115  16.988  11.012 -0.0504 -0.2657  0.1101
  343loPI    C3 5475  14.316  16.666  11.137 -0.0934 -0.2586  0.1984
  343loPI   PO4 5476  14.280  16.917  10.537  0.0380  0.2716 -0.0596
  343loPI   GL1 5477  14.479  16.837  10.091  0.1559 -0.0917 -0.0196
  343loPI   GL2 5478  14.742  16.605  10.107  0.2588  0.0807  0.1308
  343loPI   C1A 5479  14.362  16.926   9.728  0.4576 -0.0431 -0.2605
  343loPI   C2A 5480  14.485  16.778   9.367  0.0923 -0.1400  0.0663
  343loPI   C3A 5481  14.464  16.636   8.981 -0.0212  0.0073 -0.0351
  343loPI   C4A 5482  14.662  16.372   8.593 -0.0268  0.0357 -0.0701
  343loPI   C5A 5483  14.562  16.305   8.182 -0.2504 -0.3368 -0.1155
  343loPI   C6A 5484  14.526  16.394   7.761  0.2218  0.1087  0.1783
  343loPI   C1B 5485  14.791  16.579   9.745  0.0848 -0.1038 -0.4580
  343loPI   C2B 5486  14.915  16.559   9.279  0.3308 -0.3118 -0.0282
  343loPI   C3B 5487  14.893  16.758   8.843  0.0026 -0.1695 -0.0216
  343loPI   C4B 5488  15.169  16.861   8.477  0.1443 -0.1554 -0.2634
  344loPI    C1 5489   9.564   4.451  10.482  0.0361 -0.0363 -0.1131
  344loPI    C2 5490   9.688   4.071  10.503  0.1011 -0.0011  0.1803
  344loPI    C3 5491   9.373   4.191  10.718  0.0497  0.1007  0.0498
  344loPI   PO4 5492   9.560   4.467  10.211  0.1942 -0.2124  0.1296
  344loPI   GL1 5493   9.735   4.071  10.002 -0.0551  0.0156 -0.1047
  344loPI   GL2 5494   9.661   3.810   9.959 -0.4630 -0.1487  0.1581
  344loPI   C1A 5495   9.718   4.160   9.605 -0.0254 -0.2559  0.0382
  344loPI   C2A 5496   9.652   4.003   9.264 -0.3087  0.1910  0.0853
  344loPI   C3A 5497   9.745   3.878   8.763  0.1363  0.4468 -0.1913
  344loPI   C4A 5498   9.875   3.950   8.270 -0.2318 -0.0484  0.0501
  344loPI   C5A 5499  10.339   3.966   7.990 -0.0876  0.0004  0.2515
  344loPI   C6A 5500  10.551   3.860   7.586 -0.0060 -0.2571  0.2235
  344loPI   C1B 5501   9.823   3.516   9.660  0.1803  0.2790  0.1791
  344loPI   C2B 5502   9.902   3.556   9.227  0.4149  0.0763 -0.5073
  344loPI   C3B 5503   9.976   3.455   8.813 -0.0267 -0.0660  0.0075
  344loPI   C4B 5504  10.120   3.500   8.317 -0.0793  0.3802 -0.0495
  345loPI    C1 5505   1.653   3.007  10.298 -0.1000  0.0239  0.2055
  345loPI    C2 5506   1.933   3.177  10.527 -0.0949 -0.0078  0.2230
  345loPI    C3 5507   1.902   2.779  10.512 -0.0700 -0.0068  0.1381
  345loPI   PO4 5508   1.626   3.091  10.099 -0.3152 -0.1125 -0.0188
  345loPI   GL1 5509   1.669   2.944   9.676  0.1930  0.1097  0.1297
  345loPI   GL2 5510   1.456   3.159   9.601 -0.0849  0.1903 -0.3122
  345loPI   C1A 5511   1.688   2.807   9.278 -0.0978  0.0326  0.0922
  345loPI   C2A 5512   1.496   2.718   8.887 -0.1655 -0.0769  0.0155
  345loPI   C3A 5513   1.296   2.740   8.476  0.2487  0.0373  0.1423
  345loPI   C4A 5514   1.444   2.599   8.127  0.2876  0.2086  0.0283
  345loPI   C5A 5515   1.515   2.589   7.755 -0.2736  0.2771  0.3122
  345loPI   C6A 5516   1.306   2.157   7.492  0.1782  0.3660 -0.2357
  345loPI   C1B 5517   1.454   3.320   9.216 -0.0171  0.1475 -0.2549
  345loPI   C2B 5518   1.310   3.179   8.882 -0.0234  0.0625 -0.2818
  345loPI   C3B 5519   1.253   3.205   8.467  0.1731  0.0708 -0.2507
  345loPI   C4B 5520   1.165   3.167   8.093  0.0102 -0.1974  0.0847
  346loPI    C1 5521   5.702  12.052  10.453 -0.0976  0.2745  0.1108
  346loPI    C2 5522   5.882  11.710  10.559  0.0789  0.3417  0.0321
  346loPI    C3 5523   5.485  11.747  10.594  0.0572  0.1242  0.0282
  346loPI   PO4 5524   5.731  12.154  10.107  0.1700  0.2164 -0.2171
  346loPI   GL1 5525   5.450  11.950   9.740 -0.0578  0.1079  0.5091
  346loPI   GL2 5526   5.585  11.702   9.598 -0.0375  0.1773 -0.0867
  346loPI   C1A 5527   5.387  12.020   9.279 -0.1622  0.1844  0.3950
  346loPI   C2A 5528   5.561  12.036   8.862 -0.3989 -0.0141  0.0667
  346loPI   C3A 5529   5.915  12.080   8.565 -0.3083 -0.0794 -0.0041
  346loPI   C4A 5530   6.176  12.132   8.222 -0.2849 -0.0421 -0.1370
  346loPI   C5A 5531   6.305  11.829   7.916  0.1248  0.1780  0.0467
  346loPI   C6A 5532   5.936  11.480   7.707  0.2039  0.1265  0.2458
  346loPI   C1B 5533   5.665  11.632   9.169 -0.4585 -0.0552  0.2533
  346loPI   C2B 5534   5.776  11.635   8.707  0.3307  0.0309 -0.1565
  346loPI   C3B 5535   5.663  11.664   8.263  0.0052  0.2892  0.0920
  346loPI   C4B 5536   5.700  12.002   8.015  0.2692  0.0210 -0.2148
  347loPI    C1 5537   5.933   6.454   9.742  0.2015 -0.0337 -0.0245
  347loPI    C2 5538   5.628   6.198   9.770  0.2188 -0.0595 -0.0697
  347loPI    C3 5539   5.833   6.301  10.098  0.1324 -0.0062 -0.0321
  347loPI   PO4 5540   5.850   6.646   9.553  0.1201  0.2186  0.2185
  347loPI   GL1 5541   5.746   6.638   9.219  0.2251 -0.0818 -0.0151
  347loPI   GL2 5542   5.465   6.363   9.248 -0.1483  0.0053 -0.0597
  347loPI   C1A 5543   5.867   6.435   8.920  0.1314 -0.0476  0.0073
  347loPI   C2A 5544   6.181   6.101   8.690 -0.0599 -0.1607 -0.0864
  347loPI   C3A 5545   6.191   5.827   8.313  0.0454 -0.1325 -0.0230
  347loPI   C4A 5546   5.808   5.651   8.146  0.0540 -0.0255  0.1162
  347loPI   C5A 5547   5.580   5.293   7.975  0.0384 -0.2642 -0.0307
  347loPI   C6A 5548   5.260   5.252   7.632 -0.2994 -0.0830  0.0690
  347loPI   C1B 5549   5.414   6.496   8.786  0.0540 -0.0728  0.3132
  347loPI   C2B 5550   5.314   6.445   8.342  0.0098 -0.0755  0.1061
  347loPI   C3B 5551   5.161   6.128   8.217 -0.2178 -0.1705  0.2087
  347loPI   C4B 5552   4.874   5.996   7.899  0.1583 -0.0472  0.1245
  348loPI    C1 5553   8.796  11.482  10.411  0.2729 -0.0882  0.0337
  348loPI    C2 5554   8.481  11.403  10.644  0.1565  0.1862 -0.0265
  348loPI    C3 5555   8.753  11.673  10.760  0.3022  0.0446 -0.0347
  348loPI   PO4 5556   8.626  11.466  10.162 -0.0672  0.0529 -0.3393
  348loPI   GL1 5557   8.547  11.733   9.928  0.1465  0.4150  0.0171
  348loPI   GL2 5558   8.463  11.968   9.943 -0.0317 -0.1274 -0.0177
  348loPI   C1A 5559   8.358  11.725   9.486  0.3432  0.1300 -0.0843
  348loPI   C2A 5560   8.574  11.600   9.189  0.0925 -0.1655  0.0604
  348loPI   C3A 5561   8.639  11.704   8.663  0.0338 -0.1283  0.0356
  348loPI   C4A 5562   8.856  11.839   8.294 -0.1757  0.1170 -0.0086
  348loPI   C5A 5563   8.672  11.998   7.998  0.0282 -0.1943 -0.0796
  348loPI   C6A 5564   8.362  12.277   7.850 -0.0828  0.0814 -0.3057
  348loPI   C1B 5565   8.830  12.060   9.647  0.1250 -0.0956 -0.1691
  348loPI   C2B 5566   8.860  12.111   9.153  0.1715 -0.1135  0.0604
  348loPI   C3B 5567   8.774  12.171   8.747 -0.2662  0.0003 -0.1214
  348loPI   C4B 5568   8.631  12.343   8.356  0.3015  0.0362  0.2070
  349loPI    C1 5569   5.805  12.912   9.801  0.0628  0.1125  0.2001
  349loPI    C2 5570   5.689  12.677  10.104 -0.0055  0.0130  0.0977
  349loPI    C3 5571   5.837  12.514   9.770  0.2149  0.1291  0.1368
  349loPI   PO4 5572   6.013  13.077   9.972  0.1121  0.0643 -0.3963
  349loPI   GL1 5573   6.211  13.388   9.645  0.1611  0.1594 -0.0862
  349loPI   GL2 5574   6.211  13.060   9.460 -0.0483  0.0534 -0.1421
  349loPI   C1A 5575   5.919  13.489   9.320 -0.0267 -0.0386  0.2965
  349loPI   C2A 5576   5.881  13.416   8.896 -0.0622 -0.4469 -0.2589
  349loPI   C3A 5577   5.786  13.668   8.479 -0.1667  0.0873  0.0887
  349loPI   C4A 5578   5.837  13.734   8.070  0.0598  0.1574  0.1320
  349loPI   C5A 5579   5.794  14.001   7.730  0.0236 -0.0081 -0.1389
  349loPI   C6A 5580   5.882  14.390   7.658 -0.0981 -0.1152 -0.0974
  349loPI   C1B 5581   6.289  13.138   9.032 -0.2207  0.4721  0.0107
  349loPI   C2B 5582   6.408  12.977   8.598  0.1249 -0.0539 -0.2003
  349loPI   C3B 5583   6.753  12.938   8.347 -0.0295  0.2505  0.1701
  349loPI   C4B 5584   7.180  13.025   8.351 -0.1557 -0.0401 -0.0658
  350loPI    C1 5585   9.219   2.614  10.388  0.2469  0.1197 -0.1078
  350loPI    C2 5586   9.573   2.619  10.574  0.1356  0.0458  0.1095
  350loPI    C3 5587   9.245   2.507  10.773  0.0055  0.0164 -0.1186
  350loPI   PO4 5588   9.147   2.486  10.186 -0.1117  0.3990 -0.1721
  350loPI   GL1 5589   8.982   2.531   9.868 -0.0785 -0.0326 -0.1398
  350loPI   GL2 5590   9.232   2.816   9.718 -0.3136 -0.0257  0.1404
  350loPI   C1A 5591   9.029   2.253   9.534  0.2069 -0.0749  0.0985
  350loPI   C2A 5592   8.986   2.252   9.144 -0.4488 -0.0791 -0.0969
  350loPI   C3A 5593   9.071   2.285   8.629  0.0090  0.2796 -0.2521
  350loPI   C4A 5594   9.124   2.277   8.211 -0.1156 -0.0706 -0.0682
  350loPI   C5A 5595   9.092   2.131   7.738  0.3815 -0.1842 -0.0137
  350loPI   C6A 5596   8.854   1.986   7.462 -0.1084 -0.0510  0.1217
  350loPI   C1B 5597   9.081   2.757   9.319 -0.2346  0.1401  0.2657
  350loPI   C2B 5598   8.958   2.713   8.906  0.1035  0.1280  0.1106
  350loPI   C3B 5599   9.022   2.810   8.472  0.0245 -0.1051 -0.0938
  350loPI   C4B 5600   9.136   2.796   8.047  0.1671 -0.1322  0.2541
  351loPI    C1 5601   8.956   4.782  10.472 -0.1280  0.1100  0.2980
  351loPI    C2 5602   8.949   5.109  10.242 -0.3107 -0.2605 -0.2448
  351loPI    C3 5603   8.667   5.054  10.521 -0.1860  0.1128 -0.0369
  351loPI   PO4 5604   9.015   4.604  10.269  0.0740 -0.2133 -0.3977
  351loPI   GL1 5605   9.228   4.619   9.852  0.1971 -0.0071 -0.1094
  351loPI   GL2 5606   9.232   4.281   9.777  0.1767  0.3026  0.2354
  351loPI   C1A 5607   9.486   4.671   9.545 -0.4264 -0.2052 -0.0882
  351loPI   C2A 5608   9.529   4.654   9.219 -0.4193  0.1619  0.2669
  351loPI   C3A 5609   9.768   4.621   8.881 -0.3656  0.2878  0.1330
  351loPI   C4A 5610   9.762   4.484   8.448  0.1055  0.0797 -0.0397
  351loPI   C5A 5611   9.970   4.431   8.063  0.0088 -0.1315 -0.0494
  351loPI   C6A 5612  10.142   4.284   7.734  0.2410  0.2767 -0.1802
  351loPI   C1B 5613   9.235   4.300   9.369  0.2368 -0.0135  0.1430
  351loPI   C2B 5614   9.418   4.300   8.944 -0.1983  0.1578  0.1806
  351loPI   C3B 5615   9.393   4.150   8.496 -0.2815 -0.0583 -0.0784
  351loPI   C4B 5616   9.473   4.123   8.052 -0.0713  0.3523 -0.0164
  352loPI    C1 5617  12.716   8.680  10.523  0.2095 -0.2440  0.1078
  352loPI    C2 5618  12.948   8.532  10.813  0.1072 -0.0599  0.2860
  352loPI    C3 5619  12.682   8.819  10.896 -0.1670 -0.2488  0.0791
  352loPI   PO4 5620  12.879   8.787  10.325  0.2986  0.2990 -0.0426
  352loPI   GL1 5621  12.772   8.959   9.821  0.1775  0.0156 -0.0525
  352loPI   GL2 5622  12.873   8.654   9.734  0.0720  0.1101  0.2778
  352loPI   C1A 5623  12.758   9.188   9.408  0.1871 -0.0846  0.0994
  352loPI   C2A 5624  12.807   9.339   8.986  0.1347 -0.3726  0.2643
  352loPI   C3A 5625  12.579   9.512   8.646 -0.1104 -0.0595 -0.2277
  352loPI   C4A 5626  12.325   9.666   8.323  0.1152  0.4319 -0.0304
  352loPI   C5A 5627  11.805   9.785   8.174  0.2553 -0.0462 -0.2830
  352loPI   C6A 5628  11.453   9.471   8.244  0.1517  0.0279 -0.0278
  352loPI   C1B 5629  12.686   8.634   9.294  0.1095 -0.0706 -0.2882
  352loPI   C2B 5630  12.529   8.586   8.820  0.0785 -0.3671 -0.1147
  352loPI   C3B 5631  12.637   8.539   8.454  0.1488 -0.1306 -0.0998
  352loPI   C4B 5632  12.514   8.527   8.035 -0.2764 -0.1943  0.0550
  353loPI    C1 5633  13.711   9.919  10.415  0.1475  0.0230  0.2138
  353loPI    C2 5634  13.620  10.099  10.761  0.0160 -0.1348  0.2625
  353loPI    C3 5635  13.418   9.773  10.645  0.0672 -0.0900  0.0420
  353loPI   PO4 5636  13.967   9.847  10.397  0.4367 -0.2570  0.0953
  353loPI   GL1 5637  14.100   9.873   9.914  0.1774 -0.0461  0.0592
  353loPI   GL2 5638  13.813   9.751   9.916 -0.2373  0.1892 -0.0044
  353loPI   C1A 5639  13.914  10.110   9.541 -0.0793  0.2814  0.1218
  353loPI   C2A 5640  13.793  10.280   9.107 -0.0198  0.2977  0.1764
  353loPI   C3A 5641  13.647  10.279   8.690 -0.0842 -0.2720  0.0782
  353loPI   C4A 5642  13.642  10.475   8.204  0.1283 -0.2384  0.1165
  353loPI   C5A 5643  13.680  10.894   8.026  0.1299 -0.0480 -0.0848
  353loPI   C6A 5644  13.629  11.309   7.937  0.1011 -0.1069  0.2343
  353loPI   C1B 5645  13.675   9.575   9.435 -0.0816 -0.1174 -0.0228
  353loPI   C2B 5646  13.866   9.361   9.133  0.0976 -0.0548  0.1887
  353loPI   C3B 5647  13.920   9.170   8.637 -0.2659 -0.0915  0.1083
  353loPI   C4B 5648  13.682   8.984   8.297  0.1506 -0.1508  0.1261
  354loPI    C1 5649  13.097  16.946  10.195  0.0277 -0.0359  0.0936
  354loPI    C2 5650  13.421  16.738  10.091  0.0578 -0.0821  0.2769
  354loPI    C3 5651  13.449  17.026  10.366 -0.0485 -0.0583  0.2631
  354loPI   PO4 5652  12.982  16.939  10.057  0.0161 -0.1946 -0.0159
  354loPI   GL1 5653  12.687  16.971   9.651  0.0872  0.1917  0.2048
  354loPI   GL2 5654  12.301  16.792   9.597 -0.4696 -0.0341  0.1926
  354loPI   C1A 5655  12.718  16.967   9.253  0.0242  0.2484 -0.1334
  354loPI   C2A 5656  12.515  17.101   8.922 -0.0256  0.1612 -0.1067
  354loPI   C3A 5657  12.584  17.128   8.494  0.1122  0.2063 -0.4429
  354loPI   C4A 5658  12.433  17.205   8.024  0.2182  0.2950  0.3928
  354loPI   C5A 5659  12.111  17.261   7.778  0.0582  0.3174  0.0519
  354loPI   C6A 5660  11.781  17.490   7.720 -0.2646  0.0013  0.0632
  354loPI   C1B 5661  12.234  16.649   9.127 -0.2183 -0.1603  0.0753
  354loPI   C2B 5662  12.186  16.835   8.680 -0.0342 -0.1233  0.1448
  354loPI   C3B 5663  12.035  17.099   8.350  0.3328 -0.1505  0.0958
  354loPI   C4B 5664  11.916  17.480   8.179 -0.0963 -0.0370 -0.1307
  355loPI    C1 5665  15.710   7.049  10.320 -0.0471  0.0158  0.0377
  355loPI    C2 5666  15.916   7.134  10.652 -0.1493 -0.2568  0.1737
  355loPI    C3 5667  15.564   6.945  10.677 -0.1921 -0.2156 -0.0863
  355loPI   PO4 5668  15.673   7.278  10.117  0.0492  0.0953 -0.1629
  355loPI   GL1 5669  15.644   7.589   9.764 -0.1765 -0.1837 -0.1223
  355loPI   GL2 5670  15.446   7.421   9.606  0.0455  0.1803  0.1869
  355loPI   C1A 5671  15.773   7.797   9.436 -0.0345  0.0979 -0.0436
  355loPI   C2A 5672  16.024   7.808   9.125  0.0147 -0.1578 -0.0748
  355loPI   C3A 5673  16.077   7.839   8.675 -0.1833 -0.0632  0.1241
  355loPI   C4A 5674  15.947   7.877   8.121  0.0585 -0.1491  0.0572
  355loPI   C5A 5675  15.575   7.825   7.903  0.0401 -0.0286 -0.3123
  355loPI   C6A 5676  15.564   7.618   7.562 -0.0832  0.0338 -0.4866
  355loPI   C1B 5677  15.508   7.464   9.121 -0.1787 -0.0409 -0.1210
  355loPI   C2B 5678  15.263   7.571   8.677 -0.0309  0.1269  0.2906
  355loPI   C3B 5679  15.291   7.434   8.355 -0.0065 -0.0056  0.0501
  355loPI   C4B 5680  15.344   7.314   7.938 -0.0299  0.1558 -0.2349
  356loPI    C1 5681   1.725  14.566   9.686 -0.0219  0.0048  0.0150
  356loPI    C2 5682   1.818  14.208   9.839  0.1743  0.0443 -0.0092
  356loPI    C3 5683   1.700  14.504  10.081 -0.1637 -0.0875 -0.0078
  356loPI   PO4 5684   1.562  14.603   9.534  0.1682 -0.1703  0.3360
  356loPI   GL1 5685   1.595  14.678   9.179  0.1694  0.1100  0.2572
  356loPI   GL2 5686   1.495  14.367   9.090 -0.2338 -0.0696 -0.0312
  356loPI   C1A 5687   1.638  14.946   8.869  0.0720  0.1434 -0.0208
  356loPI   C2A 5688   1.501  15.107   8.408 -0.0096  0.1767 -0.4105
  356loPI   C3A 5689   1.586  15.189   8.068 -0.2391 -0.0135 -0.1580
  356loPI   C4A 5690   1.786  15.201   7.658 -0.0577 -0.2032 -0.0243
  356loPI   C5A 5691   1.821  14.967   7.308 -0.0612  0.1094 -0.2703
  356loPI   C6A 5692   1.883  15.093   6.872 -0.0349  0.1042  0.1396
  356loPI   C1B 5693   1.376  14.534   8.654 -0.0242 -0.0153  0.0142
  356loPI   C2B 5694   1.270  14.633   8.292 -0.2609  0.2370  0.0268
  356loPI   C3B 5695   0.874  14.644   7.942 -0.3939 -0.0562 -0.2470
  356loPI   C4B 5696   0.687  14.502   7.618 -0.2873 -0.0280  0.0959
  357loPI    C1 5697  15.366   7.381  10.558  0.3360 -0.1802  0.1247
  357loPI    C2 5698  15.359   7.767  10.664 -0.0375 -0.1608  0.0429
  357loPI    C3 5699  15.572   7.505  10.878  0.2935  0.1031  0.0456
  357loPI   PO4 5700  15.029   7.362  10.486 -0.2940 -0.0829 -0.1087
  357loPI   GL1 5701  14.849   7.399  10.003  0.2089  0.0269 -0.1303
  357loPI   GL2 5702  14.993   7.551   9.770  0.1059  0.1626 -0.1436
  357loPI   C1A 5703  14.547   7.185   9.685 -0.0015 -0.0918 -0.0488
  357loPI   C2A 5704  14.465   7.326   9.304  0.1212  0.1348  0.1500
  357loPI   C3A 5705  14.502   7.420   8.902 -0.0929 -0.1911 -0.2242
  357loPI   C4A 5706  14.619   7.366   8.401  0.1475 -0.1411 -0.2378
  357loPI   C5A 5707  14.790   7.568   7.959  0.2587  0.0789  0.4125
  357loPI   C6A 5708  15.080   7.553   7.575 -0.1052  0.0234 -0.2102
  357loPI   C1B 5709  15.056   7.428   9.303  0.2112 -0.1154  0.1100
  357loPI   C2B 5710  14.967   7.280   8.916  0.1700 -0.4562  0.1610
  357loPI   C3B 5711  14.993   7.072   8.582 -0.1800  0.0813 -0.0702
  357loPI   C4B 5712  15.048   6.980   8.220  0.5394 -0.0505 -0.1960
  358loPI    C1 5713   0.200  15.287   9.916 -0.0383  0.0359  0.0492
  358loPI    C2 5714   0.034  15.164   9.574  0.0580 -0.2200  0.0926
  358loPI    C3 5715   0.432  15.160   9.616  0.0404 -0.3333  0.2598
  358loPI   PO4 5716   0.034  15.508   9.910 -0.0720  0.0690 -0.1905
  358loPI   GL1 5717   0.300  15.730   9.674 -0.0567 -0.1330 -0.0858
  358loPI   GL2 5718   0.348  15.968   9.714 -0.2258 -0.1445 -0.1628
  358loPI   C1A 5719  -0.006  15.930   9.419  0.4491 -0.0147 -0.2541
  358loPI   C2A 5720  -0.265  15.810   9.122 -0.3133  0.1907  0.1523
  358loPI   C3A 5721  -0.442  15.551   8.798 -0.0066 -0.1001  0.3626
  358loPI   C4A 5722  -0.545  15.571   8.423 -0.2125 -0.1319 -0.0715
  358loPI   C5A 5723  -0.726  15.481   7.913  0.3930 -0.0978 -0.2962
  358loPI   C6A 5724  -0.840  15.214   7.588 -0.0574 -0.0258 -0.2112
  358loPI   C1B 5725   0.379  16.259   9.334  0.0907 -0.0619 -0.0485
  358loPI   C2B 5726   0.341  16.335   8.901  0.1139 -0.1048 -0.0502
  358loPI   C3B 5727   0.113  16.273   8.501 -0.0046  0.2698  0.1080
  358loPI   C4B 5728  -0.068  15.836   8.399  0.1697  0.1486 -0.0351
  359loPI    C1 5729   5.374  10.636   9.993 -0.1057 -0.2371  0.3006
  359loPI    C2 5730   5.633  10.859  10.201  0.0990 -0.0151 -0.1766
  359loPI    C3 5731   5.703  10.469  10.146  0.1693 -0.0222 -0.0408
  359loPI   PO4 5732   5.424  10.728   9.766  0.2107  0.2090  0.0197
  359loPI   GL1 5733   5.610  10.718   9.427 -0.1240  0.2773 -0.0447
  359loPI   GL2 5734   5.868  10.871   9.341 -0.0475  0.0713  0.1573
  359loPI   C1A 5735   5.324  10.708   9.143  0.1397 -0.0602 -0.1577
  359loPI   C2A 5736   5.205  10.799   8.727  0.1112 -0.0774  0.2143
  359loPI   C3A 5737   5.334  10.848   8.292 -0.3705 -0.1305  0.1589
  359loPI   C4A 5738   5.288  10.954   7.800 -0.0069  0.2251  0.2413
  359loPI   C5A 5739   5.601  10.986   7.501  0.1549 -0.2184 -0.0508
  359loPI   C6A 5740   6.002  11.252   7.194  0.3248  0.1974 -0.0439
  359loPI   C1B 5741   5.802  10.759   8.905 -0.0785 -0.1749 -0.2589
  359loPI   C2B 5742   5.869  10.821   8.496  0.1110  0.0397  0.3771
  359loPI   C3B 5743   6.164  10.683   8.290 -0.0906 -0.0239 -0.1700
  359loPI   C4B 5744   6.522  10.842   8.062  0.2041  0.1615  0.1067
  360loPI    C1 5745   6.260  10.602  10.237 -0.2411  0.1774  0.0780
  360loPI    C2 5746   6.038  10.410  10.508 -0.0702  0.0214  0.1095
  360loPI    C3 5747   6.046  10.809  10.503 -0.2052  0.0264  0.2261
  360loPI   PO4 5748   6.267  10.343  10.042  0.1819  0.0363 -0.1866
  360loPI   GL1 5749   6.312  10.167   9.625  0.1422 -0.0177 -0.1127
  360loPI   GL2 5750   6.253  10.432   9.536  0.1726  0.0390 -0.1066
  360loPI   C1A 5751   6.500  10.126   9.150  0.3233  0.1128  0.0573
  360loPI   C2A 5752   6.701   9.976   8.736  0.2976 -0.0197  0.1433
  360loPI   C3A 5753   6.677   9.931   8.297  0.1491  0.1766 -0.3646
  360loPI   C4A 5754   6.914  10.186   8.041  0.2947 -0.0710 -0.1098
  360loPI   C5A 5755   6.842  10.563   7.795 -0.0720  0.0937 -0.0865
  360loPI   C6A 5756   6.654  10.783   7.418 -0.2660 -0.1894  0.0962
  360loPI   C1B 5757   6.300  10.646   9.202  0.0069 -0.1249  0.0069
  360loPI   C2B 5758   6.355  10.857   8.766  0.0779 -0.1372  0.0306
  360loPI   C3B 5759   6.706  10.770   8.595 -0.1206  0.2186  0.1317
  360loPI   C4B 5760   6.934  10.443   8.493  0.0179 -0.1219 -0.0016
  361loPI    C1 5761   0.949  14.589   9.998  0.2537  0.0356 -0.0279
  361loPI    C2 5762   1.222  14.660  10.281 -0.0398  0.0382  0.2593
  361loPI    C3 5763   1.034  14.306  10.268  0.0855 -0.0196 -0.0312
  361loPI   PO4 5764   1.084  14.752   9.770  0.1256 -0.1461  0.0707
  361loPI   GL1 5765   1.120  14.723   9.408 -0.0944 -0.0882 -0.0554
  361loPI   GL2 5766   1.001  14.445   9.389  0.1578 -0.1475 -0.2536
  361loPI   C1A 5767   1.170  14.906   9.074 -0.1156 -0.0797  0.2431
  361loPI   C2A 5768   1.038  14.968   8.643  0.0929 -0.0979  0.1785
  361loPI   C3A 5769   1.031  15.046   8.224 -0.1382  0.0571  0.1168
  361loPI   C4A 5770   1.044  15.096   7.775 -0.3562  0.3432  0.0937
  361loPI   C5A 5771   1.243  15.333   7.486 -0.1075 -0.1835  0.2994
  361loPI   C6A 5772   1.296  15.458   7.071 -0.0028  0.0043 -0.2368
  361loPI   C1B 5773   0.928  14.403   9.017 -0.0241  0.0674  0.0287
  361loPI   C2B 5774   0.847  14.417   8.562 -0.3935  0.1707  0.0097
  361loPI   C3B 5775   0.735  14.247   8.288  0.2574  0.0020 -0.5785
  361loPI   C4B 5776   0.578  14.110   7.873 -0.1087  0.3701  0.1516
  362loPI    C1 5777   8.421   6.747  10.356  0.1110  0.1859 -0.1960
  362loPI    C2 5778   8.150   7.032  10.283 -0.0321  0.1168  0.0557
  362loPI    C3 5779   8.175   6.867  10.647  0.4483  0.2265  0.0798
  362loPI   PO4 5780   8.595   6.799  10.182 -0.1512  0.1517  0.2405
  362loPI   GL1 5781   8.613   6.700   9.714 -0.1725  0.1738 -0.2442
  362loPI   GL2 5782   8.520   6.907   9.681 -0.1063 -0.1322 -0.1461
  362loPI   C1A 5783   8.792   6.584   9.346 -0.0274 -0.3339 -0.2234
  362loPI   C2A 5784   8.687   6.614   8.884 -0.1486  0.0537 -0.0003
  362loPI   C3A 5785   8.673   6.680   8.427  0.0844 -0.1794  0.2826
  362loPI   C4A 5786   8.814   6.448   8.037 -0.1426  0.0370  0.1730
  362loPI   C5A 5787   9.099   6.298   7.709  0.0910  0.2599 -0.1160
  362loPI   C6A 5788   9.143   6.471   7.377 -0.1281 -0.0682  0.0048
  362loPI   C1B 5789   8.612   7.010   9.203  0.0573 -0.1449  0.2192
  362loPI   C2B 5790   8.692   7.169   8.732  0.2370 -0.1655 -0.0938
  362loPI   C3B 5791   8.610   7.211   8.268 -0.1140  0.0640  0.2396
  362loPI   C4B 5792   8.724   6.951   7.962 -0.0469  0.1492 -0.0097
  363loPI    C1 5793   9.078   9.948  10.169 -0.0673  0.1012 -0.1354
  363loPI    C2 5794   9.294  10.130  10.452 -0.0519 -0.0447 -0.0522
  363loPI    C3 5795   8.905  10.060  10.512 -0.0424 -0.1008 -0.0553
  363loPI   PO4 5796   9.208   9.993   9.975 -0.1531  0.0832  0.0132
  363loPI   GL1 5797   9.411   9.960   9.624 -0.0032 -0.2169  0.2594
  363loPI   GL2 5798   9.540   9.672   9.467  0.1700  0.3029  0.2519
  363loPI   C1A 5799   9.185  10.158   9.250  0.2028 -0.1530 -0.0789
  363loPI   C2A 5800   9.315  10.264   8.844  0.3284 -0.0546 -0.0159
  363loPI   C3A 5801   9.428  10.407   8.418  0.1191 -0.0199  0.0627
  363loPI   C4A 5802   9.629  10.332   8.022  0.1069 -0.1710 -0.1731
  363loPI   C5A 5803   9.554  10.302   7.625  0.2190 -0.3630  0.0891
  363loPI   C6A 5804   9.501  10.123   7.236  0.0004  0.1102  0.0096
  363loPI   C1B 5805   9.568   9.835   9.121 -0.2179  0.3612  0.1657
  363loPI   C2B 5806   9.726   9.921   8.693  0.1108  0.0233  0.0766
  363loPI   C3B 5807   9.688   9.866   8.191 -0.0857  0.1927  0.0040
  363loPI   C4B 5808   9.368   9.834   7.884 -0.0498  0.4356 -0.1330
  364loPI    C1 5809   2.858  18.321   9.967  0.0193 -0.2058  0.0464
  364loPI    C2 5810   3.063  18.626  10.123 -0.2239  0.0566 -0.1370
  364loPI    C3 5811   3.041  18.279  10.320  0.3729  0.0276 -0.1031
  364loPI   PO4 5812   2.906  18.287   9.691  0.2192  0.0351  0.0875
  364loPI   GL1 5813   3.183  18.174   9.329 -0.0454  0.0131 -0.2442
  364loPI   GL2 5814   3.235  17.970   9.282  0.1603 -0.0471 -0.0399
  364loPI   C1A 5815   3.569  18.355   8.986  0.1235 -0.0862  0.1738
  364loPI   C2A 5816   3.647  18.432   8.557 -0.0664 -0.1469 -0.2761
  364loPI   C3A 5817   3.777  18.322   8.289 -0.0691  0.3277  0.2361
  364loPI   C4A 5818   3.742  18.392   7.866 -0.0788 -0.0223  0.2118
  364loPI   C5A 5819   3.594  18.471   7.394  0.1048 -0.1134 -0.5284
  364loPI   C6A 5820   3.229  18.738   7.219 -0.0236  0.2943 -0.1342
  364loPI   C1B 5821   3.283  18.009   8.792 -0.0701  0.2593  0.0944
  364loPI   C2B 5822   3.364  17.977   8.295  0.1768  0.3103 -0.1250
  364loPI   C3B 5823   3.487  17.950   7.864 -0.0601  0.1654 -0.0461
  364loPI   C4B 5824   3.292  18.058   7.440  0.0099 -0.2599  0.3972
  365loPI    C1 5825  16.735  16.690  10.473 -0.1297 -0.0928  0.1079
  365loPI    C2 5826  17.039  16.432  10.435 -0.0857 -0.0219 -0.0261
  365loPI    C3 5827  16.706  16.322  10.627 -0.0660 -0.1777 -0.0805
  365loPI   PO4 5828  16.630  16.756  10.223 -0.3061  0.2296  0.0778
  365loPI   GL1 5829  16.408  16.506   9.963  0.0020 -0.0805 -0.3613
  365loPI   GL2 5830  16.737  16.306  10.061 -0.0791  0.0988  0.2268
  365loPI   C1A 5831  16.302  16.605   9.533  0.0238 -0.2094  0.0732
  365loPI   C2A 5832  16.165  16.739   9.013  0.0199  0.1919 -0.1869
  365loPI   C3A 5833  16.370  17.035   8.719  0.2020 -0.0234 -0.1998
  365loPI   C4A 5834  16.387  16.992   8.212  0.0454 -0.2999 -0.3292
  365loPI   C5A 5835  16.408  17.282   7.912  0.1378 -0.3110 -0.2645
  365loPI   C6A 5836  16.260  17.023   7.641  0.1549  0.0366  0.1288
  365loPI   C1B 5837  16.628  16.017   9.657 -0.0802  0.0809  0.2861
  365loPI   C2B 5838  16.562  16.179   9.265  0.0380  0.1242 -0.1472
  365loPI   C3B 5839  16.541  16.394   8.881 -0.1133 -0.0494 -0.2433
  365loPI   C4B 5840  16.571  16.501   8.409  0.1968 -0.0156  0.1131
  366loPI    C1 5841  11.717   2.332  10.376  0.0979  0.1317 -0.0971
  366loPI    C2 5842  11.883   2.125  10.676 -0.1554 -0.0630 -0.0869
  366loPI    C3 5843  11.650   2.440  10.755 -0.0210  0.0387 -0.0909
  366loPI   PO4 5844  11.935   2.366  10.191  0.0510 -0.1434  0.0839
  366loPI   GL1 5845  12.142   2.184   9.931  0.3301  0.0332 -0.0509
  366loPI   GL2 5846  12.032   1.921   9.773  0.0025  0.1287  0.1453
  366loPI   C1A 5847  12.258   2.396   9.578  0.0372  0.1175 -0.2102
  366loPI   C2A 5848  12.487   2.253   9.136 -0.0218 -0.2486  0.1792
  366loPI   C3A 5849  12.465   2.213   8.711  0.0688 -0.1346 -0.1148
  366loPI   C4A 5850  12.267   2.161   8.408  0.2241 -0.1936  0.0401
  366loPI   C5A 5851  12.286   1.869   8.055 -0.0911 -0.0234 -0.3481
  366loPI   C6A 5852  12.652   1.593   7.899  0.1806 -0.2314  0.0613
  366loPI   C1B 5853  12.412   1.923   9.564 -0.1140  0.1731 -0.0480
  366loPI   C2B 5854  12.644   1.786   9.249 -0.0071 -0.1744 -0.2853
  366loPI   C3B 5855  12.737   1.776   8.864  0.0676 -0.1297  0.2257
  366loPI   C4B 5856  12.785   1.874   8.431  0.2713  0.0042  0.3041
  367loPI    C1 5857   7.958  18.363  10.267  0.2050 -0.3440 -0.1203
  367loPI    C2 5858   7.657  18.252  10.507  0.1143  0.1268 -0.0072
  367loPI    C3 5859   8.022  18.099  10.561  0.0347  0.0258  0.2599
  367loPI   PO4 5860   7.866  18.305  10.003  0.1044 -0.0522  0.1135
  367loPI   GL1 5861   8.044  18.432   9.638  0.1324 -0.1740  0.1089
  367loPI   GL2 5862   8.342  18.378   9.638  0.1705 -0.0234  0.1299
  367loPI   C1A 5863   8.085  18.461   9.102  0.0192  0.2030 -0.0564
  367loPI   C2A 5864   7.953  18.486   8.611 -0.0805  0.0613 -0.1731
  367loPI   C3A 5865   8.087  18.740   8.308  0.0669  0.1467  0.1836
  367loPI   C4A 5866   8.109  19.086   7.993  0.0209  0.2865  0.1184
  367loPI   C5A 5867   8.015  19.320   7.653 -0.2608  0.1269  0.2911
  367loPI   C6A 5868   7.890  19.472   7.322  0.2666 -0.2503  0.0479
  367loPI   C1B 5869   8.534  18.254   9.303 -0.3660 -0.0086 -0.0243
  367loPI   C2B 5870   8.564  18.336   8.895 -0.0406  0.2042 -0.0629
  367loPI   C3B 5871   8.470  18.437   8.412 -0.3400  0.0619  0.3094
  367loPI   C4B 5872   8.466  18.762   8.006 -0.0207 -0.0011 -0.0508
  368loPI    C1 5873  12.010  17.508  10.623 -0.0172 -0.0928 -0.2514
  368loPI    C2 5874  11.885  17.166  10.789  0.1377 -0.1215 -0.1917
  368loPI    C3 5875  12.225  17.336  10.914 -0.2692  0.4053  0.2489
  368loPI   PO4 5876  12.017  17.487  10.380  0.2634  0.3297  0.1411
  368loPI   GL1 5877  12.314  17.483  10.012 -0.1421 -0.1980  0.0292
  368loPI   GL2 5878  12.148  17.805   9.826  0.0611 -0.0594  0.0884
  368loPI   C1A 5879  12.332  17.331   9.591  0.0258 -0.2578 -0.0904
  368loPI   C2A 5880  12.498  17.403   9.331 -0.2890 -0.3066 -0.0768
  368loPI   C3A 5881  12.598  17.636   8.937 -0.1246 -0.1245  0.0214
  368loPI   C4A 5882  12.731  17.606   8.536 -0.2158  0.1224 -0.2565
  368loPI   C5A 5883  12.864  17.472   8.175  0.1688 -0.2027  0.3694
  368loPI   C6A 5884  12.951  17.193   7.864 -0.1083  0.0888  0.1383
  368loPI   C1B 5885  12.019  17.766   9.415 -0.3868 -0.1262  0.0484
  368loPI   C2B 5886  12.060  17.778   8.987 -0.0339  0.4238  0.0413
  368loPI   C3B 5887  11.892  17.971   8.637 -0.2286  0.0667  0.2400
  368loPI   C4B 5888  11.926  18.275   8.256 -0.0571 -0.0372  0.0160
  369loPI    C1 5889   8.230  10.253  10.173  0.1280  0.2749  0.1028
  369loPI    C2 5890   7.840  10.335  10.210  0.0613 -0.0355  0.1134
  369loPI    C3 5891   8.107  10.521  10.442 -0.0768  0.2005  0.0854
  369loPI   PO4 5892   8.272  10.325   9.962  0.1664  0.5579  0.1543
  369loPI   GL1 5893   8.039  10.384   9.680 -0.0871 -0.0816 -0.0397
  369loPI   GL2 5894   7.694  10.564   9.772  0.2287 -0.0938 -0.0342
  369loPI   C1A 5895   8.308  10.507   9.276 -0.2237 -0.0282  0.2443
  369loPI   C2A 5896   8.347  10.702   8.853  0.2586  0.0442  0.2131
  369loPI   C3A 5897   8.418  10.893   8.474 -0.2200  0.0446 -0.0874
  369loPI   C4A 5898   8.487  10.994   7.993 -0.0649 -0.0524 -0.2757
  369loPI   C5A 5899   8.220  10.972   7.677 -0.1656  0.3181 -0.1857
  369loPI   C6A 5900   7.851  10.992   7.518 -0.2149  0.0220  0.3549
  369loPI   C1B 5901   7.744  10.623   9.350  0.3754  0.2832  0.0829
  369loPI   C2B 5902   7.864  10.644   8.824 -0.1454  0.1795 -0.3264
  369loPI   C3B 5903   7.919  10.979   8.567  0.1587  0.3612 -0.0221
  369loPI   C4B 5904   8.027  11.030   8.148 -0.0185 -0.0925  0.1750
  370loPI    C1 5905  15.425   6.411  10.537 -0.2638 -0.0889 -0.0065
  370loPI    C2 5906  15.198   6.108  10.408 -0.2383 -0.1376  0.0622
  370loPI    C3 5907  15.054   6.362  10.681 -0.2901 -0.0380 -0.0565
  370loPI   PO4 5908  15.503   6.525  10.321  0.0981  0.0567 -0.0854
  370loPI   GL1 5909  15.384   6.764   9.957 -0.2356  0.2402  0.1850
  370loPI   GL2 5910  15.254   7.069  10.065  0.1089  0.1443  0.3163
  370loPI   C1A 5911  15.529   6.934   9.500 -0.0063  0.1084  0.1656
  370loPI   C2A 5912  15.685   6.987   9.153 -0.0648 -0.3464  0.2571
  370loPI   C3A 5913  15.459   7.040   8.746  0.1205 -0.1485 -0.1364
  370loPI   C4A 5914  15.507   6.908   8.334 -0.0478 -0.2167  0.2067
  370loPI   C5A 5915  15.552   6.619   7.947  0.0383  0.0648  0.1939
  370loPI   C6A 5916  15.923   6.519   7.681  0.1281 -0.1258 -0.0583
  370loPI   C1B 5917  15.040   7.069   9.636 -0.0489  0.0832 -0.3520
  370loPI   C2B 5918  15.190   6.940   9.178  0.3460 -0.0153 -0.2577
  370loPI   C3B 5919  15.141   6.664   8.760 -0.0065 -0.2960  0.1496
  370loPI   C4B 5920  15.272   6.478   8.316  0.0231  0.4894 -0.2140
  371loPI    C1 5921   2.306  13.996   9.900  0.1810 -0.0175 -0.0456
  371loPI    C2 5922   1.992  13.762   9.980  0.0688  0.1124 -0.1032
  371loPI    C3 5923   2.130  14.013  10.259  0.0970  0.0834 -0.0911
  371loPI   PO4 5924   2.294  14.132   9.605  0.0174  0.1556  0.0120
  371loPI   GL1 5925   2.045  14.371   9.268  0.0643  0.0837  0.0542
  371loPI   GL2 5926   1.863  14.108   9.316 -0.0201  0.1568  0.0078
  371loPI   C1A 5927   1.895  14.462   8.780  0.1404  0.0834  0.2325
  371loPI   C2A 5928   1.821  14.689   8.362  0.1735 -0.1463  0.0013
  371loPI   C3A 5929   1.760  14.760   7.899 -0.0889 -0.1077 -0.0669
  371loPI   C4A 5930   1.431  14.842   7.645 -0.0914 -0.1092  0.1975
  371loPI   C5A 5931   1.122  14.610   7.409 -0.0239  0.0851  0.0336
  371loPI   C6A 5932   0.702  14.720   7.232 -0.0466 -0.0353  0.2926
  371loPI   C1B 5933   2.102  14.068   8.889 -0.0148  0.2302  0.0320
  371loPI   C2B 5934   2.434  13.973   8.656 -0.2643 -0.2818  0.1085
  371loPI   C3B 5935   2.471  13.696   8.260  0.0492  0.3162  0.2037
  371loPI   C4B 5936   2.390  13.406   7.909 -0.1850 -0.0783  0.1441
  372loPI    C1 5937   6.044   7.962   9.778 -0.1165 -0.1540  0.2744
  372loPI    C2 5938   6.226   8.296   9.904  0.0193 -0.0906 -0.0796
  372loPI    C3 5939   6.271   7.954  10.107  0.3319 -0.0184 -0.0232
  372loPI   PO4 5940   5.933   8.032   9.583 -0.2290  0.1934 -0.1236
  372loPI   GL1 5941   5.919   7.812   9.264 -0.0303 -0.1072 -0.0360
  372loPI   GL2 5942   6.179   7.837   9.203  0.0525  0.0941 -0.0556
  372loPI   C1A 5943   5.686   7.894   8.945 -0.1102  0.0282 -0.2216
  372loPI   C2A 5944   5.719   7.881   8.517 -0.2231 -0.0525  0.1123
  372loPI   C3A 5945   5.818   7.618   8.143  0.4366  0.2359 -0.3302
  372loPI   C4A 5946   5.725   7.616   7.804  0.2275 -0.1774  0.2191
  372loPI   C5A 5947   5.471   7.311   7.553  0.1428 -0.0902  0.1342
  372loPI   C6A 5948   5.219   6.964   7.616 -0.0475  0.0581  0.2357
  372loPI   C1B 5949   6.249   7.911   8.844  0.1704 -0.0218 -0.0412
  372loPI   C2B 5950   6.328   7.908   8.407  0.2400  0.0943  0.1042
  372loPI   C3B 5951   6.530   7.822   8.000 -0.1802  0.0881  0.1140
  372loPI   C4B 5952   6.795   7.843   7.645  0.0378  0.2978  0.1886
  373loPI    C1 5953   5.157   7.103   9.599 -0.1425  0.0642  0.0962
  373loPI    C2 5954   5.256   7.163   9.982 -0.2011  0.1371  0.1002
  373loPI    C3 5955   4.981   7.396   9.807 -0.2973 -0.0035  0.0623
  373loPI   PO4 5956   5.368   7.119   9.440 -0.0476 -0.1102  0.0307
  373loPI   GL1 5957   5.662   7.364   9.232  0.0471 -0.1172 -0.0967
  373loPI   GL2 5958   5.831   7.154   9.305 -0.2732  0.0180  0.3238
  373loPI   C1A 5959   5.841   7.464   8.827  0.2172 -0.1103  0.1701
  373loPI   C2A 5960   5.953   7.355   8.528 -0.2230  0.0990  0.0977
  373loPI   C3A 5961   5.775   7.134   8.207 -0.0411  0.2987 -0.1079
  373loPI   C4A 5962   5.817   7.102   7.770  0.1250 -0.1373  0.0919
  373loPI   C5A 5963   5.700   6.755   7.504  0.2128  0.1675  0.1675
  373loPI   C6A 5964   5.830   6.524   7.145  0.1389  0.1416 -0.0544
  373loPI   C1B 5965   5.942   6.967   8.940 -0.2308  0.0804  0.0406
  373loPI   C2B 5966   6.296   6.882   8.679 -0.1095  0.2488  0.0392
  373loPI   C3B 5967   6.247   6.947   8.175  0.0084  0.1895 -0.1696
  373loPI   C4B 5968   6.350   7.076   7.639 -0.1114 -0.1164  0.3922
  374loPI    C1 5969   4.079   5.704  10.193  0.1157 -0.1076  0.0144
  374loPI    C2 5970   3.802   5.426  10.273 -0.0163  0.0315  0.0460
  374loPI    C3 5971   4.086   5.508  10.542 -0.1013  0.0737  0.1232
  374loPI   PO4 5972   4.037   5.629   9.853  0.0823  0.3885  0.1449
  374loPI   GL1 5973   3.831   5.748   9.471 -0.0800 -0.4370 -0.1170
  374loPI   GL2 5974   3.777   5.530   9.370  0.1084  0.1001 -0.1915
  374loPI   C1A 5975   3.986   5.951   9.046  0.1276  0.0450 -0.0066
  374loPI   C2A 5976   4.068   5.963   8.644 -0.1552  0.1156 -0.0044
  374loPI   C3A 5977   3.978   6.249   8.312  0.1874 -0.2858  0.1288
  374loPI   C4A 5978   3.930   6.528   8.037 -0.0887  0.2786 -0.2745
  374loPI   C5A 5979   4.101   6.826   7.698 -0.1379  0.1715 -0.1601
  374loPI   C6A 5980   4.232   7.093   7.387  0.1556 -0.0122 -0.0401
  374loPI   C1B 5981   3.434   5.579   9.068  0.2917  0.1955  0.0974
  374loPI   C2B 5982   3.164   5.587   8.667 -0.1384 -0.4082  0.3087
  374loPI   C3B 5983   3.004   5.851   8.274 -0.0604 -0.2500  0.0541
  374loPI   C4B 5984   2.917   5.893   7.846 -0.2430 -0.2121 -0.2118
  375loPI    C1 5985  13.041   3.074  10.625 -0.0840  0.1645  0.1248
  375loPI    C2 5986  13.277   2.781  10.488 -0.1147  0.1506  0.1016
  375loPI    C3 5987  13.295   2.888  10.873 -0.0197  0.1979  0.0845
  375loPI   PO4 5988  13.144   3.249  10.478 -0.0181  0.3384  0.0637
  375loPI   GL1 5989  13.426   3.249  10.160 -0.3296 -0.0112  0.4023
  375loPI   GL2 5990  13.284   3.009  10.072  0.0206 -0.1691 -0.0767
  375loPI   C1A 5991  13.184   3.207   9.612 -0.2045  0.1350 -0.2749
  375loPI   C2A 5992  13.163   3.220   9.088 -0.2666 -0.0566 -0.0422
  375loPI   C3A 5993  13.125   3.098   8.733  0.0319  0.2681 -0.4005
  375loPI   C4A 5994  12.993   2.963   8.335 -0.1603 -0.2916 -0.0914
  375loPI   C5A 5995  12.693   2.874   7.986  0.1304  0.2150  0.1113
  375loPI   C6A 5996  12.459   2.895   7.541 -0.3285  0.0400 -0.2227
  375loPI   C1B 5997  13.568   2.941   9.684  0.0693 -0.0625  0.3662
  375loPI   C2B 5998  13.680   3.040   9.186  0.0510  0.3642 -0.0017
  375loPI   C3B 5999  13.610   3.015   8.736 -0.0713 -0.1428  0.3325
  375loPI   C4B 6000  13.518   3.237   8.289  0.0299 -0.0977 -0.1004
  376loPI    C1 6001   3.233   9.320   9.798  0.2956  0.0180 -0.2705
  376loPI    C2 6002   3.296   9.120  10.139 -0.0053  0.1206 -0.1523
  376loPI    C3 6003   3.374   9.512  10.119  0.0328  0.1102 -0.2083
  376loPI   PO4 6004   3.075   9.217   9.602  0.0725  0.0238 -0.2360
  376loPI   GL1 6005   3.080   8.741   9.505 -0.2114 -0.2832 -0.0969
  376loPI   GL2 6006   2.886   8.633   9.288  0.1048 -0.2903 -0.2045
  376loPI   C1A 6007   3.281   8.870   9.109 -0.4373 -0.1028  0.1566
  376loPI   C2A 6008   3.391   8.719   8.693 -0.2908 -0.4177 -0.1294
  376loPI   C3A 6009   3.421   8.594   8.266 -0.0686  0.1352 -0.3342
  376loPI   C4A 6010   3.407   8.912   7.925 -0.2530  0.1615  0.0778
  376loPI   C5A 6011   3.679   9.056   7.618 -0.1997 -0.0476 -0.2681
  376loPI   C6A 6012   3.792   9.398   7.331  0.0507  0.0450 -0.3295
  376loPI   C1B 6013   2.888   8.755   8.826 -0.2996  0.1711 -0.0082
  376loPI   C2B 6014   2.909   8.833   8.398 -0.0049  0.2938  0.1326
  376loPI   C3B 6015   2.932   8.805   7.966  0.0068 -0.1637  0.4695
  376loPI   C4B 6016   2.715   8.614   7.538 -0.1799 -0.3953  0.1556
  377loPI    C1 6017  18.252   3.926  10.357 -0.1963  0.2680 -0.0473
  377loPI    C2 6018  18.568   3.907  10.601 -0.0969 -0.1047 -0.1981
  377loPI    C3 6019  18.258   3.659  10.655 -0.1211 -0.1162 -0.3848
  377loPI   PO4 6020  18.381   3.965  10.138  0.0486  0.0266  0.0829
  377loPI   GL1 6021  18.262   4.172   9.780  0.2005  0.0866 -0.2579
  377loPI   GL2 6022  18.333   4.345   9.556  0.1099 -0.3593  0.2954
  377loPI   C1A 6023  17.866   4.111   9.450  0.0269 -0.4245 -0.3266
  377loPI   C2A 6024  17.784   3.957   9.009  0.0675  0.2860  0.2055
  377loPI   C3A 6025  17.669   4.023   8.606 -0.3917 -0.0605 -0.3160
  377loPI   C4A 6026  17.568   3.970   8.225 -0.1059 -0.1439 -0.1253
  377loPI   C5A 6027  17.390   4.079   7.801  0.0191  0.1185  0.3073
  377loPI   C6A 6028  17.352   4.407   7.546 -0.1104  0.3061  0.0076
  377loPI   C1B 6029  18.235   4.014   9.165 -0.0314 -0.0778 -0.0047
  377loPI   C2B 6030  18.182   3.881   8.739 -0.2289  0.0015  0.4067
  377loPI   C3B 6031  18.173   3.866   8.270 -0.2302 -0.3021 -0.2205
  377loPI   C4B 6032  18.022   3.919   7.874 -0.2492  0.0743  0.3974
  378loPI    C1 6033  16.761  11.411  10.596  0.1163  0.1046  0.0785
  378loPI    C2 6034  16.491  11.325  10.879  0.1722 -0.0341  0.0903
  378loPI    C3 6035  16.873  11.388  10.979  0.1617  0.0754  0.0634
  378loPI   PO4 6036  16.647  11.598  10.397  0.0222 -0.4323 -0.2293
  378loPI   GL1 6037  16.406  11.856  10.197 -0.1336 -0.0855 -0.1668
  378loPI   GL2 6038  16.664  11.930  10.024  0.1774 -0.0981 -0.0259
  378loPI   C1A 6039  16.166  12.089   9.833  0.3276 -0.2625  0.3778
  378loPI   C2A 6040  16.190  12.158   9.380  0.0008 -0.1287 -0.2876
  378loPI   C3A 6041  16.177  12.315   8.970 -0.3736 -0.2029  0.0349
  378loPI   C4A 6042  16.186  12.299   8.543  0.1662  0.0630  0.0037
  378loPI   C5A 6043  16.119  12.311   8.176 -0.1820  0.1343 -0.1444
  378loPI   C6A 6044  16.143  11.995   8.026  0.3185  0.1089 -0.2844
  378loPI   C1B 6045  16.553  11.863   9.542  0.2608  0.1784  0.2082
  378loPI   C2B 6046  16.590  11.990   9.068 -0.0818  0.1990 -0.0563
  378loPI   C3B 6047  16.595  11.993   8.668  0.1277 -0.0557 -0.2682
  378loPI   C4B 6048  16.568  12.104   8.255  0.1078 -0.0498  0.1700
  379loPI    C1 6049  11.640   3.161  10.284 -0.3121 -0.3239 -0.1789
  379loPI    C2 6050  11.863   2.837  10.359  0.0960  0.0331  0.2107
  379loPI    C3 6051  11.535   2.910  10.576 -0.0490 -0.1625  0.0604
  379loPI   PO4 6052  11.653   3.166  10.027  0.1010  0.0037 -0.0341
  379loPI   GL1 6053  11.385   3.034   9.703 -0.1297 -0.0219  0.1703
  379loPI   GL2 6054  11.510   3.348   9.579  0.0394  0.2021 -0.2139
  379loPI   C1A 6055  11.433   2.811   9.311  0.0274 -0.2768  0.0895
  379loPI   C2A 6056  11.407   2.681   8.936 -0.1290  0.2703  0.3009
  379loPI   C3A 6057  11.342   2.838   8.499  0.3094  0.0842  0.1966
  379loPI   C4A 6058  11.525   2.606   8.143  0.3021  0.0368  0.2423
  379loPI   C5A 6059  11.918   2.275   7.969 -0.0501 -0.3948  0.2397
  379loPI   C6A 6060  11.873   1.865   7.760  0.0383  0.0733 -0.4171
  379loPI   C1B 6061  11.685   3.165   9.188  0.1887 -0.2683  0.0218
  379loPI   C2B 6062  11.811   2.933   8.818  0.1098 -0.1536 -0.2153
  379loPI   C3B 6063  11.974   3.071   8.494  0.0066 -0.1610  0.1355
  379loPI   C4B 6064  12.090   3.536   8.415 -0.3963  0.0646  0.2259
  380loPI    C1 6065   8.116  13.916  10.219 -0.0735  0.1758 -0.0657
  380loPI    C2 6066   7.961  14.012  10.575 -0.1717 -0.2602  0.0152
  380loPI    C3 6067   7.724  13.988  10.253 -0.1594 -0.2944  0.0086
  380loPI   PO4 6068   8.277  14.106  10.198  0.2238 -0.4801 -0.1598
  380loPI   GL1 6069   8.576  14.153   9.951  0.0818  0.0848 -0.1918
  380loPI   GL2 6070   8.407  13.880   9.767  0.0002 -0.0685  0.1463
  380loPI   C1A 6071   8.615  14.224   9.506 -0.1176 -0.0445  0.2131
  380loPI   C2A 6072   8.584  14.217   9.102  0.0721 -0.2357  0.2893
  380loPI   C3A 6073   8.629  14.279   8.677 -0.0167  0.0045 -0.2437
  380loPI   C4A 6074   8.733  14.239   8.205 -0.1520  0.0386  0.0054
  380loPI   C5A 6075   8.889  13.992   7.898 -0.1470 -0.2484  0.1001
  380loPI   C6A 6076   8.962  13.761   7.537  0.2196 -0.2147  0.0241
  380loPI   C1B 6077   8.547  13.725   9.326 -0.1332  0.2464 -0.0416
  380loPI   C2B 6078   8.560  13.764   8.862 -0.0372  0.0413  0.1425
  380loPI   C3B 6079   8.649  13.743   8.504  0.1197  0.1028  0.1293
  380loPI   C4B 6080   8.970  13.509   8.171  0.2236  0.0287  0.0324
  381loPI    C1 6081  12.515  11.647  10.710  0.1839 -0.0469 -0.0199
  381loPI    C2 6082  12.591  11.512  11.079  0.3131  0.0330 -0.0167
  381loPI    C3 6083  12.494  11.896  11.022  0.1126 -0.0206 -0.0455
  381loPI   PO4 6084  12.624  11.465  10.497 -0.2618  0.0122 -0.2630
  381loPI   GL1 6085  12.603  11.499  10.116  0.3879 -0.1021  0.0206
  381loPI   GL2 6086  12.439  11.755  10.045 -0.2726 -0.0088  0.0114
  381loPI   C1A 6087  12.696  11.478   9.703  0.1404  0.3571  0.1226
  381loPI   C2A 6088  12.897  11.462   9.349  0.0659  0.0979  0.2991
  381loPI   C3A 6089  12.827  11.486   8.930  0.0503  0.0266  0.4023
  381loPI   C4A 6090  12.794  11.208   8.579 -0.2118  0.0670 -0.2898
  381loPI   C5A 6091  12.812  10.867   8.393  0.3236 -0.1353 -0.0064
  381loPI   C6A 6092  12.803  10.522   8.162 -0.0752 -0.0312  0.2073
  381loPI   C1B 6093  12.244  11.702   9.661  0.2148 -0.0344  0.0490
  381loPI   C2B 6094  12.433  11.650   9.226  0.1548  0.3168 -0.1501
  381loPI   C3B 6095  12.315  11.515   8.869  0.1006  0.1090  0.1552
  381loPI   C4B 6096  12.294  11.302   8.414 -0.1661 -0.1268 -0.0089
  382loPI    C1 6097   6.802   9.078   9.617 -0.0523 -0.1191  0.3388
  382loPI    C2 6098   6.880   9.062  10.009  0.3148 -0.1362  0.2684
  382loPI    C3 6099   6.911   9.409   9.813  0.0289 -0.1060  0.2718
  382loPI   PO4 6100   6.663   8.824   9.590  0.5032  0.1211 -0.0940
  382loPI   GL1 6101   6.705   8.626   9.271 -0.0260 -0.1027  0.0716
  382loPI   GL2 6102   7.000   8.677   9.249 -0.0852 -0.3438 -0.1249
  382loPI   C1A 6103   6.755   8.681   8.864 -0.1053 -0.1879 -0.0346
  382loPI   C2A 6104   6.917   8.621   8.431  0.0694  0.0609  0.3717
  382loPI   C3A 6105   7.079   8.761   8.046 -0.0040 -0.1374  0.1189
  382loPI   C4A 6106   7.190   8.739   7.691 -0.1761  0.1169  0.2908
  382loPI   C5A 6107   7.445   8.751   7.369 -0.0186  0.0260  0.5487
  382loPI   C6A 6108   7.828   9.020   7.128 -0.0779  0.0210 -0.5352
  382loPI   C1B 6109   7.211   8.781   8.841  0.1955  0.0807 -0.0417
  382loPI   C2B 6110   7.374   9.024   8.476  0.1693 -0.3608 -0.2243
  382loPI   C3B 6111   7.398   9.267   8.149 -0.0571 -0.1181 -0.0773
  382loPI   C4B 6112   7.247   9.294   7.741  0.4000 -0.0832 -0.0595
  383loPI    C1 6113   2.162  10.742  10.168  0.1290  0.0013 -0.1524
  383loPI    C2 6114   2.553  10.676  10.222  0.0917 -0.0658  0.0463
  383loPI    C3 6115   2.319  10.386  10.075  0.0936 -0.0681  0.0476
  383loPI   PO4 6116   2.104  10.954  10.066  0.2774  0.0404  0.0045
  383loPI   GL1 6117   2.183  11.165   9.617 -0.0216  0.3410  0.3614
  383loPI   GL2 6118   2.426  10.994   9.362 -0.0059 -0.0375  0.2772
  383loPI   C1A 6119   2.183  11.350   9.152 -0.1485  0.1908 -0.0857
  383loPI   C2A 6120   2.327  11.585   8.686 -0.1304 -0.2839  0.2306
  383loPI   C3A 6121   2.469  11.675   8.250  0.0495 -0.1561 -0.0929
  383loPI   C4A 6122   2.656  11.666   7.808  0.1960 -0.1747 -0.2320
  383loPI   C5A 6123   2.784  11.861   7.355  0.1189  0.1132  0.1649
  383loPI   C6A 6124   2.937  11.552   6.987 -0.3622  0.5145  0.0533
  383loPI   C1B 6125   2.587  11.108   8.941 -0.0906 -0.3512 -0.3091
  383loPI   C2B 6126   2.308  11.090   8.629  0.2530 -0.0715  0.0876
  383loPI   C3B 6127   2.317  11.169   8.106  0.1129 -0.1894 -0.0642
  383loPI   C4B 6128   2.422  11.236   7.611  0.1500 -0.0098 -0.2245
  384loPI    C1 6129  10.084  12.090  10.803 -0.1324  0.0027  0.2511
  384loPI    C2 6130  10.326  12.318  11.025  0.1055  0.1079 -0.1068
  384loPI    C3 6131  10.415  11.933  10.963  0.0278  0.0732 -0.0043
  384loPI   PO4 6132  10.015  12.300  10.616 -0.2539  0.2106  0.0953
  384loPI   GL1 6133  10.123  12.346  10.210  0.3203  0.0049 -0.2521
  384loPI   GL2 6134  10.392  12.574  10.111  0.0475  0.0461  0.0944
  384loPI   C1A 6135  10.024  12.356   9.778 -0.1832 -0.1422 -0.1321
  384loPI   C2A 6136  10.136  12.404   9.434  0.0250 -0.3655 -0.1344
  384loPI   C3A 6137  10.211  12.575   9.027  0.0434  0.1986 -0.1534
  384loPI   C4A 6138  10.182  12.654   8.601 -0.2236  0.4415  0.0790
  384loPI   C5A 6139   9.963  12.407   8.191 -0.0719 -0.0299 -0.5793
  384loPI   C6A 6140  10.221  12.376   7.749  0.0341 -0.2675 -0.0868
  384loPI   C1B 6141  10.594  12.498   9.734 -0.0055 -0.0856  0.0343
  384loPI   C2B 6142  10.618  12.361   9.281 -0.0365  0.1135 -0.0725
  384loPI   C3B 6143  10.742  12.338   8.898 -0.0255  0.1459  0.0202
  384loPI   C4B 6144  10.862  12.331   8.504 -0.1026  0.0354 -0.0141
  385loPI    C1 6145   2.074   4.495   9.658  0.2100 -0.1681  0.0018
  385loPI    C2 6146   2.174   4.768   9.933  0.0023  0.1481 -0.2293
  385loPI    C3 6147   2.087   4.394  10.045 -0.0145  0.2549  0.1260
  385loPI   PO4 6148   1.933   4.642   9.460  0.1003 -0.3418  0.1275
  385loPI   GL1 6149   1.877   4.742   9.142 -0.4619 -0.2655  0.0087
  385loPI   GL2 6150   2.188   4.829   9.051  0.0132 -0.0565  0.0571
  385loPI   C1A 6151   1.621   4.572   8.715 -0.1329  0.1686  0.1049
  385loPI   C2A 6152   1.453   4.346   8.390  0.2687 -0.0324  0.0282
  385loPI   C3A 6153   1.497   4.418   7.975 -0.0981  0.0860 -0.0605
  385loPI   C4A 6154   1.548   4.589   7.648  0.0478 -0.2133  0.3139
  385loPI   C5A 6155   1.636   4.888   7.283 -0.1485 -0.0475 -0.0808
  385loPI   C6A 6156   1.967   5.143   7.138  0.2070  0.0118  0.3416
  385loPI   C1B 6157   2.200   4.820   8.626  0.1697  0.3184 -0.1051
  385loPI   C2B 6158   1.998   4.890   8.219 -0.2298  0.0531  0.2362
  385loPI   C3B 6159   2.041   4.893   7.681  0.3033 -0.4068  0.0710
  385loPI   C4B 6160   2.071   4.613   7.272 -0.1795  0.0699 -0.2218
  386loPI    C1 6161   2.092   3.630  10.194 -0.2181  0.1286  0.1137
  386loPI    C2 6162   2.138   3.980  10.381 -0.0561  0.0270  0.2675
  386loPI    C3 6163   2.275   3.645  10.549  0.2955 -0.0391 -0.1344
  386loPI   PO4 6164   2.131   3.697   9.933  0.1102 -0.1557  0.2135
  386loPI   GL1 6165   2.197   3.601   9.534 -0.0189  0.1678  0.3561
  386loPI   GL2 6166   2.439   3.328   9.520  0.1301  0.1088  0.1292
  386loPI   C1A 6167   1.965   3.324   9.380 -0.2257 -0.0150 -0.1688
  386loPI   C2A 6168   1.857   3.169   8.933  0.2607  0.1631 -0.1978
  386loPI   C3A 6169   1.748   2.979   8.584 -0.0282  0.1263  0.1215
  386loPI   C4A 6170   1.724   2.978   8.038 -0.0105 -0.0983  0.3335
  386loPI   C5A 6171   1.738   3.062   7.586 -0.1217  0.3515 -0.2910
  386loPI   C6A 6172   1.844   3.044   7.151 -0.2207  0.0686  0.3747
  386loPI   C1B 6173   2.484   3.321   9.114  0.1067 -0.0689 -0.3107
  386loPI   C2B 6174   2.254   3.342   8.763 -0.2929  0.0665  0.0357
  386loPI   C3B 6175   2.198   3.123   8.439  0.3770 -0.4329  0.0411
  386loPI   C4B 6176   2.306   2.953   8.043 -0.2984 -0.2710  0.0505
  387loPI    C1 6177  11.470   5.662  10.628  0.0379  0.0714  0.1157
  387loPI    C2 6178  11.700   5.367  10.485 -0.0360  0.0245  0.0932
  387loPI    C3 6179  11.424   5.288  10.763 -0.2801  0.0105 -0.1482
  387loPI   PO4 6180  11.497   5.859  10.419 -0.0524  0.1435  0.1072
  387loPI   GL1 6181  11.198   5.755   9.949  0.1136 -0.3468 -0.0510
  387loPI   GL2 6182  11.197   5.323   9.769 -0.3636 -0.0113 -0.1569
  387loPI   C1A 6183  11.476   5.736   9.535 -0.0341  0.0638  0.5644
  387loPI   C2A 6184  11.674   5.805   9.095 -0.2372  0.0909  0.4436
  387loPI   C3A 6185  12.083   5.858   8.988  0.0007  0.1248 -0.2920
  387loPI   C4A 6186  12.231   5.923   8.658 -0.3985  0.0460  0.1813
  387loPI   C5A 6187  12.484   6.223   8.405 -0.0741  0.1102 -0.1942
  387loPI   C6A 6188  12.792   6.304   8.018 -0.1109 -0.0585 -0.1788
  387loPI   C1B 6189  11.240   5.194   9.402 -0.3312 -0.1934 -0.0118
  387loPI   C2B 6190  11.441   5.392   9.046  0.1566  0.0806  0.2682
  387loPI   C3B 6191  11.253   5.621   8.748 -0.1963  0.2240 -0.1956
  387loPI   C4B 6192  11.121   5.855   8.369  0.1349  0.0548 -0.0454
  388loPI    C1 6193  10.068  10.934  10.634  0.1063 -0.1978  0.0043
  388loPI    C2 6194   9.729  10.949  10.844  0.0730 -0.1726 -0.0508
  388loPI    C3 6195  10.076  11.047  11.017  0.0375 -0.0922 -0.0248
  388loPI   PO4 6196   9.850  11.084  10.364  0.0380  0.1063 -0.0907
  388loPI   GL1 6197  10.021  11.252   9.935 -0.0301 -0.1424 -0.0921
  388loPI   GL2 6198  10.265  10.975  10.084  0.0426  0.1387  0.0964
  388loPI   C1A 6199   9.944  11.365   9.497  0.0103  0.1973  0.2749
  388loPI   C2A 6200  10.100  11.572   9.133 -0.1205 -0.0121 -0.1569
  388loPI   C3A 6201  10.214  11.737   8.705  0.1242 -0.0254  0.0807
  388loPI   C4A 6202  10.199  11.735   8.257  0.0200 -0.0003  0.0506
  388loPI   C5A 6203   9.907  11.772   8.009 -0.5005 -0.1236 -0.1764
  388loPI   C6A 6204   9.485  11.682   8.099 -0.3099 -0.1364 -0.1721
  388loPI   C1B 6205  10.532  11.093   9.788  0.0050 -0.0565  0.1573
  388loPI   C2B 6206  10.466  11.275   9.479 -0.0070  0.0705  0.2343
  388loPI   C3B 6207  10.258  11.133   9.125  0.1103 -0.1728 -0.1786
  388loPI   C4B 6208  10.397  10.912   8.761 -0.3174 -0.0499 -0.2993
  389loPI    C1 6209   4.580  12.464  10.108 -0.1923 -0.0528 -0.1569
  389loPI    C2 6210   4.239  12.593  10.271 -0.0097  0.0685  0.1373
  389loPI    C3 6211   4.555  12.837  10.251  0.1748 -0.1611  0.2077
  389loPI   PO4 6212   4.482  12.343   9.887 -0.2279  0.1390  0.1281
  389loPI   GL1 6213   4.252  12.250   9.524 -0.0005 -0.0267 -0.0331
  389loPI   GL2 6214   4.510  12.110   9.399  0.0411 -0.0915  0.0623
  389loPI   C1A 6215   4.162  12.422   9.066 -0.1507 -0.2229 -0.0987
  389loPI   C2A 6216   4.064  12.263   8.704 -0.0193  0.2088  0.1312
  389loPI   C3A 6217   3.887  12.269   8.324  0.1795 -0.3151  0.2427
  389loPI   C4A 6218   3.966  12.500   7.933  0.0348 -0.1903  0.0342
  389loPI   C5A 6219   4.076  12.702   7.571  0.0764  0.2043  0.1373
  389loPI   C6A 6220   4.101  12.971   7.307  0.1487 -0.0114 -0.0107
  389loPI   C1B 6221   4.813  12.102   9.143  0.3392  0.2291 -0.3222
  389loPI   C2B 6222   5.024  12.054   8.752 -0.0666 -0.0008 -0.0084
  389loPI   C3B 6223   5.300  12.151   8.402 -0.1523  0.0209  0.0247
  389loPI   C4B 6224   5.571  12.412   8.317  0.3015  0.1462  0.0374
  390loPI    C1 6225  18.202  10.500  10.602  0.0308 -0.0879  0.0053
  390loPI    C2 6226  18.113  10.171  10.392 -0.1584 -0.0794  0.0701
  390loPI    C3 6227  18.479  10.217  10.547  0.0184 -0.0357 -0.3481
  390loPI   PO4 6228  18.055  10.699  10.461  0.0151 -0.0209  0.3055
  390loPI   GL1 6229  18.041  10.744  10.112  0.2891  0.3285  0.0769
  390loPI   GL2 6230  17.776  10.756   9.877  0.2482 -0.0348 -0.2825
  390loPI   C1A 6231  18.321  10.739   9.692  0.5449 -0.3421 -0.2282
  390loPI   C2A 6232  18.326  10.985   9.293 -0.2144  0.3048  0.0019
  390loPI   C3A 6233  18.275  10.999   8.919  0.0633 -0.1101 -0.2768
  390loPI   C4A 6234  18.160  10.856   8.504  0.4988 -0.0455 -0.0212
  390loPI   C5A 6235  18.273  10.657   8.108 -0.0446  0.0387  0.0455
  390loPI   C6A 6236  18.515  10.645   7.745 -0.0384  0.1946 -0.1256
  390loPI   C1B 6237  17.896  10.554   9.506 -0.1083  0.0014  0.0585
  390loPI   C2B 6238  17.738  10.442   9.158 -0.0462  0.0430  0.0147
  390loPI   C3B 6239  17.729  10.441   8.684 -0.0223  0.0239  0.1139
  390loPI   C4B 6240  17.747  10.504   8.246 -0.2254 -0.0279  0.4308
  391loPI    C1 6241   4.142   3.630   9.922 -0.5268  0.0567 -0.1481
  391loPI    C2 6242   4.023   3.561  10.297  0.1042 -0.1056  0.0337
  391loPI    C3 6243   4.068   3.937  10.168 -0.0699 -0.0493  0.1324
  391loPI   PO4 6244   4.022   3.417   9.772 -0.1598 -0.0892 -0.1525
  391loPI   GL1 6245   3.820   3.357   9.417  0.4663 -0.0564  0.1452
  391loPI   GL2 6246   3.919   3.506   9.214  0.0700  0.1888  0.0678
  391loPI   C1A 6247   3.473   3.103   9.187 -0.2601 -0.0482  0.4571
  391loPI   C2A 6248   3.343   3.094   8.797 -0.1785 -0.2069 -0.1666
  391loPI   C3A 6249   3.217   3.075   8.408  0.0952 -0.1323 -0.3134
  391loPI   C4A 6250   3.410   3.139   7.975  0.1217  0.0910  0.5169
  391loPI   C5A 6251   3.276   3.218   7.650 -0.1614 -0.2391 -0.1471
  391loPI   C6A 6252   2.884   3.374   7.367  0.0855  0.1667  0.1137
  391loPI   C1B 6253   3.780   3.338   8.911 -0.1942  0.1540  0.4660
  391loPI   C2B 6254   3.736   3.340   8.561 -0.0221  0.1463 -0.2673
  391loPI   C3B 6255   3.638   3.564   8.216  0.0870 -0.0634 -0.0776
  391loPI   C4B 6256   3.433   3.649   7.808  0.0236 -0.1580 -0.0455
  392loPI    C1 6257  10.176  13.908  11.101 -0.1282 -0.1444 -0.0579
  392loPI    C2 6258   9.782  13.965  11.137 -0.0830  0.0923  0.0865
  392loPI    C3 6259  10.037  14.242  11.271  0.1343 -0.0739  0.0234
  392loPI   PO4 6260  10.296  13.745  10.847  0.1580  0.3308 -0.0871
  392loPI   GL1 6261  10.269  13.853  10.437  0.0181  0.0156 -0.2381
  392loPI   GL2 6262  10.483  13.524  10.396  0.0160 -0.0124  0.0366
  392loPI   C1A 6263  10.327  13.884   9.944 -0.1642  0.3907 -0.0846
  392loPI   C2A 6264  10.508  13.894   9.513  0.0798 -0.0262  0.0865
  392loPI   C3A 6265  10.469  13.877   9.043  0.0640  0.4423 -0.0617
  392loPI   C4A 6266  10.479  14.106   8.671  0.1442 -0.0550 -0.0023
  392loPI   C5A 6267  10.731  13.969   8.222 -0.1329  0.1679 -0.1504
  392loPI   C6A 6268  11.169  13.938   8.041  0.1812 -0.1430 -0.0608
  392loPI   C1B 6269  10.695  13.545   9.966 -0.1249  0.1741 -0.2505
  392loPI   C2B 6270  10.838  13.549   9.558 -0.2367  0.1129  0.0829
  392loPI   C3B 6271  10.868  13.583   9.116  0.4694  0.2319  0.1311
  392loPI   C4B 6272  10.845  13.643   8.678 -0.0260  0.0841  0.2990
  393loPI    C1 6273   5.662   5.663   9.944  0.0422 -0.2530  0.1108
  393loPI    C2 6274   5.866   5.805  10.257 -0.0212 -0.1042  0.0856
  393loPI    C3 6275   5.475   5.883  10.221  0.0312  0.0607 -0.1401
  393loPI   PO4 6276   5.894   5.724   9.741  0.0767 -0.0755  0.0532
  393loPI   GL1 6277   6.155   6.096   9.476  0.0833 -0.2795  0.0198
  393loPI   GL2 6278   5.914   6.154   9.361  0.2157 -0.0449 -0.1443
  393loPI   C1A 6279   6.132   5.750   9.076 -0.1530 -0.3747  0.1752
  393loPI   C2A 6280   5.850   5.582   8.665 -0.0552 -0.2251  0.0767
  393loPI   C3A 6281   5.691   5.302   8.506  0.6148  0.4299 -0.2353
  393loPI   C4A 6282   5.384   5.049   8.415 -0.2449 -0.2959 -0.1545
  393loPI   C5A 6283   5.099   5.274   8.142  0.3062  0.0507 -0.2909
  393loPI   C6A 6284   4.897   5.645   8.333 -0.0295  0.1738 -0.0722
  393loPI   C1B 6285   5.707   5.987   8.879 -0.1706 -0.0801 -0.0854
  393loPI   C2B 6286   5.743   6.067   8.466  0.0082  0.1927  0.2058
  393loPI   C3B 6287   5.608   6.113   7.996  0.0480 -0.3110 -0.0585
  393loPI   C4B 6288   5.597   6.272   7.535  0.0123  0.2054 -0.3442
  394loPI    C1 6289  10.779  14.501  11.277 -0.1183  0.1912 -0.0513
  394loPI    C2 6290  10.768  14.725  11.608 -0.0951 -0.0939  0.1458
  394loPI    C3 6291  11.097  14.514  11.520 -0.0634  0.0599 -0.1147
  394loPI   PO4 6292  10.463  14.494  11.152  0.0139  0.4077  0.1484
  394loPI   GL1 6293  10.053  14.369  10.786  0.0848  0.1363 -0.4224
  394loPI   GL2 6294   9.932  14.182  10.711  0.1529 -0.1426  0.0025
  394loPI   C1A 6295  10.119  14.672  10.377 -0.0109  0.1010 -0.0184
  394loPI   C2A 6296  10.368  14.954  10.176  0.2708  0.3001  0.1538
  394loPI   C3A 6297  10.196  14.813   9.784 -0.2087  0.1840  0.0819
  394loPI   C4A 6298  10.196  14.725   9.364 -0.1702 -0.1662  0.0666
  394loPI   C5A 6299  10.300  14.797   8.937 -0.2749  0.0208  0.1697
  394loPI   C6A 6300  10.241  14.858   8.512  0.1601 -0.1313  0.0451
  394loPI   C1B 6301   9.984  14.170  10.205 -0.3256  0.2008 -0.2163
  394loPI   C2B 6302  10.053  14.210   9.737 -0.2212 -0.0030 -0.1617
  394loPI   C3B 6303  10.142  14.195   9.287 -0.0020  0.0790  0.0484
  394loPI   C4B 6304  10.002  14.111   8.856 -0.3000  0.2955 -0.1557
  395loPI    C1 6305  13.526   7.985  10.260  0.1569 -0.0867 -0.0203
  395loPI    C2 6306  13.379   7.857  10.610  0.0028 -0.0555 -0.0724
  395loPI    C3 6307  13.692   8.106  10.603  0.0090 -0.0598  0.0427
  395loPI   PO4 6308  13.288   7.944  10.096  0.2813 -0.1975 -0.0561
  395loPI   GL1 6309  13.422   7.992   9.747 -0.0281  0.3828  0.1491
  395loPI   GL2 6310  13.165   8.246   9.621  0.0955 -0.0515  0.1476
  395loPI   C1A 6311  13.773   7.884   9.396 -0.2337  0.0280  0.1272
  395loPI   C2A 6312  13.695   7.831   8.970  0.0011 -0.3555  0.0815
  395loPI   C3A 6313  13.567   7.700   8.620  0.0708  0.0707 -0.0323
  395loPI   C4A 6314  13.439   7.560   8.229  0.2155 -0.1242 -0.5804
  395loPI   C5A 6315  13.177   7.578   7.803 -0.2175  0.1627 -0.1485
  395loPI   C6A 6316  12.870   7.847   7.469 -0.1248  0.1550  0.1562
  395loPI   C1B 6317  13.040   8.262   9.241 -0.0229 -0.0803 -0.0841
  395loPI   C2B 6318  12.986   8.540   8.793  0.2151 -0.1268  0.2550
  395loPI   C3B 6319  13.095   8.489   8.326  0.0211 -0.2261 -0.0912
  395loPI   C4B 6320  13.162   8.560   7.865 -0.2575  0.0237 -0.3133
  396loPI    C1 6321  17.411   6.338  10.410  0.1762 -0.1441  0.2350
  396loPI    C2 6322  17.190   6.138  10.676 -0.0170  0.0957  0.2581
  396loPI    C3 6323  17.256   6.529  10.725  0.1423  0.0928  0.0772
  396loPI   PO4 6324  17.368   6.128  10.172 -0.2942 -0.0443  0.0706
  396loPI   GL1 6325  17.515   5.945   9.709 -0.1333  0.0830  0.0996
  396loPI   GL2 6326  17.735   5.730   9.678  0.4293  0.0701  0.0349
  396loPI   C1A 6327  17.389   5.772   9.282  0.0835  0.1196 -0.2008
  396loPI   C2A 6328  17.443   5.493   9.038 -0.2093 -0.2075  0.1387
  396loPI   C3A 6329  17.552   5.346   8.624 -0.1458 -0.1176  0.1421
  396loPI   C4A 6330  17.274   5.381   8.254 -0.1207  0.0549  0.1615
  396loPI   C5A 6331  17.091   5.101   7.797 -0.2209  0.1672 -0.3961
  396loPI   C6A 6332  16.917   4.775   7.335  0.1865 -0.1378  0.1950
  396loPI   C1B 6333  17.658   5.321   9.488  0.0262 -0.1719  0.2549
  396loPI   C2B 6334  17.349   4.998   9.291 -0.0481  0.3797  0.0435
  396loPI   C3B 6335  17.363   5.034   8.862 -0.1095  0.4234 -0.1164
  396loPI   C4B 6336  17.279   4.939   8.467  0.0358  0.0410  0.3977
  397loPI    C1 6337   5.689   5.124   9.930 -0.3650  0.0811  0.0294
  397loPI    C2 6338   5.307   5.009   9.959 -0.2773 -0.1808  0.1730
  397loPI    C3 6339   5.601   4.751  10.044 -0.0703  0.0707  0.2330
  397loPI   PO4 6340   5.779   5.189   9.679  0.2673  0.0297 -0.0768
  397loPI   GL1 6341   5.692   5.404   9.319 -0.0481  0.3116 -0.3029
  397loPI   GL2 6342   5.379   5.442   9.095  0.0720 -0.2535  0.1815
  397loPI   C1A 6343   6.039   5.236   9.046  0.1227  0.0329  0.1545
  397loPI   C2A 6344   6.112   5.067   8.594  0.1572 -0.1482  0.1368
  397loPI   C3A 6345   6.051   5.115   8.167 -0.0636  0.2645 -0.0523
  397loPI   C4A 6346   6.152   5.436   7.810 -0.2703 -0.0632  0.0681
  397loPI   C5A 6347   6.426   5.741   7.596  0.0159  0.1869 -0.2599
  397loPI   C6A 6348   6.616   6.196   7.673  0.2254 -0.0285 -0.0744
  397loPI   C1B 6349   5.268   5.465   8.694  0.0811  0.0260  0.0347
  397loPI   C2B 6350   5.373   5.721   8.359  0.1548  0.0882 -0.0697
  397loPI   C3B 6351   5.288   5.735   7.921 -0.0929 -0.0055 -0.1300
  397loPI   C4B 6352   5.293   5.912   7.598  0.0419 -0.2659 -0.0818
  398loPI    C1 6353  10.525  11.605  10.638 -0.0577 -0.0140 -0.0074
  398loPI    C2 6354  10.350  11.344  10.391  0.1689 -0.1060 -0.0739
  398loPI    C3 6355  10.491  11.221  10.744 -0.0477  0.0015  0.0525
  398loPI   PO4 6356  10.724  11.729  10.462 -0.1763 -0.1455  0.3753
  398loPI   GL1 6357  10.899  11.520  10.042  0.0791 -0.0823 -0.0203
  398loPI   GL2 6358  11.045  11.759  10.030 -0.0602  0.0331  0.0368
  398loPI   C1A 6359  10.704  11.648   9.720  0.0903 -0.0961 -0.3183
  398loPI   C2A 6360  10.651  11.708   9.297  0.0976  0.0343 -0.1687
  398loPI   C3A 6361  10.714  11.794   8.844 -0.1758 -0.3899 -0.1905
  398loPI   C4A 6362  10.645  11.866   8.389 -0.2058  0.2222 -0.2172
  398loPI   C5A 6363  10.817  11.935   8.057  0.3780 -0.2643  0.0956
  398loPI   C6A 6364  10.898  11.983   7.651  0.3045  0.1370 -0.1869
  398loPI   C1B 6365  10.966  12.066   9.650 -0.1470  0.3419 -0.2988
  398loPI   C2B 6366  11.082  12.104   9.257 -0.0164 -0.0597  0.3548
  398loPI   C3B 6367  11.194  12.037   8.836  0.2019 -0.1702  0.0361
  398loPI   C4B 6368  11.177  11.951   8.414  0.2801  0.2053 -0.0680
  399loPI    C1 6369  14.174   0.508  10.651 -0.2195 -0.0131 -0.1076
  399loPI    C2 6370  14.308   0.883  10.625  0.3089 -0.1942 -0.1167
  399loPI    C3 6371  14.271   0.709  10.983 -0.1022 -0.0830 -0.0992
  399loPI   PO4 6372  13.945   0.526  10.423  0.0621 -0.1161 -0.1485
  399loPI   GL1 6373  13.943   0.549   9.987  0.2274  0.2632 -0.0529
  399loPI   GL2 6374  13.638   0.642   9.936  0.0931 -0.1249 -0.0189
  399loPI   C1A 6375  14.181   0.743   9.543  0.1514  0.0855 -0.0483
  399loPI   C2A 6376  14.241   0.784   9.143  0.1085  0.3405  0.1964
  399loPI   C3A 6377  14.293   0.821   8.721  0.0290  0.0203 -0.2398
  399loPI   C4A 6378  14.528   0.768   8.392  0.0174  0.0316  0.1832
  399loPI   C5A 6379  14.740   0.982   8.042  0.0755 -0.0771 -0.1307
  399loPI   C6A 6380  15.097   0.882   7.833 -0.0635 -0.0976  0.0834
  399loPI   C1B 6381  13.697   0.735   9.483  0.0131  0.0779  0.1994
  399loPI   C2B 6382  13.739   0.784   9.001 -0.4133  0.2631  0.0020
  399loPI   C3B 6383  13.790   0.748   8.627  0.0658 -0.0792  0.1845
  399loPI   C4B 6384  13.889   0.884   8.337  0.3346 -0.3798  0.0340
  400loPI    C1 6385   3.278   3.988   9.922 -0.1118 -0.0866 -0.0112
  400loPI    C2 6386   3.633   4.142  10.021 -0.0966 -0.2148  0.1380
  400loPI    C3 6387   3.318   4.194  10.262 -0.2062 -0.0108 -0.0455
  400loPI   PO4 6388   3.265   3.996   9.719 -0.0685 -0.0957  0.3490
  400loPI   GL1 6389   2.993   4.172   9.430 -0.1713  0.0721  0.2771
  400loPI   GL2 6390   3.148   4.464   9.372  0.0363  0.1329 -0.0608
  400loPI   C1A 6391   2.866   4.174   9.025  0.0540 -0.0044  0.1759
  400loPI   C2A 6392   2.937   4.181   8.638 -0.2427  0.0371  0.1614
  400loPI   C3A 6393   2.695   3.948   8.358 -0.1666  0.0056  0.0508
  400loPI   C4A 6394   2.437   3.885   8.070 -0.0464  0.1466  0.3230
  400loPI   C5A 6395   2.096   3.969   7.845 -0.3310 -0.1929 -0.0303
  400loPI   C6A 6396   1.599   4.036   7.696 -0.1369 -0.1156  0.1306
  400loPI   C1B 6397   3.040   4.611   8.934  0.0749  0.2395  0.1320
  400loPI   C2B 6398   2.903   4.743   8.492 -0.0378  0.1488 -0.1721
  400loPI   C3B 6399   3.032   4.806   8.125 -0.1270  0.1787  0.2247
  400loPI   C4B 6400   3.261   5.034   7.711  0.0092 -0.2529 -0.1168
  401loPI    C1 6401   0.539   8.791  10.170  0.2770  0.0540  0.0611
  401loPI    C2 6402   0.175   8.856  10.321  0.2322  0.2336 -0.1189
  401loPI    C3 6403   0.484   8.789  10.566  0.1262  0.3306  0.0439
  401loPI   PO4 6404   0.471   8.823   9.881 -0.2687  0.1636  0.1736
  401loPI   GL1 6405   0.538   8.836   9.519  0.2123 -0.0960 -0.3490
  401loPI   GL2 6406   0.296   9.117   9.498  0.0005  0.0990  0.0972
  401loPI   C1A 6407   0.255   8.753   9.144  0.2209  0.1119  0.2393
  401loPI   C2A 6408   0.242   8.717   8.664 -0.2993  0.3299  0.1002
  401loPI   C3A 6409   0.066   8.712   8.228  0.0313 -0.0867 -0.1917
  401loPI   C4A 6410   0.088   8.634   7.917  0.1163  0.1930 -0.0032
  401loPI   C5A 6411  -0.293   8.559   7.707  0.1199 -0.1053 -0.0770
  401loPI   C6A 6412  -0.459   8.193   7.391 -0.0329 -0.0192 -0.2745
  401loPI   C1B 6413   0.449   9.217   9.116  0.0885  0.3059 -0.2694
  401loPI   C2B 6414   0.440   9.191   8.677 -0.0372  0.0025  0.0135
  401loPI   C3B 6415   0.436   9.415   8.303  0.2648  0.1160  0.2118
  401loPI   C4B 6416   0.431   9.574   7.853  0.0052  0.1540  0.0569
  402loPI    C1 6417   3.995  13.579  10.073 -0.0717 -0.0872  0.0103
  402loPI    C2 6418   3.750  13.785  10.314 -0.0988 -0.0704 -0.0316
  402loPI    C3 6419   4.140  13.761  10.398 -0.1502 -0.2815  0.1564
  402loPI   PO4 6420   3.832  13.584   9.888  0.0461  0.3016 -0.0261
  402loPI   GL1 6421   3.779  13.638   9.509  0.1616  0.2644 -0.3034
  402loPI   GL2 6422   3.791  13.934   9.411  0.2763  0.1536  0.0942
  402loPI   C1A 6423   4.039  13.483   9.189  0.1334 -0.1081 -0.1625
  402loPI   C2A 6424   4.001  13.487   8.836 -0.0988 -0.0047  0.2858
  402loPI   C3A 6425   3.824  13.287   8.459 -0.1435  0.0411 -0.1717
  402loPI   C4A 6426   3.934  13.342   8.021 -0.3455 -0.2127  0.0050
  402loPI   C5A 6427   4.070  13.380   7.565  0.2452 -0.2226 -0.4299
  402loPI   C6A 6428   4.278  13.447   7.191 -0.4075 -0.0425  0.1660
  402loPI   C1B 6429   4.139  13.999   9.186 -0.2618 -0.1235  0.0632
  402loPI   C2B 6430   4.354  13.916   8.791  0.1858 -0.1463  0.0417
  402loPI   C3B 6431   4.538  13.852   8.391  0.0032 -0.3079 -0.0475
  402loPI   C4B 6432   4.385  13.964   7.977  0.2161 -0.0432  0.0049
  403loPI    C1 6433   4.202  15.552  10.107  0.0389  0.1484  0.1424
  403loPI    C2 6434   3.913  15.717  10.328 -0.2056  0.1344 -0.1597
  403loPI    C3 6435   3.866  15.348  10.180 -0.0039  0.1066 -0.1570
  403loPI   PO4 6436   4.297  15.781  10.014  0.1162 -0.1322  0.0071
  403loPI   GL1 6437   4.512  15.871   9.476 -0.1224 -0.0763 -0.2327
  403loPI   GL2 6438   4.117  15.707   9.406  0.0904  0.0952  0.0883
  403loPI   C1A 6439   4.757  15.843   9.148  0.0583  0.1059 -0.0108
  403loPI   C2A 6440   4.934  15.772   8.750 -0.1229 -0.2487 -0.0244
  403loPI   C3A 6441   5.083  15.941   8.224 -0.3816 -0.1357  0.1038
  403loPI   C4A 6442   5.123  16.172   7.848  0.0707  0.0675  0.0026
  403loPI   C5A 6443   4.849  16.368   7.634 -0.1143  0.0105 -0.0183
  403loPI   C6A 6444   4.738  16.832   7.460 -0.0622  0.0295 -0.1645
  403loPI   C1B 6445   4.031  15.690   8.977 -0.1765 -0.0961  0.0288
  403loPI   C2B 6446   4.107  15.700   8.558 -0.0283 -0.2237 -0.1269
  403loPI   C3B 6447   4.381  15.823   8.237 -0.0176 -0.2056  0.2224
  403loPI   C4B 6448   4.478  16.112   7.946  0.0106  0.1758  0.0984
  404loPI    C1 6449   3.474  11.471   9.832 -0.1569  0.1186 -0.0114
  404loPI    C2 6450   3.458  11.157  10.079  0.1140 -0.0311 -0.1792
  404loPI    C3 6451   3.564  11.517  10.219 -0.1226 -0.0282 -0.0015
  404loPI   PO4 6452   3.561  11.299   9.597  0.2450 -0.0493  0.0502
  404loPI   GL1 6453   3.400  11.262   9.194 -0.1111 -0.2791 -0.0357
  404loPI   GL2 6454   3.111  11.004   9.161 -0.0396  0.0855  0.1483
  404loPI   C1A 6455   3.550  10.867   8.866  0.3833 -0.0926  0.0405
  404loPI   C2A 6456   3.548  10.803   8.505 -0.0652  0.1873 -0.2040
  404loPI   C3A 6457   3.857  10.777   8.093  0.6755  0.0734  0.1227
  404loPI   C4A 6458   3.926  10.973   7.777  0.0098  0.0288  0.3190
  404loPI   C5A 6459   3.639  11.143   7.620 -0.0189 -0.0018 -0.0052
  404loPI   C6A 6460   3.338  11.391   7.895 -0.0995  0.2564 -0.0721
  404loPI   C1B 6461   3.064  11.027   8.725 -0.0454 -0.0968  0.1080
  404loPI   C2B 6462   3.207  11.086   8.274  0.1233  0.0946 -0.2041
  404loPI   C3B 6463   3.392  10.932   8.023 -0.2975  0.3939  0.2060
  404loPI   C4B 6464   3.164  10.937   7.602  0.1223  0.0513 -0.2520
  405loPI    C1 6465   2.984  11.372   9.988  0.0040  0.1649 -0.1149
  405loPI    C2 6466   2.803  11.170  10.282  0.2782 -0.0184 -0.0692
  405loPI    C3 6467   3.121  11.399  10.362  0.1786  0.1601 -0.1778
  405loPI   PO4 6468   2.811  11.512   9.899 -0.3654  0.1544  0.2153
  405loPI   GL1 6469   2.652  11.495   9.442 -0.5286 -0.0056 -0.1144
  405loPI   GL2 6470   2.455  11.618   9.531  0.1383 -0.0287  0.0528
  405loPI   C1A 6471   2.895  11.556   9.192  0.4009 -0.0951  0.0159
  405loPI   C2A 6472   2.828  11.579   8.748 -0.0996  0.1712 -0.0155
  405loPI   C3A 6473   2.766  11.303   8.360  0.0819  0.3180 -0.0541
  405loPI   C4A 6474   2.846  11.196   7.911 -0.0020  0.0784  0.4754
  405loPI   C5A 6475   2.923  11.360   7.477 -0.0557  0.0417 -0.3344
  405loPI   C6A 6476   3.361  11.460   7.347 -0.0724 -0.3146 -0.0637
  405loPI   C1B 6477   2.478  11.848   9.121 -0.0185  0.0658 -0.0757
  405loPI   C2B 6478   2.548  12.013   8.647  0.3785  0.3217  0.2230
  405loPI   C3B 6479   2.868  12.015   8.412  0.1169 -0.0844 -0.0736
  405loPI   C4B 6480   3.019  12.295   7.991 -0.0579  0.0278 -0.0165
  406loPI    C1 6481  14.064  12.820  10.877 -0.3870 -0.2017  0.1070
  406loPI    C2 6482  14.360  13.051  11.016 -0.5013  0.2108 -0.3097
  406loPI    C3 6483  14.049  12.961  11.251 -0.1744 -0.0149  0.0477
  406loPI   PO4 6484  14.187  12.584  10.745 -0.1218  0.1282 -0.0497
  406loPI   GL1 6485  14.353  12.408  10.402 -0.2948  0.2958  0.0724
  406loPI   GL2 6486  14.095  12.699  10.299 -0.1216  0.3190  0.0551
  406loPI   C1A 6487  14.455  12.433   9.958  0.1598  0.1296  0.3567
  406loPI   C2A 6488  14.392  12.462   9.578  0.0798 -0.1118  0.0400
  406loPI   C3A 6489  14.415  12.501   9.147  0.1872 -0.0369 -0.0764
  406loPI   C4A 6490  14.409  12.572   8.775  0.0846  0.2351 -0.0523
  406loPI   C5A 6491  14.229  12.588   8.425 -0.1572  0.5957  0.0934
  406loPI   C6A 6492  14.160  12.491   8.028  0.1145 -0.4111 -0.1430
  406loPI   C1B 6493  14.031  12.733   9.924  0.5067 -0.1558 -0.1472
  406loPI   C2B 6494  14.008  12.777   9.527 -0.0511  0.0879 -0.0550
  406loPI   C3B 6495  13.966  12.835   9.073 -0.0151  0.0887 -0.3005
  406loPI   C4B 6496  13.937  12.850   8.720 -0.3188 -0.0693 -0.0811
  407loPI    C1 6497   8.702   9.395  10.271 -0.2914 -0.0295 -0.1832
  407loPI    C2 6498   8.734   9.000  10.218  0.2558 -0.0307  0.0857
  407loPI    C3 6499   8.644   9.147  10.579 -0.0449  0.0917 -0.0359
  407loPI   PO4 6500   8.910   9.488  10.100 -0.0314 -0.0204  0.1259
  407loPI   GL1 6501   8.988   9.636   9.717 -0.1884  0.1521 -0.0646
  407loPI   GL2 6502   8.763   9.896   9.741  0.0901 -0.0170 -0.3141
  407loPI   C1A 6503   9.088   9.662   9.194 -0.0145  0.0913 -0.0120
  407loPI   C2A 6504   9.075   9.854   8.813 -0.2666  0.0995 -0.0890
  407loPI   C3A 6505   9.159  10.002   8.344  0.0735 -0.2435 -0.1556
  407loPI   C4A 6506   9.107  10.276   7.845  0.1245  0.2041  0.1048
  407loPI   C5A 6507   9.063  10.429   7.391 -0.1270 -0.1709  0.0468
  407loPI   C6A 6508   8.987  10.351   6.969  0.2518 -0.0485  0.1448
  407loPI   C1B 6509   8.673  10.169   9.405 -0.3501  0.0674  0.0340
  407loPI   C2B 6510   8.737  10.253   8.946 -0.1994 -0.0443  0.1463
  407loPI   C3B 6511   8.909  10.355   8.568 -0.0106  0.0583  0.0379
  407loPI   C4B 6512   8.788  10.567   8.210 -0.0228 -0.2101  0.2169
  408loPI    C1 6513  15.442  12.412  10.776  0.1267 -0.0175 -0.0501
  408loPI    C2 6514  15.259  12.701  10.569 -0.0109 -0.0919 -0.0331
  408loPI    C3 6515  15.194  12.664  10.962  0.1825 -0.0049  0.0080
  408loPI   PO4 6516  15.617  12.367  10.498 -0.1878 -0.0613  0.2396
  408loPI   GL1 6517  15.495  12.477  10.124 -0.3075  0.0101 -0.0738
  408loPI   GL2 6518  15.279  12.243  10.021 -0.0810 -0.2357 -0.1815
  408loPI   C1A 6519  15.350  12.788   9.834  0.2077  0.0706 -0.3128
  408loPI   C2A 6520  15.374  12.882   9.457  0.2210  0.0073  0.2435
  408loPI   C3A 6521  15.311  12.993   8.994 -0.2631  0.0708  0.2130
  408loPI   C4A 6522  15.369  12.919   8.551  0.0922 -0.0605  0.2293
  408loPI   C5A 6523  15.456  12.924   8.187  0.0414 -0.1117 -0.4007
  408loPI   C6A 6524  15.569  13.170   7.945 -0.2869 -0.3084  0.1684
  408loPI   C1B 6525  15.285  12.331   9.483 -0.1647 -0.5574  0.2345
  408loPI   C2B 6526  15.275  12.414   9.121  0.1364 -0.0094 -0.1843
  408loPI   C3B 6527  15.277  12.420   8.640  0.0594  0.1061  0.0209
  408loPI   C4B 6528  15.202  12.495   8.233 -0.0764  0.2638  0.0000
  409loPI    C1 6529   4.545   8.905   9.762 -0.0355 -0.1580  0.2076
  409loPI    C2 6530   4.368   8.547   9.736  0.1510 -0.2340 -0.0623
  409loPI    C3 6531   4.389   8.735  10.089 -0.5072 -0.1978 -0.0295
  409loPI   PO4 6532   4.660   8.906   9.546 -0.2729 -0.0991 -0.1170
  409loPI   GL1 6533   4.939   8.823   9.161 -0.1806  0.1413  0.0983
  409loPI   GL2 6534   5.193   8.826   9.003 -0.0827  0.1061 -0.1633
  409loPI   C1A 6535   4.792   8.785   8.734  0.0458 -0.2608  0.0011
  409loPI   C2A 6536   4.839   8.971   8.297  0.3278 -0.1325  0.2899
  409loPI   C3A 6537   4.796   9.059   7.861  0.2243 -0.0467  0.1611
  409loPI   C4A 6538   4.831   9.053   7.448 -0.1202  0.0002  0.2750
  409loPI   C5A 6539   4.827   9.196   6.938 -0.0751  0.1676 -0.0922
  409loPI   C6A 6540   4.594   9.503   6.744  0.2706 -0.0573 -0.0334
  409loPI   C1B 6541   5.269   8.968   8.618 -0.1281  0.1669 -0.1283
  409loPI   C2B 6542   5.305   8.994   8.155  0.0221 -0.1723 -0.0433
  409loPI   C3B 6543   5.311   8.970   7.763 -0.3077  0.2174 -0.0668
  409loPI   C4B 6544   5.582   8.806   7.492 -0.1137  0.3591  0.1305
  410loPI    C1 6545  17.336  10.871  10.734  0.0753 -0.1520  0.2021
  410loPI    C2 6546  17.706  11.013  10.785 -0.0286  0.1827  0.0546
  410loPI    C3 6547  17.534  10.795  11.073  0.2490  0.0982  0.1598
  410loPI   PO4 6548  17.166  11.148  10.581 -0.2980 -0.0573  0.2711
  410loPI   GL1 6549  17.133  11.183  10.150  0.0782 -0.1525 -0.0096
  410loPI   GL2 6550  17.133  11.507  10.197  0.2976 -0.3691  0.2448
  410loPI   C1A 6551  16.892  11.090   9.726  0.2272  0.0267  0.1952
  410loPI   C2A 6552  16.858  11.078   9.296  0.3551  0.0718  0.2489
  410loPI   C3A 6553  16.838  11.177   8.869  0.0611  0.2275  0.2219
  410loPI   C4A 6554  16.962  11.185   8.474 -0.4094 -0.1296 -0.1234
  410loPI   C5A 6555  17.022  11.151   8.168  0.3640 -0.0417  0.1411
  410loPI   C6A 6556  16.906  11.405   7.735  0.1520 -0.1728 -0.1700
  410loPI   C1B 6557  16.946  11.539   9.814  0.0238 -0.1013 -0.1014
  410loPI   C2B 6558  16.921  11.613   9.332 -0.0725 -0.1646 -0.0827
  410loPI   C3B 6559  16.914  11.671   8.812  0.0315 -0.0389 -0.0077
  410loPI   C4B 6560  16.909  11.643   8.282  0.1115 -0.0696 -0.0693
  411loPI    C1 6561   7.262   8.139  10.234  0.0353 -0.2153  0.0531
  411loPI    C2 6562   7.550   7.876  10.148  0.1580 -0.0590 -0.0196
  411loPI    C3 6563   7.195   7.748  10.280  0.2984 -0.2471  0.1836
  411loPI   PO4 6564   7.327   8.317  10.041  0.1102 -0.0604  0.1670
  411loPI   GL1 6565   7.387   8.239   9.686 -0.0635  0.5385 -0.1280
  411loPI   GL2 6566   7.592   8.004   9.528 -0.0638  0.0124  0.0959
  411loPI   C1A 6567   7.625   8.392   9.305  0.0854 -0.0053  0.0605
  411loPI   C2A 6568   7.617   8.538   8.885  0.1182  0.0017 -0.1452
  411loPI   C3A 6569   7.795   8.723   8.585  0.2665 -0.1299  0.0638
  411loPI   C4A 6570   7.880   8.900   8.189 -0.0518  0.3138  0.2298
  411loPI   C5A 6571   8.134   8.889   7.805 -0.3047 -0.2262  0.0816
  411loPI   C6A 6572   7.902   8.632   7.424 -0.3312  0.1323  0.0691
  411loPI   C1B 6573   7.656   7.940   9.141 -0.1987  0.0708  0.2593
  411loPI   C2B 6574   7.707   8.048   8.686 -0.1603 -0.1072 -0.0532
  411loPI   C3B 6575   7.815   7.950   8.311 -0.2312  0.0787  0.1520
  411loPI   C4B 6576   8.077   7.859   8.030  0.2735 -0.2468 -0.0256
  412loPI    C1 6577   1.960   0.888  10.034  0.0434 -0.0197 -0.0222
  412loPI    C2 6578   2.113   1.206  10.222 -0.2805  0.2470 -0.1991
  412loPI    C3 6579   2.239   0.839  10.316 -0.1089  0.4051  0.2123
  412loPI   PO4 6580   1.848   1.029   9.851 -0.2345  0.1431 -0.0382
  412loPI   GL1 6581   1.683   1.101   9.406  0.0768  0.1641  0.0089
  412loPI   GL2 6582   1.894   1.320   9.281  0.0012 -0.1588  0.2139
  412loPI   C1A 6583   1.626   0.972   9.007 -0.0663  0.0347  0.1702
  412loPI   C2A 6584   1.720   1.113   8.694 -0.1331 -0.2063 -0.2037
  412loPI   C3A 6585   1.867   0.971   8.329 -0.0813  0.2798  0.0458
  412loPI   C4A 6586   2.241   0.983   8.183  0.2943 -0.0764 -0.2271
  412loPI   C5A 6587   2.535   0.683   8.076  0.0458  0.1645 -0.0880
  412loPI   C6A 6588   2.654   0.798   7.704  0.0902  0.0589 -0.0826
  412loPI   C1B 6589   2.113   1.074   8.994  0.0419 -0.0654  0.0287
  412loPI   C2B 6590   2.200   1.223   8.600 -0.0158 -0.1443  0.1647
  412loPI   C3B 6591   2.315   1.474   8.300 -0.0567  0.0057  0.0560
  412loPI   C4B 6592   2.329   1.705   7.998 -0.0657 -0.0175 -0.0540
  413loPI    C1 6593   3.410   0.593  10.088  0.3273 -0.2316  0.0601
  413loPI    C2 6594   3.347   0.231  10.244 -0.1624 -0.2718 -0.2137
  413loPI    C3 6595   3.166   0.551  10.402  0.2629 -0.1402  0.0228
  413loPI   PO4 6596   3.376   0.665   9.894 -0.5129 -0.1972  0.0470
  413loPI   GL1 6597   3.463   0.781   9.439 -0.0090  0.2682  0.1563
  413loPI   GL2 6598   3.154   0.574   9.444  0.0148  0.1859 -0.1989
  413loPI   C1A 6599   3.654   0.499   9.168 -0.1228 -0.2669 -0.0085
  413loPI   C2A 6600   3.955   0.490   8.725  0.0772 -0.0809 -0.0896
  413loPI   C3A 6601   3.852   0.439   8.318  0.1671 -0.0648 -0.6524
  413loPI   C4A 6602   3.673   0.593   7.896  0.1445 -0.2925  0.0309
  413loPI   C5A 6603   3.339   0.821   7.622  0.0700  0.0652 -0.0013
  413loPI   C6A 6604   3.028   1.176   7.634  0.1083  0.1283  0.1277
  413loPI   C1B 6605   3.129   0.431   9.136  0.2606  0.4551  0.1406
  413loPI   C2B 6606   3.065   0.163   8.733  0.1905  0.1842 -0.0219
  413loPI   C3B 6607   2.998   0.086   8.317 -0.1398  0.1949 -0.2606
  413loPI   C4B 6608   2.822  -0.095   8.075 -0.1699  0.0378  0.1923
  414loPI    C1 6609   7.147  11.079  10.025  0.0609  0.0207  0.0052
  414loPI    C2 6610   6.831  11.316   9.962  0.0455  0.0037  0.0180
  414loPI    C3 6611   7.163  11.466  10.127  0.0672  0.0364 -0.0549
  414loPI   PO4 6612   7.117  10.704   9.837 -0.1820 -0.4033 -0.0493
  414loPI   GL1 6613   6.958  10.566   9.481 -0.1046  0.3281 -0.0878
  414loPI   GL2 6614   6.792  10.382   9.423  0.0333  0.1576 -0.1560
  414loPI   C1A 6615   7.203  10.821   9.245 -0.0595 -0.0660  0.1755
  414loPI   C2A 6616   7.597  11.006   9.015 -0.1373 -0.3887  0.1926
  414loPI   C3A 6617   7.394  11.311   8.723  0.2884  0.1146  0.3056
  414loPI   C4A 6618   7.509  11.343   8.355 -0.2139 -0.1302  0.0808
  414loPI   C5A 6619   7.830  11.528   8.074 -0.1020 -0.3319  0.1724
  414loPI   C6A 6620   7.783  11.475   7.664 -0.2271  0.0639  0.0743
  414loPI   C1B 6621   6.941  10.407   8.996 -0.1546  0.0222 -0.2005
  414loPI   C2B 6622   7.330  10.718   8.669  0.0030  0.0003  0.0523
  414loPI   C3B 6623   7.650  10.637   8.323 -0.0235 -0.2546 -0.0516
  414loPI   C4B 6624   7.741  10.602   7.912 -0.3428  0.1928  0.0380
  415loPI    C1 6625   6.797   3.707   9.770  0.5111 -0.0341  0.0324
  415loPI    C2 6626   6.919   3.404  10.001  0.1813 -0.0182  0.2339
  415loPI    C3 6627   6.654   3.669  10.142  0.0824  0.0744 -0.1153
  415loPI   PO4 6628   6.803   3.652   9.482  0.2360  0.2741  0.2067
  415loPI   GL1 6629   6.667   3.613   9.089 -0.2504  0.1595  0.3864
  415loPI   GL2 6630   7.016   3.834   9.017 -0.1211 -0.0020  0.0434
  415loPI   C1A 6631   6.725   3.619   8.635  0.0820  0.1886 -0.1095
  415loPI   C2A 6632   6.571   3.739   8.168  0.2804 -0.1383  0.0236
  415loPI   C3A 6633   6.399   3.706   7.764 -0.1526 -0.0095  0.1907
  415loPI   C4A 6634   6.208   3.414   7.529 -0.1957  0.0278  0.2250
  415loPI   C5A 6635   5.945   3.329   7.241  0.0778  0.2527  0.1417
  415loPI   C6A 6636   5.716   3.075   6.934 -0.2510 -0.3603 -0.2990
  415loPI   C1B 6637   7.085   4.094   8.575  0.1305 -0.1962  0.1893
  415loPI   C2B 6638   7.042   4.075   8.101 -0.0488  0.1703  0.0338
  415loPI   C3B 6639   7.158   4.181   7.727 -0.2213 -0.0744 -0.5287
  415loPI   C4B 6640   7.213   4.155   7.347  0.0103 -0.0630 -0.2041
  416loPI    C1 6641  17.839   9.386  10.160 -0.2097 -0.0584 -0.1632
  416loPI    C2 6642  17.514   9.492  10.368  0.0474  0.3396  0.0484
  416loPI    C3 6643  17.870   9.473  10.550  0.1660  0.0238 -0.2077
  416loPI   PO4 6644  17.768   9.227  10.022  0.0721  0.0917  0.1526
  416loPI   GL1 6645  18.027   9.154   9.626 -0.2556  0.3318 -0.1576
  416loPI   GL2 6646  18.373   9.233   9.550  0.3931  0.0166  0.0887
  416loPI   C1A 6647  17.780   9.001   9.340 -0.0887  0.1607 -0.2861
  416loPI   C2A 6648  17.635   9.006   8.948  0.1375 -0.0984 -0.0358
  416loPI   C3A 6649  17.511   9.219   8.678  0.0197  0.3030 -0.2504
  416loPI   C4A 6650  17.615   9.587   8.536 -0.1110  0.1880 -0.2288
  416loPI   C5A 6651  17.594   9.940   8.324 -0.2110 -0.1445 -0.0159
  416loPI   C6A 6652  17.712  10.088   7.918  0.2212 -0.1163  0.1519
  416loPI   C1B 6653  18.712   9.193   9.207  0.2125 -0.3447 -0.1281
  416loPI   C2B 6654  18.746   9.242   8.770  0.0749 -0.0234 -0.2944
  416loPI   C3B 6655  18.768   9.249   8.346 -0.1146  0.2627 -0.2779
  416loPI   C4B 6656  18.666   9.475   8.009 -0.1326 -0.2053 -0.1338
  417loPI    C1 6657   2.754   3.889   9.822 -0.3382 -0.0600 -0.0349
  417loPI    C2 6658   2.570   3.789  10.163 -0.1304  0.1555  0.1440
  417loPI    C3 6659   2.842   4.082  10.161  0.0400  0.0005 -0.1633
  417loPI   PO4 6660   2.732   3.718   9.622  0.0757 -0.1259  0.4146
  417loPI   GL1 6661   2.736   3.686   9.272  0.1228  0.1784 -0.0699
  417loPI   GL2 6662   2.473   3.881   9.257 -0.2247 -0.1881 -0.0646
  417loPI   C1A 6663   2.708   3.699   8.743  0.2412  0.1905  0.1557
  417loPI   C2A 6664   2.516   3.475   8.300 -0.0073  0.1007 -0.0962
  417loPI   C3A 6665   2.442   3.403   7.860 -0.0734 -0.2581 -0.2271
  417loPI   C4A 6666   2.479   3.735   7.555 -0.0304  0.0583  0.2084
  417loPI   C5A 6667   2.491   3.933   7.121  0.0138  0.1682  0.1500
  417loPI   C6A 6668   2.699   4.092   6.728  0.3741 -0.0418 -0.1873
  417loPI   C1B 6669   2.163   3.859   8.917 -0.1601  0.1379 -0.1157
  417loPI   C2B 6670   2.227   3.883   8.521  0.1195  0.1153 -0.1488
  417loPI   C3B 6671   1.836   3.901   8.247 -0.2169  0.3660 -0.1484
  417loPI   C4B 6672   1.522   3.590   7.956  0.0670 -0.1029 -0.0445
  418loPI    C1 6673   5.022   3.165   9.960 -0.0004  0.0473 -0.1365
  418loPI    C2 6674   4.787   2.875  10.102  0.0260 -0.1048 -0.3978
  418loPI    C3 6675   5.184   2.826  10.096  0.0660  0.1327 -0.0005
  418loPI   PO4 6676   4.960   3.214   9.724  0.1303 -0.0578  0.2789
  418loPI   GL1 6677   4.884   3.347   9.323  0.2269 -0.1770 -0.1129
  418loPI   GL2 6678   4.876   3.579   9.112  0.1503  0.0981  0.0374
  418loPI   C1A 6679   5.099   3.113   8.921  0.2749 -0.0166 -0.1545
  418loPI   C2A 6680   5.118   2.612   8.674 -0.1271  0.0161 -0.0770
  418loPI   C3A 6681   5.014   2.388   8.404 -0.0552 -0.2968  0.3160
  418loPI   C4A 6682   4.850   2.504   8.067 -0.0299  0.0412  0.4395
  418loPI   C5A 6683   4.952   2.624   7.577  0.2808  0.1748  0.0582
  418loPI   C6A 6684   5.165   2.747   7.301  0.1420 -0.0123 -0.0043
  418loPI   C1B 6685   4.894   3.527   8.708  0.1715  0.2724 -0.2063
  418loPI   C2B 6686   5.109   3.457   8.331  0.1561  0.1531 -0.2421
  418loPI   C3B 6687   5.104   3.421   7.966  0.0196  0.0418 -0.0217
  418loPI   C4B 6688   5.097   3.676   7.584  0.0642  0.2084  0.2217
  419loPI    C1 6689  11.690  14.099  11.046 -0.0497 -0.0105  0.1661
  419loPI    C2 6690  11.656  14.388  11.320  0.1337  0.1092  0.0650
  419loPI    C3 6691  12.008  14.322  11.142  0.0252  0.0075 -0.1143
  419loPI   PO4 6692  11.520  14.209  10.773  0.0227 -0.0152  0.0788
  419loPI   GL1 6693  11.646  14.178  10.369  0.3054  0.0482  0.1485
  419loPI   GL2 6694  11.409  13.937  10.376  0.1015  0.0300  0.1257
  419loPI   C1A 6695  11.591  14.245   9.931 -0.0241 -0.0417 -0.1223
  419loPI   C2A 6696  11.488  14.177   9.460 -0.1093 -0.1759 -0.0785
  419loPI   C3A 6697  11.383  14.146   9.035  0.1379 -0.0040  0.0250
  419loPI   C4A 6698  11.594  14.078   8.619 -0.3881 -0.1886 -0.2163
  419loPI   C5A 6699  11.685  14.231   8.182  0.1166  0.0669 -0.1087
  419loPI   C6A 6700  11.897  14.311   7.835 -0.1580 -0.4782 -0.3230
  419loPI   C1B 6701  11.272  13.853  10.026 -0.0625  0.4076 -0.0157
  419loPI   C2B 6702  11.318  13.711   9.699 -0.0490  0.0176 -0.1431
  419loPI   C3B 6703  11.383  13.720   9.316 -0.1003 -0.0279 -0.0672
  419loPI   C4B 6704  11.300  13.686   8.851 -0.3124 -0.0896  0.0663
  420loPI    C1 6705   2.105   0.346  10.041  0.0410 -0.2883  0.0907
  420loPI    C2 6706   1.716   0.401   9.963  0.1022 -0.0936 -0.0881
  420loPI    C3 6707   1.866   0.510  10.318  0.0522  0.1123 -0.1290
  420loPI   PO4 6708   2.179   0.214   9.762  0.0001 -0.0157 -0.0428
  420loPI   GL1 6709   2.364   0.323   9.353 -0.0315  0.0506  0.2313
  420loPI   GL2 6710   2.214   0.048   9.286  0.0266 -0.2996 -0.1292
  420loPI   C1A 6711   2.197   0.559   9.077  0.1155 -0.1034  0.1270
  420loPI   C2A 6712   2.206   0.681   8.632  0.0463  0.0650  0.2795
  420loPI   C3A 6713   2.067   0.524   8.271 -0.1896  0.0846  0.2179
  420loPI   C4A 6714   1.901   0.275   7.978 -0.0582  0.0437  0.0890
  420loPI   C5A 6715   1.889   0.068   7.568 -0.2754  0.0045 -0.1676
  420loPI   C6A 6716   2.169   0.176   7.212  0.2177 -0.1263  0.1852
  420loPI   C1B 6717   2.137   0.020   8.820 -0.1226  0.0188  0.0764
  420loPI   C2B 6718   2.027   0.017   8.407  0.2131 -0.1705 -0.1244
  420loPI   C3B 6719   1.974  -0.216   7.989 -0.1852 -0.3262 -0.1398
  420loPI   C4B 6720   2.369  -0.176   7.591  0.1635 -0.1359 -0.1362
  421loPI    C1 6721  13.201   5.156  10.461 -0.1480 -0.0484 -0.0989
  421loPI    C2 6722  13.551   5.092  10.644 -0.1240  0.1489 -0.0736
  421loPI    C3 6723  13.217   5.136  10.860 -0.2015 -0.2483 -0.1057
  421loPI   PO4 6724  13.330   5.125  10.163  0.0611  0.0296  0.1136
  421loPI   GL1 6725  13.703   5.147   9.770 -0.0081 -0.0703 -0.0356
  421loPI   GL2 6726  13.461   4.806   9.718 -0.2990 -0.3813 -0.0122
  421loPI   C1A 6727  13.879   4.991   9.458  0.2287 -0.2181  0.0312
  421loPI   C2A 6728  13.808   4.970   8.943  0.1835  0.1934  0.3664
  421loPI   C3A 6729  13.815   4.896   8.564  0.0157 -0.4374 -0.1816
  421loPI   C4A 6730  13.874   4.896   8.119 -0.2247 -0.2853 -0.0247
  421loPI   C5A 6731  13.820   5.257   7.702 -0.2290  0.0042 -0.0207
  421loPI   C6A 6732  13.800   5.649   7.548 -0.0082 -0.2205  0.2977
  421loPI   C1B 6733  13.518   4.475   9.262 -0.1846  0.0507  0.3018
  421loPI   C2B 6734  13.544   4.505   8.787  0.0557  0.2748 -0.2308
  421loPI   C3B 6735  13.616   4.393   8.347 -0.0501 -0.0917  0.3286
  421loPI   C4B 6736  13.627   4.208   7.935 -0.0676  0.0648 -0.1316
  422loPI    C1 6737   4.097  17.217   9.582  0.0827  0.1513  0.0625
  422loPI    C2 6738   3.970  17.374   9.927 -0.3751 -0.1634  0.0466
  422loPI    C3 6739   3.998  16.977   9.886 -0.1852 -0.1244 -0.2342
  422loPI   PO4 6740   4.392  17.282   9.565  0.0162 -0.4129 -0.0150
  422loPI   GL1 6741   4.648  17.528   9.387  0.4168 -0.0557 -0.1421
  422loPI   GL2 6742   4.560  17.761   9.530 -0.1527 -0.1296 -0.0546
  422loPI   C1A 6743   4.539  17.479   8.974  0.1992 -0.0404 -0.1241
  422loPI   C2A 6744   4.723  17.582   8.568  0.0971  0.2040 -0.0168
  422loPI   C3A 6745   4.828  17.496   8.187 -0.1641  0.2057  0.0266
  422loPI   C4A 6746   4.559  17.261   7.788 -0.3976  0.5147  0.3349
  422loPI   C5A 6747   4.271  17.014   7.531  0.0638 -0.0614 -0.0953
  422loPI   C6A 6748   3.909  17.069   7.349 -0.0992 -0.2890  0.1570
  422loPI   C1B 6749   4.598  17.952   9.128 -0.0485 -0.0920 -0.2485
  422loPI   C2B 6750   4.461  18.058   8.777  0.0219  0.1499 -0.3487
  422loPI   C3B 6751   4.625  18.018   8.304  0.2013 -0.1058  0.1279
  422loPI   C4B 6752   4.657  18.328   7.951 -0.0059  0.0509 -0.3073
  423loPI    C1 6753   3.811  16.505   9.710  0.0999  0.1241 -0.1911
  423loPI    C2 6754   4.052  16.191   9.767 -0.1181 -0.0023  0.0572
  423loPI    C3 6755   4.029  16.479  10.044 -0.1461  0.0811 -0.0312
  423loPI   PO4 6756   3.821  16.674   9.516  0.0149 -0.0015 -0.1964
  423loPI   GL1 6757   4.060  16.904   9.200  0.2685 -0.1346  0.1830
  423loPI   GL2 6758   4.375  17.025   9.074 -0.1476  0.3233 -0.2235
  423loPI   C1A 6759   4.175  16.560   8.953 -0.0758 -0.1622  0.1292
  423loPI   C2A 6760   4.031  16.241   8.673  0.2020  0.0389 -0.0417
  423loPI   C3A 6761   3.924  16.101   8.303  0.1343 -0.0899  0.1787
  423loPI   C4A 6762   3.977  15.984   7.841  0.5353  0.1021  0.2497
  423loPI   C5A 6763   3.859  16.039   7.509 -0.3002 -0.1033 -0.1946
  423loPI   C6A 6764   3.797  16.240   7.183  0.1819  0.1878  0.3803
  423loPI   C1B 6765   4.326  17.056   8.638 -0.2680 -0.0123 -0.2509
  423loPI   C2B 6766   4.389  16.971   8.235  0.0970 -0.0738 -0.0737
  423loPI   C3B 6767   4.493  16.663   7.914 -0.1706  0.1561 -0.3317
  423loPI   C4B 6768   4.326  16.406   7.586 -0.1835 -0.2552  0.3836
  424loPI    C1 6769   0.330  10.646  10.265 -0.0443  0.0711 -0.0352
  424loPI    C2 6770   0.151  10.290  10.247 -0.2809  0.1944 -0.1633
  424loPI    C3 6771   0.443  10.353  10.512 -0.1908 -0.1142 -0.1855
  424loPI   PO4 6772   0.307  10.720  10.047  0.3503  0.0313 -0.0904
  424loPI   GL1 6773   0.455  10.688   9.636 -0.1913  0.1135 -0.0804
  424loPI   GL2 6774   0.567  10.425   9.482 -0.0691 -0.4179 -0.1542
  424loPI   C1A 6775   0.499  10.980   9.318 -0.4442  0.0664  0.1860
  424loPI   C2A 6776   0.661  11.063   8.924  0.1111 -0.2184 -0.0192
  424loPI   C3A 6777   0.571  11.073   8.454 -0.0187  0.2201  0.1287
  424loPI   C4A 6778   0.500  11.129   8.054 -0.0961 -0.3119 -0.0285
  424loPI   C5A 6779   0.560  11.259   7.644  0.1203 -0.1236 -0.0727
  424loPI   C6A 6780   0.340  11.486   7.318 -0.0524  0.0615 -0.2897
  424loPI   C1B 6781   0.371  10.497   9.140 -0.1981  0.1023  0.0014
  424loPI   C2B 6782   0.483  10.603   8.719 -0.0047  0.1212 -0.0592
  424loPI   C3B 6783   0.336  10.371   8.212  0.0141  0.2177 -0.0826
  424loPI   C4B 6784  -0.063  10.271   8.154 -0.0201 -0.0244 -0.2328
  425loPI    C1 6785   8.687   1.860  10.165  0.1301  0.3266 -0.0955
  425loPI    C2 6786   8.429   2.117  10.330  0.0647  0.1648  0.0566
  425loPI    C3 6787   8.821   2.152  10.403  0.0529  0.2027  0.1019
  425loPI   PO4 6788   8.584   1.849   9.960 -0.0587 -0.0514 -0.0496
  425loPI   GL1 6789   8.436   1.790   9.564 -0.1762 -0.0854  0.1514
  425loPI   GL2 6790   8.215   1.612   9.428  0.0623 -0.0096  0.2943
  425loPI   C1A 6791   8.672   1.901   9.234  0.0608  0.3706 -0.0984
  425loPI   C2A 6792   8.685   1.928   8.780  0.1283 -0.1533  0.0577
  425loPI   C3A 6793   8.688   2.039   8.391 -0.2627 -0.2390 -0.0659
  425loPI   C4A 6794   8.649   2.117   7.951  0.0557  0.0724 -0.0163
  425loPI   C5A 6795   8.694   2.503   7.706  0.2946  0.2759 -0.1417
  425loPI   C6A 6796   8.769   2.956   7.692 -0.0176 -0.2435  0.1181
  425loPI   C1B 6797   8.267   1.555   8.964 -0.0326  0.2226  0.0146
  425loPI   C2B 6798   8.348   1.523   8.535  0.1310  0.0211  0.0689
  425loPI   C3B 6799   8.382   1.729   8.110  0.2317 -0.1249 -0.1416
  425loPI   C4B 6800   8.453   1.679   7.626  0.1596 -0.2539 -0.2561
  426loPI    C1 6801   0.424  16.919  10.211  0.0711 -0.0277  0.1714
  426loPI    C2 6802   0.127  16.719  10.388 -0.0446 -0.0297 -0.0228
  426loPI    C3 6803   0.322  17.005  10.588 -0.0184 -0.1906  0.1850
  426loPI   PO4 6804   0.582  16.877  10.054 -0.1847  0.0956 -0.0340
  426loPI   GL1 6805   0.571  16.700   9.589  0.0941 -0.1421 -0.0493
  426loPI   GL2 6806   0.661  16.426   9.674  0.1998 -0.1802  0.1272
  426loPI   C1A 6807   0.353  16.754   9.143  0.2300 -0.1550 -0.0893
  426loPI   C2A 6808   0.358  16.821   8.715  0.1064 -0.0008  0.0252
  426loPI   C3A 6809   0.295  16.813   8.332  0.2756 -0.0695 -0.4232
  426loPI   C4A 6810   0.100  16.984   7.921  0.1130  0.1030  0.4621
  426loPI   C5A 6811  -0.034  16.697   7.573 -0.1710  0.3736  0.1912
  426loPI   C6A 6812   0.050  16.640   7.172 -0.2541  0.0700  0.0832
  426loPI   C1B 6813   0.885  16.344   9.292 -0.1004 -0.2912  0.0301
  426loPI   C2B 6814   0.839  16.351   8.898 -0.3873  0.3838 -0.0545
  426loPI   C3B 6815   0.643  16.476   8.415  0.2203  0.1256  0.0118
  426loPI   C4B 6816   0.626  16.362   8.044  0.0784 -0.2383 -0.2627
  427loPI    C1 6817   6.161  14.505  10.537  0.0805 -0.0850 -0.0022
  427loPI    C2 6818   5.778  14.623  10.539  0.0801 -0.0827 -0.1287
  427loPI    C3 6819   6.001  14.661  10.869 -0.0181 -0.0495 -0.0658
  427loPI   PO4 6820   6.138  14.480  10.254 -0.0076  0.2600  0.0602
  427loPI   GL1 6821   6.177  14.301   9.792 -0.1481 -0.0158 -0.1413
  427loPI   GL2 6822   6.142  13.985   9.948 -0.1031 -0.0437  0.2434
  427loPI   C1A 6823   6.075  14.738   9.629  0.1426 -0.2056 -0.1718
  427loPI   C2A 6824   5.886  15.017   9.254  0.0371  0.0794  0.0392
  427loPI   C3A 6825   5.609  15.045   8.953 -0.1118 -0.1015  0.0849
  427loPI   C4A 6826   5.494  14.996   8.527  0.1387 -0.0789  0.2287
  427loPI   C5A 6827   5.366  15.011   8.057  0.0307  0.1593 -0.1639
  427loPI   C6A 6828   5.649  15.002   7.775  0.1792  0.0909  0.2116
  427loPI   C1B 6829   6.219  13.855   9.462  0.0451 -0.1674 -0.1534
  427loPI   C2B 6830   6.050  13.894   9.011  0.0496 -0.0274  0.1241
  427loPI   C3B 6831   6.046  14.172   8.596  0.1866 -0.1155 -0.2365
  427loPI   C4B 6832   6.086  14.179   8.138  0.2298 -0.1058  0.0362
  428loPI    C1 6833  10.911   6.379  10.434  0.0542  0.0564  0.1303
  428loPI    C2 6834  11.146   6.131  10.641 -0.0202 -0.3563 -0.2633
  428loPI    C3 6835  10.758   6.162  10.733  0.0217 -0.2647 -0.1136
  428loPI   PO4 6836  10.955   6.340  10.177 -0.2011 -0.3915 -0.2162
  428loPI   GL1 6837  10.995   6.255   9.714 -0.1617  0.0061 -0.1813
  428loPI   GL2 6838  10.703   6.062   9.826 -0.1210  0.2254 -0.1242
  428loPI   C1A 6839  10.877   6.269   9.284  0.4798  0.0753 -0.0342
  428loPI   C2A 6840  10.841   6.456   8.891 -0.0835  0.4062  0.1286
  428loPI   C3A 6841  10.811   6.375   8.396 -0.0004 -0.0152 -0.5226
  428loPI   C4A 6842  10.923   6.136   8.004 -0.2158 -0.1334  0.0016
  428loPI   C5A 6843  11.026   5.856   7.557  0.1520 -0.0025 -0.0457
  428loPI   C6A 6844  11.298   5.899   7.308  0.1435  0.1351 -0.1829
  428loPI   C1B 6845  10.467   5.796   9.560  0.3293  0.1585 -0.0387
  428loPI   C2B 6846  10.458   5.850   9.087  0.0123  0.1640 -0.4121
  428loPI   C3B 6847  10.347   5.694   8.700  0.1660 -0.1363 -0.1604
  428loPI   C4B 6848  10.139   5.487   8.432  0.0862 -0.2298 -0.1819
  429loPI    C1 6849   5.378   0.623   9.861 -0.2231  0.0339  0.1347
  429loPI    C2 6850   5.363   0.225   9.903 -0.1066  0.0145 -0.0015
  429loPI    C3 6851   5.238   0.462  10.200  0.1699 -0.1220  0.2278
  429loPI   PO4 6852   5.450   0.624   9.579  0.1859  0.1559  0.3181
  429loPI   GL1 6853   5.438   0.894   9.270  0.1485  0.1751 -0.1360
  429loPI   GL2 6854   5.175   1.052   9.443 -0.0711 -0.0559 -0.0091
  429loPI   C1A 6855   5.480   0.956   8.896  0.2636  0.4688 -0.1415
  429loPI   C2A 6856   5.431   1.028   8.550 -0.0897  0.4097  0.0147
  429loPI   C3A 6857   5.654   0.928   8.165  0.0744 -0.2232 -0.1913
  429loPI   C4A 6858   5.947   0.988   7.723  0.1159  0.2286 -0.1682
  429loPI   C5A 6859   6.271   1.213   7.576  0.1956  0.0811 -0.1658
  429loPI   C6A 6860   6.667   1.518   7.388  0.5677 -0.0795  0.1310
  429loPI   C1B 6861   5.026   1.088   9.048 -0.0413 -0.3789  0.3870
  429loPI   C2B 6862   4.943   1.081   8.566  0.0673  0.2970  0.5016
  429loPI   C3B 6863   5.166   1.046   8.144 -0.0937 -0.0622  0.3389
  429loPI   C4B 6864   5.413   0.993   7.756 -0.0921 -0.1292  0.2554
  430loPI    C1 6865  16.633   8.908  10.335 -0.3598 -0.0778  0.0228
  430loPI    C2 6866  16.845   8.636  10.539 -0.0333  0.1100 -0.0594
  430loPI    C3 6867  16.822   9.013  10.672 -0.2616  0.1075 -0.0883
  430loPI   PO4 6868  16.641   8.883  10.002  0.2699 -0.1326  0.1113
  430loPI   GL1 6869  16.486   9.093   9.639 -0.1447  0.0883  0.0762
  430loPI   GL2 6870  16.813   9.296   9.704 -0.1569 -0.0214 -0.4524
  430loPI   C1A 6871  16.695   8.842   9.328  0.0230  0.0426  0.2463
  430loPI   C2A 6872  16.943   8.678   9.017  0.0877 -0.0384 -0.2781
  430loPI   C3A 6873  17.019   8.658   8.509  0.0692 -0.0430 -0.4251
  430loPI   C4A 6874  17.064   8.708   8.056 -0.0623  0.3626 -0.0491
  430loPI   C5A 6875  17.112   9.091   8.044  0.0032 -0.1350  0.0082
  430loPI   C6A 6876  17.462   9.473   8.009  0.0294  0.1238 -0.0277
  430loPI   C1B 6877  16.718   9.507   9.318  0.2644  0.2517  0.2565
  430loPI   C2B 6878  16.741   9.493   8.809  0.1679 -0.0742 -0.2950
  430loPI   C3B 6879  16.588   9.527   8.470  0.0641  0.1058  0.2671
  430loPI   C4B 6880  16.719   9.503   8.086  0.3062  0.1582 -0.0085
  431loPI    C1 6881   8.725   4.213  10.203  0.0931  0.0011  0.2035
  431loPI    C2 6882   8.854   4.164  10.578 -0.2723  0.4296  0.3944
  431loPI    C3 6883   8.485   4.048  10.476  0.0056 -0.1774  0.0213
  431loPI   PO4 6884   8.804   4.163  10.050  0.0840  0.1770  0.0713
  431loPI   GL1 6885   8.669   4.088   9.644 -0.0894 -0.0277  0.3878
  431loPI   GL2 6886   8.455   3.862   9.490  0.1079 -0.2337  0.1880
  431loPI   C1A 6887   8.746   4.436   9.240  0.1010 -0.1326 -0.0975
  431loPI   C2A 6888   8.611   4.805   9.051 -0.3160  0.1909 -0.3687
  431loPI   C3A 6889   8.487   5.048   8.755  0.0851  0.1995  0.0623
  431loPI   C4A 6890   8.329   5.180   8.463 -0.3360  0.0967 -0.0964
  431loPI   C5A 6891   8.213   4.889   8.078  0.0667 -0.2532  0.1505
  431loPI   C6A 6892   8.086   4.910   7.626  0.2539  0.2190 -0.2392
  431loPI   C1B 6893   8.480   3.974   9.070 -0.0299 -0.1258  0.1946
  431loPI   C2B 6894   8.458   4.090   8.600  0.2181 -0.1197  0.1627
  431loPI   C3B 6895   8.336   4.194   8.245  0.0353  0.2922 -0.3385
  431loPI   C4B 6896   8.376   4.324   7.812  0.0852  0.1242 -0.1228
  432loPI    C1 6897  16.012  17.802  10.186  0.1096  0.1136 -0.2896
  432loPI    C2 6898  16.006  18.200  10.150  0.2438  0.1378 -0.0673
  432loPI    C3 6899  15.992  18.032  10.513 -0.0025 -0.0661 -0.1676
  432loPI   PO4 6900  16.263  17.735  10.057  0.0969  0.3608  0.0422
  432loPI   GL1 6901  16.253  17.436   9.760 -0.1987 -0.1651 -0.0873
  432loPI   GL2 6902  16.446  17.627   9.625  0.2868 -0.3950 -0.0242
  432loPI   C1A 6903  15.972  17.265   9.446  0.1203 -0.1133  0.3496
  432loPI   C2A 6904  15.954  17.196   8.970 -0.1058 -0.0435  0.1013
  432loPI   C3A 6905  15.790  16.981   8.690 -0.1446 -0.1542  0.1046
  432loPI   C4A 6906  16.030  16.702   8.424  0.3539  0.1099 -0.2114
  432loPI   C5A 6907  15.964  16.409   8.167  0.1413  0.0251 -0.4637
  432loPI   C6A 6908  16.160  16.179   7.893  0.1627  0.2197 -0.2606
  432loPI   C1B 6909  16.412  17.661   9.251 -0.0427 -0.3524 -0.2043
  432loPI   C2B 6910  16.278  17.513   8.864  0.0622 -0.1974  0.4424
  432loPI   C3B 6911  16.146  17.459   8.441  0.0199 -0.1804  0.0279
  432loPI   C4B 6912  16.009  17.617   8.054  0.0021 -0.4440 -0.3614
  433loPI    C1 6913  10.252   6.771  10.415 -0.0311  0.3178  0.2517
  433loPI    C2 6914   9.971   6.956  10.198 -0.1029  0.0341  0.0976
  433loPI    C3 6915   9.933   6.930  10.595 -0.1119  0.3106  0.1163
  433loPI   PO4 6916  10.384   6.627  10.268 -0.2719  0.0209 -0.1138
  433loPI   GL1 6917  10.656   6.644   9.830  0.1499 -0.0556 -0.0975
  433loPI   GL2 6918  10.892   6.857   9.840 -0.2087 -0.1332  0.2092
  433loPI   C1A 6919  10.713   6.740   9.349  0.1557  0.0912 -0.1373
  433loPI   C2A 6920  10.873   6.923   9.074 -0.1494  0.0275 -0.0029
  433loPI   C3A 6921  10.788   7.019   8.656  0.2073 -0.0119  0.0932
  433loPI   C4A 6922  10.795   6.962   8.228 -0.2278 -0.0354 -0.4474
  433loPI   C5A 6923  10.890   7.061   7.752 -0.1888  0.0349 -0.1201
  433loPI   C6A 6924  10.893   7.291   7.407  0.1032 -0.2762  0.0752
  433loPI   C1B 6925  11.176   6.732   9.580 -0.0538 -0.2889  0.0816
  433loPI   C2B 6926  11.286   6.674   9.093  0.2936  0.1016 -0.0748
  433loPI   C3B 6927  11.222   6.623   8.645 -0.3537  0.0851 -0.1320
  433loPI   C4B 6928  11.199   6.628   8.248  0.2124 -0.0117  0.0750
  434loPI    C1 6929   6.475   3.202  10.129  0.0496  0.0071  0.0882
  434loPI    C2 6930   6.427   2.805  10.135 -0.0405  0.0183  0.1227
  434loPI    C3 6931   6.439   3.011  10.478 -0.0388  0.0507  0.1033
  434loPI   PO4 6932   6.519   3.222   9.758  0.0071 -0.2706 -0.1584
  434loPI   GL1 6933   6.409   3.065   9.281 -0.1903  0.0649 -0.2898
  434loPI   GL2 6934   6.256   2.864   9.242  0.3189  0.1988  0.2088
  434loPI   C1A 6935   6.390   3.263   8.870 -0.0028 -0.4233 -0.0874
  434loPI   C2A 6936   6.367   3.242   8.518  0.4330  0.1152 -0.0183
  434loPI   C3A 6937   6.187   3.292   8.070  0.0128  0.2522 -0.0072
  434loPI   C4A 6938   6.193   2.958   7.656 -0.1651 -0.1722 -0.2669
  434loPI   C5A 6939   6.345   3.002   7.149 -0.2754 -0.4023  0.3841
  434loPI   C6A 6940   6.537   3.345   6.836  0.1284  0.0387 -0.0068
  434loPI   C1B 6941   6.326   2.794   8.823  0.0633 -0.2394 -0.0662
  434loPI   C2B 6942   6.347   2.727   8.390 -0.1700 -0.1244  0.0715
  434loPI   C3B 6943   6.500   2.791   8.020 -0.0919 -0.4540  0.3055
  434loPI   C4B 6944   6.635   2.785   7.567 -0.0199  0.0180  0.1928
  435loPI    C1 6945   8.870  12.379  10.520  0.0891 -0.0090  0.0196
  435loPI    C2 6946   9.058  12.210  10.830 -0.0789  0.1046  0.1852
  435loPI    C3 6947   8.665  12.154  10.779 -0.0284 -0.0222 -0.0835
  435loPI   PO4 6948   9.010  12.688  10.567  0.1881 -0.1179  0.0538
  435loPI   GL1 6949   9.219  12.874  10.272  0.1948 -0.0351  0.0780
  435loPI   GL2 6950   8.916  12.843  10.063 -0.1346  0.1114 -0.2653
  435loPI   C1A 6951   9.539  12.674  10.107  0.0494  0.2363  0.2375
  435loPI   C2A 6952   9.740  12.704   9.625 -0.0176  0.0429 -0.1181
  435loPI   C3A 6953   9.681  12.650   9.240  0.4505  0.0180  0.1238
  435loPI   C4A 6954   9.668  12.773   8.821  0.4435 -0.2049  0.4117
  435loPI   C5A 6955   9.568  12.760   8.323 -0.0989  0.1538  0.0343
  435loPI   C6A 6956   9.503  13.143   8.058 -0.0788 -0.0431 -0.1827
  435loPI   C1B 6957   9.223  13.016   9.749 -0.0564  0.2950 -0.0098
  435loPI   C2B 6958   9.346  13.033   9.382 -0.0558 -0.3179  0.1786
  435loPI   C3B 6959   9.234  12.942   8.914 -0.1718  0.0697  0.3659
  435loPI   C4B 6960   9.130  13.039   8.502 -0.0928 -0.1881  0.0063
  436loPI    C1 6961   0.553   4.112   9.911  0.1550  0.2370  0.0414
  436loPI    C2 6962   0.809   4.028  10.207  0.2018 -0.0055 -0.0653
  436loPI    C3 6963   0.578   3.739  10.055 -0.0555  0.1870 -0.0475
  436loPI   PO4 6964   0.503   4.363   9.852 -0.1447  0.2141  0.0084
  436loPI   GL1 6965   0.477   4.428   9.470  0.0865 -0.1817  0.1783
  436loPI   GL2 6966   0.239   4.277   9.369 -0.2119 -0.2386 -0.4354
  436loPI   C1A 6967   0.554   4.594   9.091  0.1490 -0.1362 -0.0291
  436loPI   C2A 6968   0.594   4.646   8.752 -0.0849  0.0310 -0.2235
  436loPI   C3A 6969   0.638   4.644   8.392  0.0338  0.0954  0.1560
  436loPI   C4A 6970   0.977   4.774   8.087 -0.1446  0.1848  0.0665
  436loPI   C5A 6971   0.996   4.784   7.645 -0.0532  0.1913  0.0149
  436loPI   C6A 6972   1.088   4.713   7.143  0.3937  0.0498 -0.0298
  436loPI   C1B 6973   0.196   4.226   8.905  0.2221 -0.3728 -0.1953
  436loPI   C2B 6974   0.231   4.307   8.413  0.0822 -0.3461 -0.2742
  436loPI   C3B 6975   0.175   4.274   8.032 -0.1941  0.1153 -0.0408
  436loPI   C4B 6976   0.178   4.179   7.586  0.0954 -0.1533  0.0495
  437loPI    C1 6977   5.028   5.844   9.874  0.0197  0.0854  0.0855
  437loPI    C2 6978   4.800   6.147  10.002 -0.1151 -0.0178  0.0928
  437loPI    C3 6979   4.987   5.912  10.266 -0.0811  0.0049  0.0892
  437loPI   PO4 6980   4.951   5.805   9.601 -0.0613 -0.2004 -0.0391
  437loPI   GL1 6981   5.056   5.949   9.219  0.0537  0.3129 -0.0585
  437loPI   GL2 6982   4.988   6.351   9.172  0.1409  0.1342  0.1217
  437loPI   C1A 6983   5.014   5.866   8.798  0.1655  0.3010 -0.0128
  437loPI   C2A 6984   4.748   6.071   8.555 -0.1403 -0.1803 -0.0405
  437loPI   C3A 6985   4.455   6.118   8.239 -0.2906  0.2541  0.1141
  437loPI   C4A 6986   4.329   6.230   7.828  0.4048 -0.0113  0.1896
  437loPI   C5A 6987   4.653   6.308   7.539  0.0247 -0.0017  0.0813
  437loPI   C6A 6988   4.802   6.044   7.267 -0.3321 -0.0666  0.1196
  437loPI   C1B 6989   4.816   6.614   8.796  0.1366 -0.3344  0.0179
  437loPI   C2B 6990   4.765   6.553   8.339  0.0941  0.1851  0.2813
  437loPI   C3B 6991   4.869   6.543   8.075 -0.5837  0.3600 -0.0766
  437loPI   C4B 6992   5.223   6.430   7.796 -0.2502 -0.0121  0.2705
  438loPI    C1 6993  18.269  18.027  10.163  0.1465  0.2906  0.0220
  438loPI    C2 6994  18.117  17.886  10.505  0.1118  0.0955 -0.0724
  438loPI    C3 6995  18.032  18.259  10.387 -0.1426  0.0522 -0.0314
  438loPI   PO4 6996  18.166  17.793  10.018 -0.3964  0.0973 -0.0967
  438loPI   GL1 6997  17.781  17.859   9.712 -0.1033 -0.0835  0.2019
  438loPI   GL2 6998  17.463  18.048   9.792 -0.1410 -0.1686  0.1473
  438loPI   C1A 6999  17.626  17.719   9.252 -0.2120 -0.0388  0.0298
  438loPI   C2A 7000  17.612  17.760   8.806 -0.2995  0.0636 -0.0966
  438loPI   C3A 7001  17.684  17.731   8.323 -0.0164  0.1316 -0.0438
  438loPI   C4A 7002  17.466  17.642   7.927 -0.0888  0.2461  0.1346
  438loPI   C5A 7003  17.124  17.751   7.492  0.5172  0.2769 -0.1919
  438loPI   C6A 7004  16.990  17.638   7.097  0.2828  0.3085  0.2240
  438loPI   C1B 7005  17.262  18.050   9.441  0.0499 -0.0090  0.0793
  438loPI   C2B 7006  17.190  17.889   9.062  0.1675  0.1270 -0.1115
  438loPI   C3B 7007  17.067  17.797   8.691 -0.2497 -0.0114 -0.1894
  438loPI   C4B 7008  17.237  17.889   8.360 -0.3049  0.2389 -0.3104
  439loPI    C1 7009  12.165  13.566  10.632 -0.2402 -0.1090  0.0029
  439loPI    C2 7010  11.822  13.769  10.600 -0.2324 -0.0862  0.0632
  439loPI    C3 7011  12.114  13.907  10.835 -0.0737  0.0428 -0.2055
  439loPI   PO4 7012  12.204  13.505  10.333  0.0396 -0.1672  0.0150
  439loPI   GL1 7013  12.145  13.643   9.970 -0.1504  0.5019  0.1629
  439loPI   GL2 7014  11.797  13.738  10.033  0.0237  0.4083 -0.0733
  439loPI   C1A 7015  12.256  13.523   9.435 -0.0945  0.3581  0.0183
  439loPI   C2A 7016  12.275  13.645   8.901 -0.1404 -0.0611  0.3448
  439loPI   C3A 7017  12.394  13.821   8.477  0.2636 -0.1500 -0.0670
  439loPI   C4A 7018  12.652  13.761   7.963  0.0165 -0.1542  0.0146
  439loPI   C5A 7019  12.865  13.513   7.715 -0.0327 -0.1628 -0.1250
  439loPI   C6A 7020  12.921  13.467   7.328 -0.1173 -0.1263  0.0400
  439loPI   C1B 7021  11.862  13.805   9.554  0.0541 -0.4013  0.0130
  439loPI   C2B 7022  11.895  13.951   9.086 -0.1209  0.1032 -0.4292
  439loPI   C3B 7023  12.059  14.278   8.718 -0.3173  0.0718  0.2105
  439loPI   C4B 7024  12.291  14.319   8.241  0.0246 -0.0913 -0.1090
  440loPI    C1 7025  18.591  15.534  10.382 -0.0827  0.1056  0.1809
  440loPI    C2 7026  18.694  15.151  10.326 -0.0349  0.1298  0.1011
  440loPI    C3 7027  18.808  15.343  10.659 -0.0806  0.0675  0.1529
  440loPI   PO4 7028  18.373  15.643  10.150  0.0372 -0.0641 -0.4465
  440loPI   GL1 7029  18.339  15.708   9.717 -0.0362 -0.1991 -0.0097
  440loPI   GL2 7030  18.469  15.479   9.459  0.0909  0.1559 -0.0699
  440loPI   C1A 7031  18.058  15.839   9.426  0.1687 -0.1271  0.0058
  440loPI   C2A 7032  17.964  15.906   8.946 -0.2718 -0.0913 -0.0591
  440loPI   C3A 7033  17.873  16.100   8.472  0.0223 -0.1992  0.2165
  440loPI   C4A 7034  18.181  16.446   8.266  0.0059 -0.1476 -0.1096
  440loPI   C5A 7035  18.491  16.393   8.004  0.2569  0.0839  0.1365
  440loPI   C6A 7036  18.904  16.423   7.996 -0.0894  0.3027  0.1123
  440loPI   C1B 7037  18.379  15.103   9.193 -0.2922 -0.0161  0.0058
  440loPI   C2B 7038  18.222  15.060   8.823 -0.0083  0.1373  0.1798
  440loPI   C3B 7039  17.953  15.171   8.476  0.2317  0.1603 -0.1101
  440loPI   C4B 7040  17.771  14.978   8.062 -0.2082  0.4798 -0.2459
  441loPI    C1 7041  12.901   7.840  10.429  0.2535 -0.0591  0.0577
  441loPI    C2 7042  13.079   7.482  10.443 -0.0039 -0.1885  0.0872
  441loPI    C3 7043  12.825   7.590  10.732 -0.0830 -0.0642 -0.0273
  441loPI   PO4 7044  12.810   7.822  10.151 -0.2177  0.1398  0.2701
  441loPI   GL1 7045  12.894   7.863   9.748  0.1474 -0.3446 -0.1138
  441loPI   GL2 7046  12.616   8.171   9.573 -0.0120  0.0200  0.2082
  441loPI   C1A 7047  12.785   7.601   9.439  0.0705 -0.5246 -0.2667
  441loPI   C2A 7048  12.856   7.456   9.090  0.0849 -0.0890 -0.0987
  441loPI   C3A 7049  12.858   7.173   8.693  0.1164 -0.0920 -0.1008
  441loPI   C4A 7050  12.882   7.178   8.243 -0.0571  0.0164 -0.1161
  441loPI   C5A 7051  12.873   6.875   7.920 -0.3361 -0.1295 -0.1454
  441loPI   C6A 7052  12.868   6.667   7.654  0.3123 -0.1448  0.1902
  441loPI   C1B 7053  12.691   7.982   9.195  0.0713 -0.0555  0.0265
  441loPI   C2B 7054  12.709   8.092   8.872 -0.0925 -0.1097  0.0995
  441loPI   C3B 7055  12.820   8.079   8.481 -0.0209  0.0583  0.1163
  441loPI   C4B 7056  12.804   8.176   8.000 -0.0043  0.0650 -0.4513
  442loPI    C1 7057  15.736   9.172  10.263 -0.0447 -0.2098  0.0331
  442loPI    C2 7058  15.992   9.062  10.550 -0.0471  0.0642  0.1436
  442loPI    C3 7059  15.615   8.931  10.558  0.0619 -0.2677  0.0302
  442loPI   PO4 7060  15.733   9.148  10.040  0.0266 -0.4646 -0.1440
  442loPI   GL1 7061  15.540   9.434   9.790 -0.2161  0.0875 -0.4411
  442loPI   GL2 7062  15.383   9.615  10.041  0.1868  0.0174 -0.0674
  442loPI   C1A 7063  15.696   9.299   9.370  0.0358 -0.0400 -0.1061
  442loPI   C2A 7064  15.809   9.104   8.918 -0.1631 -0.1214  0.1175
  442loPI   C3A 7065  15.567   9.068   8.671  0.3078 -0.0123  0.4212
  442loPI   C4A 7066  15.615   9.213   8.235 -0.0641  0.0330  0.0822
  442loPI   C5A 7067  15.619   9.351   7.779 -0.1799 -0.1814  0.0543
  442loPI   C6A 7068  15.867   9.518   7.519 -0.0087  0.1087  0.1342
  442loPI   C1B 7069  15.377   9.837   9.579  0.0981 -0.1158 -0.1780
  442loPI   C2B 7070  15.324  10.027   9.123  0.0965 -0.0667  0.3903
  442loPI   C3B 7071  15.463   9.978   8.753 -0.0325  0.1924 -0.1882
  442loPI   C4B 7072  15.369  10.061   8.332 -0.2186 -0.0447  0.1483
  443loPI    C1 7073   5.789   4.787   9.383 -0.1095 -0.2179 -0.1364
  443loPI    C2 7074   5.479   4.608   9.563 -0.1700  0.1311  0.1162
  443loPI    C3 7075   5.433   4.969   9.398 -0.0313 -0.0468 -0.3259
  443loPI   PO4 7076   5.887   4.598   9.256 -0.1956 -0.1924  0.2532
  443loPI   GL1 7077   6.117   4.670   8.959  0.2854  0.3764  0.0556
  443loPI   GL2 7078   6.444   4.875   9.001 -0.3080  0.3466  0.3442
  443loPI   C1A 7079   6.374   4.622   8.587  0.4118  0.3195  0.0557
  443loPI   C2A 7080   6.294   4.708   8.214  0.0761  0.2035 -0.2242
  443loPI   C3A 7081   6.393   4.738   7.724  0.0499  0.0806  0.0881
  443loPI   C4A 7082   6.477   4.360   7.490 -0.2746  0.1667  0.2487
  443loPI   C5A 7083   6.747   3.923   7.457  0.0579 -0.1536  0.0009
  443loPI   C6A 7084   6.677   3.502   7.303  0.2828  0.0878 -0.0497
  443loPI   C1B 7085   6.642   5.095   8.721  0.1275  0.1593 -0.0038
  443loPI   C2B 7086   6.853   5.500   8.514 -0.0769 -0.1127 -0.1528
  443loPI   C3B 7087   7.192   5.424   8.179  0.0298  0.0944 -0.2633
  443loPI   C4B 7088   7.415   5.387   7.737  0.1723  0.1460 -0.1878
  444loPI    C1 7089  14.637   0.296  10.757 -0.1262 -0.1492 -0.3028
  444loPI    C2 7090  14.439  -0.022  10.897 -0.1018 -0.1152 -0.1900
  444loPI    C3 7091  14.813   0.049  11.017 -0.1154 -0.0307 -0.1965
  444loPI   PO4 7092  14.611   0.226  10.469  0.3570 -0.0370 -0.0970
  444loPI   GL1 7093  14.793   0.292  10.125 -0.0617  0.0384  0.0825
  444loPI   GL2 7094  14.870  -0.109  10.076  0.0015  0.0452  0.0229
  444loPI   C1A 7095  14.879   0.453   9.710 -0.0990 -0.0211  0.0381
  444loPI   C2A 7096  14.704   0.731   9.435 -0.1302 -0.1629  0.2834
  444loPI   C3A 7097  14.776   0.748   8.902 -0.0916 -0.1976  0.3106
  444loPI   C4A 7098  14.911   0.531   8.534  0.2551  0.0645 -0.4986
  444loPI   C5A 7099  15.045   0.492   8.175  0.1574 -0.1309  0.1121
  444loPI   C6A 7100  15.489   0.636   8.113  0.0701  0.2272  0.4243
  444loPI   C1B 7101  15.103  -0.390   9.880 -0.0697  0.1310  0.0133
  444loPI   C2B 7102  15.459  -0.424   9.641 -0.1332 -0.0718 -0.3015
  444loPI   C3B 7103  15.843  -0.315   9.451  0.2208  0.2194 -0.2722
  444loPI   C4B 7104  16.124  -0.187   9.140  0.1293  0.0768  0.2953
  445loPI    C1 7105  17.786  16.302  10.516  0.0261  0.3048 -0.1224
  445loPI    C2 7106  18.008  16.327  10.849  0.0622  0.0901 -0.1290
  445loPI    C3 7107  17.627  16.205  10.870  0.0498  0.1229 -0.1607
  445loPI   PO4 7108  18.046  16.190  10.378 -0.3595  0.2162  0.0772
  445loPI   GL1 7109  18.274  16.149   9.915  0.2183 -0.1208 -0.2058
  445loPI   GL2 7110  18.515  16.282   9.707 -0.2877 -0.1779  0.1341
  445loPI   C1A 7111  17.980  16.312   9.637 -0.1436  0.2121  0.0397
  445loPI   C2A 7112  17.694  16.179   9.278 -0.1030 -0.0085 -0.0184
  445loPI   C3A 7113  17.706  16.484   8.896  0.1882 -0.1775  0.1255
  445loPI   C4A 7114  17.871  16.753   8.525  0.1555 -0.1373  0.0162
  445loPI   C5A 7115  17.955  16.856   8.079  0.0428 -0.1897  0.0324
  445loPI   C6A 7116  18.053  17.019   7.595 -0.1690 -0.1866  0.2261
  445loPI   C1B 7117  18.465  16.287   9.328  0.1332 -0.0159 -0.1782
  445loPI   C2B 7118  18.662  16.241   8.980  0.0567 -0.0090  0.1235
  445loPI   C3B 7119  18.917  15.920   8.886 -0.1432  0.2622  0.1957
  445loPI   C4B 7120  18.891  15.534   8.830 -0.0103  0.0406 -0.0818
  446loPI    C1 7121  13.614  15.578  10.256 -0.3551  0.0051  0.0715
  446loPI    C2 7122  13.691  15.560  10.648 -0.2768  0.0899  0.0604
  446loPI    C3 7123  13.318  15.506  10.515 -0.3428  0.2782  0.1651
  446loPI   PO4 7124  13.717  15.706  10.143  0.0683 -0.0347  0.1029
  446loPI   GL1 7125  13.632  16.035   9.868 -0.2386 -0.0660 -0.1279
  446loPI   GL2 7126  13.480  16.238   9.856  0.0227 -0.4718 -0.2231
  446loPI   C1A 7127  13.554  15.829   9.469  0.1278 -0.1907  0.2588
  446loPI   C2A 7128  13.239  15.835   9.202 -0.1033  0.1999  0.1712
  446loPI   C3A 7129  13.040  15.872   8.876 -0.2314  0.2199 -0.2574
  446loPI   C4A 7130  13.336  15.745   8.368 -0.1616 -0.0660  0.0214
  446loPI   C5A 7131  13.684  15.688   8.088  0.0628  0.3081 -0.0994
  446loPI   C6A 7132  13.936  15.510   7.842  0.4047  0.1701 -0.2737
  446loPI   C1B 7133  13.558  16.353   9.425  0.1887  0.0122  0.1261
  446loPI   C2B 7134  13.574  16.218   9.006  0.3603  0.0766 -0.2145
  446loPI   C3B 7135  13.315  16.205   8.662 -0.1233  0.0459  0.1224
  446loPI   C4B 7136  13.045  16.504   8.467  0.2590 -0.2060  0.3373
  447loPI    C1 7137  17.459   1.477  10.393  0.2165  0.0157 -0.0980
  447loPI    C2 7138  17.513   1.262  10.726 -0.0955  0.0543 -0.0194
  447loPI    C3 7139  17.493   1.661  10.746 -0.2017  0.0521 -0.0716
  447loPI   PO4 7140  17.642   1.350  10.279  0.0217  0.2563  0.3376
  447loPI   GL1 7141  17.790   1.180   9.974  0.1109  0.0136 -0.0987
  447loPI   GL2 7142  17.759   0.971   9.959 -0.1647 -0.0050 -0.0115
  447loPI   C1A 7143  17.909   1.193   9.576  0.2000 -0.3787 -0.1302
  447loPI   C2A 7144  17.979   1.165   9.254  0.1109 -0.0206 -0.0222
  447loPI   C3A 7145  17.881   1.294   8.854  0.1195 -0.2953  0.1656
  447loPI   C4A 7146  17.843   1.276   8.489  0.2556  0.1164 -0.0628
  447loPI   C5A 7147  17.736   1.180   8.127 -0.4003 -0.0204  0.0376
  447loPI   C6A 7148  17.405   0.946   7.821 -0.1456  0.0018 -0.0189
  447loPI   C1B 7149  17.596   0.806   9.548 -0.0175 -0.1400  0.2760
  447loPI   C2B 7150  17.600   0.750   9.142 -0.2126 -0.1043  0.1018
  447loPI   C3B 7151  17.601   0.808   8.740 -0.2395 -0.1207 -0.1904
  447loPI   C4B 7152  17.519   0.742   8.293 -0.1393  0.0547  0.2110
  448loPI    C1 7153  12.819   9.812  10.522 -0.2254 -0.1892  0.0940
  448loPI    C2 7154  12.972   9.664  10.861  0.0962 -0.0206  0.0274
  448loPI    C3 7155  13.000  10.055  10.784 -0.1542 -0.0265 -0.1037
  448loPI   PO4 7156  12.856   9.705  10.389  0.2360 -0.1503 -0.0326
  448loPI   GL1 7157  12.912   9.481   9.916  0.2055  0.1227  0.1817
  448loPI   GL2 7158  13.231   9.503   9.649 -0.0965  0.1838 -0.0233
  448loPI   C1A 7159  12.769   9.747   9.543 -0.1448 -0.1144 -0.1275
  448loPI   C2A 7160  12.845   9.917   9.198 -0.1694 -0.0200 -0.1226
  448loPI   C3A 7161  12.776   9.946   8.751 -0.0714 -0.3156  0.0514
  448loPI   C4A 7162  12.754   9.926   8.308  0.1696 -0.1764 -0.1541
  448loPI   C5A 7163  12.630   9.997   7.950 -0.1357 -0.1054 -0.0859
  448loPI   C6A 7164  12.674   9.981   7.491  0.0114  0.0998 -0.2567
  448loPI   C1B 7165  13.258   9.471   9.266 -0.1013  0.0608  0.2708
  448loPI   C2B 7166  13.373   9.377   8.899  0.3245 -0.2783 -0.0209
  448loPI   C3B 7167  13.283   9.273   8.464 -0.0072  0.0632  0.0496
  448loPI   C4B 7168  13.170   9.257   8.051 -0.1866 -0.0545 -0.0146
  449loPI    C1 7169  16.555  14.406  10.650 -0.0029 -0.0347 -0.0837
  449loPI    C2 7170  16.789  14.558  10.936 -0.0538 -0.2811  0.0917
  449loPI    C3 7171  16.503  14.784  10.771 -0.0165 -0.1332  0.2261
  449loPI   PO4 7172  16.747  14.207  10.543 -0.2306 -0.2491  0.0364
  449loPI   GL1 7173  16.664  14.019  10.102 -0.0316 -0.2054  0.0669
  449loPI   GL2 7174  16.919  14.207   9.962 -0.1538  0.1714 -0.0235
  449loPI   C1A 7175  16.388  13.756   9.837 -0.4095  0.0244  0.1599
  449loPI   C2A 7176  16.356  13.799   9.375  0.0718 -0.0078  0.0108
  449loPI   C3A 7177  16.331  13.777   8.954  0.4300  0.2610 -0.2288
  449loPI   C4A 7178  16.398  13.830   8.540  0.0849  0.0923  0.1514
  449loPI   C5A 7179  16.141  13.601   8.209  0.2591  0.1996  0.1801
  449loPI   C6A 7180  16.042  13.331   7.923 -0.1632 -0.1229  0.1636
  449loPI   C1B 7181  16.836  13.933   9.613  0.1199 -0.0433 -0.0627
  449loPI   C2B 7182  16.753  13.977   9.219 -0.2423 -0.2287 -0.0141
  449loPI   C3B 7183  16.820  14.071   8.780  0.1179 -0.2168 -0.0976
  449loPI   C4B 7184  16.962  14.091   8.349 -0.1393  0.2420  0.1889
  450loPI    C1 7185  17.638  17.606  10.389 -0.2315 -0.0628 -0.0353
  450loPI    C2 7186  17.672  17.969  10.224 -0.2153 -0.0065  0.0906
  450loPI    C3 7187  17.315  17.791  10.242 -0.1917 -0.0821 -0.1477
  450loPI   PO4 7188  17.765  17.451  10.224 -0.3567 -0.0733 -0.3682
  450loPI   GL1 7189  18.005  17.308   9.828  0.0427  0.2746 -0.1413
  450loPI   GL2 7190  17.867  17.064   9.726  0.5696  0.1286 -0.0587
  450loPI   C1A 7191  18.003  17.492   9.484 -0.1346  0.0650  0.0743
  450loPI   C2A 7192  17.981  17.463   9.020 -0.0345 -0.2064  0.2742
  450loPI   C3A 7193  18.085  17.592   8.632  0.0149 -0.1595 -0.1691
  450loPI   C4A 7194  18.146  17.638   8.258 -0.0630 -0.1050  0.1771
  450loPI   C5A 7195  17.946  17.944   7.895  0.0191  0.0197 -0.0344
  450loPI   C6A 7196  17.819  17.767   7.483 -0.2595 -0.0402 -0.1655
  450loPI   C1B 7197  17.856  16.728   9.356 -0.0205 -0.0849 -0.0869
  450loPI   C2B 7198  18.158  16.659   9.006  0.1539  0.1054  0.1655
  450loPI   C3B 7199  18.220  16.407   8.741  0.2232  0.3861 -0.0237
  450loPI   C4B 7200  18.328  16.025   8.619 -0.0308 -0.3160 -0.4669
  451loPI    C1 7201   2.227   8.606   9.772 -0.0926 -0.1018 -0.1669
  451loPI    C2 7202   2.239   8.842  10.094 -0.0146  0.0234 -0.2608
  451loPI    C3 7203   1.911   8.627  10.016  0.0659 -0.2211  0.0525
  451loPI   PO4 7204   2.288   8.738   9.582 -0.1735 -0.2950 -0.3542
  451loPI   GL1 7205   2.355   8.682   9.248  0.2600  0.0972 -0.0978
  451loPI   GL2 7206   2.138   8.559   9.103 -0.0557 -0.1770  0.0543
  451loPI   C1A 7207   2.429   8.870   8.845  0.2709  0.1250  0.0191
  451loPI   C2A 7208   2.405   9.035   8.449 -0.1132 -0.2882  0.1333
  451loPI   C3A 7209   2.359   9.188   7.941  0.0518  0.0594  0.1620
  451loPI   C4A 7210   2.296   9.636   7.703 -0.1428  0.1104  0.2023
  451loPI   C5A 7211   1.970   9.966   7.370 -0.3664  0.0227 -0.0251
  451loPI   C6A 7212   1.498   9.941   7.321  0.0574 -0.1413  0.1828
  451loPI   C1B 7213   2.052   8.510   8.710 -0.0780  0.3825 -0.1859
  451loPI   C2B 7214   2.032   8.552   8.287  0.0710 -0.2534 -0.0068
  451loPI   C3B 7215   1.987   8.464   7.831 -0.1209 -0.2398 -0.2122
  451loPI   C4B 7216   2.140   8.729   7.528  0.0625 -0.3693 -0.3078
  452loPI    C1 7217  18.735   6.423  10.058 -0.2261 -0.0000  0.1088
  452loPI    C2 7218  18.969   6.615  10.320 -0.2435  0.0071  0.1192
  452loPI    C3 7219  19.048   6.236  10.222 -0.1575  0.0470  0.0323
  452loPI   PO4 7220  18.685   6.669   9.878 -0.0183 -0.0415 -0.4649
  452loPI   GL1 7221  18.615   6.672   9.498  0.3591 -0.0465  0.0967
  452loPI   GL2 7222  18.620   6.357   9.476  0.0636 -0.0486 -0.0978
  452loPI   C1A 7223  18.731   6.549   9.035  0.0449 -0.0933  0.1586
  452loPI   C2A 7224  18.883   6.713   8.719  0.2557  0.2367 -0.2128
  452loPI   C3A 7225  19.047   6.565   8.374  0.1393  0.2614  0.0679
  452loPI   C4A 7226  19.042   6.595   7.863  0.1103  0.0421  0.0156
  452loPI   C5A 7227  18.874   6.267   7.525  0.1082  0.0106  0.1156
  452loPI   C6A 7228  18.657   5.980   7.376  0.3945  0.3045 -0.3853
  452loPI   C1B 7229  18.466   6.132   9.155  0.0404  0.1549 -0.0250
  452loPI   C2B 7230  18.189   6.228   8.849 -0.1083  0.2678 -0.3449
  452loPI   C3B 7231  17.858   6.194   8.639 -0.2791  0.0289 -0.2836
  452loPI   C4B 7232  17.453   6.379   8.626 -0.5728 -0.1843  0.0470
  453loPI    C1 7233  12.093  15.661  10.398  0.0339  0.0790  0.0675
  453loPI    C2 7234  12.237  15.736  10.763 -0.0594  0.1418  0.0914
  453loPI    C3 7235  12.208  16.031  10.494 -0.0921  0.1182  0.0689
  453loPI   PO4 7236  12.051  15.405  10.399 -0.1632  0.4297  0.2783
  453loPI   GL1 7237  11.794  15.163  10.089 -0.1109  0.3355  0.5088
  453loPI   GL2 7238  11.654  15.278   9.874 -0.2490 -0.1707 -0.1168
  453loPI   C1A 7239  11.659  14.802   9.797  0.1747 -0.1100  0.0624
  453loPI   C2A 7240  11.626  14.671   9.372 -0.0936 -0.1609 -0.0953
  453loPI   C3A 7241  11.675  14.543   8.996  0.0587  0.1735  0.2845
  453loPI   C4A 7242  11.511  14.578   8.572  0.0165 -0.3664 -0.0045
  453loPI   C5A 7243  11.340  14.592   8.254  0.1128 -0.2283 -0.1415
  453loPI   C6A 7244  11.081  14.768   7.894 -0.1376  0.0210  0.0525
  453loPI   C1B 7245  11.637  15.222   9.468  0.2675  0.0460 -0.0825
  453loPI   C2B 7246  11.704  15.423   9.102  0.0664 -0.1574 -0.1627
  453loPI   C3B 7247  11.525  15.458   8.688  0.0760 -0.1720  0.1069
  453loPI   C4B 7248  11.104  15.603   8.618 -0.0989 -0.2528 -0.0388
  454loPI    C1 7249   9.039   1.004  10.183  0.0275  0.2219 -0.0500
  454loPI    C2 7250   8.840   0.842  10.489  0.0189 -0.1574 -0.2501
  454loPI    C3 7251   9.226   0.753  10.433  0.1710  0.3377 -0.0396
  454loPI   PO4 7252   8.838   0.969   9.968  0.0896 -0.1007 -0.0522
  454loPI   GL1 7253   8.849   0.848   9.545 -0.0344  0.0333  0.0895
  454loPI   GL2 7254   8.506   0.860   9.612 -0.1580  0.1545  0.2194
  454loPI   C1A 7255   8.762   0.879   9.048  0.1089 -0.0847 -0.0670
  454loPI   C2A 7256   9.010   1.012   8.724 -0.0951 -0.1192 -0.2211
  454loPI   C3A 7257   9.194   1.174   8.325 -0.0467  0.0161  0.0351
  454loPI   C4A 7258   9.595   1.302   7.932  0.0687 -0.0895  0.0294
  454loPI   C5A 7259   9.422   1.495   7.547 -0.0762 -0.0362  0.1922
  454loPI   C6A 7260   9.421   1.667   7.216 -0.0440 -0.0026  0.2304
  454loPI   C1B 7261   8.530   0.505   9.408 -0.0755  0.0715  0.2178
  454loPI   C2B 7262   8.781   0.317   9.062 -0.0367  0.1136  0.1318
  454loPI   C3B 7263   8.955   0.196   8.733  0.1145 -0.1862 -0.0385
  454loPI   C4B 7264   9.320   0.174   8.391 -0.0963 -0.1272 -0.2644
  455loPI    C1 7265   2.563  14.522   9.868 -0.0933  0.0593  0.2139
  455loPI    C2 7266   2.216  14.650   9.714 -0.0537  0.0653  0.1291
  455loPI    C3 7267   2.224  14.482  10.078 -0.1556  0.0052  0.1040
  455loPI   PO4 7268   2.708  14.515   9.615 -0.0611  0.3258  0.1274
  455loPI   GL1 7269   2.552  14.427   9.246 -0.1518  0.0991 -0.2930
  455loPI   GL2 7270   2.492  14.693   9.204  0.2369  0.1598  0.1720
  455loPI   C1A 7271   2.430  14.444   8.807 -0.0472  0.1446 -0.0414
  455loPI   C2A 7272   2.275  14.422   8.352  0.0993 -0.1063 -0.2226
  455loPI   C3A 7273   2.182  14.396   8.005  0.1040 -0.2103  0.0837
  455loPI   C4A 7274   2.125  14.494   7.554  0.1573  0.1638 -0.0353
  455loPI   C5A 7275   2.176  14.618   7.108  0.2025  0.3252 -0.5166
  455loPI   C6A 7276   1.963  14.567   6.719 -0.0200  0.3360 -0.1297
  455loPI   C1B 7277   2.774  14.727   8.890 -0.0078 -0.1470 -0.0934
  455loPI   C2B 7278   2.709  14.821   8.449 -0.0363  0.0490 -0.0347
  455loPI   C3B 7279   2.654  14.660   8.133 -0.1425  0.3223  0.2607
  455loPI   C4B 7280   2.606  14.478   7.718 -0.1417  0.1112  0.2858
  456loPI    C1 7281  15.256  11.496  10.993 -0.0466  0.0923  0.1660
  456loPI    C2 7282  15.561  11.273  11.126 -0.1295 -0.1726 -0.0765
  456loPI    C3 7283  15.245  11.342  11.362  0.0285 -0.0612  0.1052
  456loPI   PO4 7284  15.298  11.529  10.659  0.0106 -0.1002 -0.0532
  456loPI   GL1 7285  15.058  11.592  10.280 -0.0248 -0.0202 -0.1360
  456loPI   GL2 7286  15.257  11.746  10.060  0.1648 -0.1471 -0.0624
  456loPI   C1A 7287  14.759  11.675   9.883  0.2421  0.3736 -0.1491
  456loPI   C2A 7288  14.696  11.715   9.479 -0.0740 -0.1908  0.1492
  456loPI   C3A 7289  14.736  11.749   9.057  0.0537  0.3711 -0.3989
  456loPI   C4A 7290  14.702  11.765   8.651 -0.2495 -0.1443 -0.0429
  456loPI   C5A 7291  14.710  11.855   8.158  0.0581 -0.0557 -0.1705
  456loPI   C6A 7292  14.742  12.235   8.043  0.0639  0.0060 -0.1183
  456loPI   C1B 7293  15.183  11.814   9.614 -0.0234 -0.2497 -0.2677
  456loPI   C2B 7294  15.225  11.900   9.235 -0.2621  0.1913 -0.0250
  456loPI   C3B 7295  15.244  11.920   8.919  0.2631  0.0085  0.1039
  456loPI   C4B 7296  15.186  11.949   8.445  0.1074  0.1332  0.0156
  457loPI    C1 7297   7.983   9.897  10.423 -0.0750  0.0827 -0.0269
  457loPI    C2 7298   7.603   9.926  10.545 -0.1434 -0.2545 -0.1480
  457loPI    C3 7299   7.850   9.664  10.720  0.0320 -0.0447 -0.0777
  457loPI   PO4 7300   7.957   9.848  10.163 -0.0043 -0.2504  0.0531
  457loPI   GL1 7301   8.304   9.715   9.839  0.3054  0.0791 -0.1247
  457loPI   GL2 7302   8.068   9.839   9.629  0.3464  0.1728 -0.0807
  457loPI   C1A 7303   8.474   9.669   9.444 -0.0706  0.0900  0.0684
  457loPI   C2A 7304   8.584   9.799   9.013  0.0258  0.1669 -0.0059
  457loPI   C3A 7305   8.555   9.941   8.568 -0.2589 -0.2411  0.0747
  457loPI   C4A 7306   8.721  10.025   8.134  0.1685 -0.1717  0.3082
  457loPI   C5A 7307   8.636  10.171   7.727  0.2822  0.0047 -0.0032
  457loPI   C6A 7308   8.246  10.328   7.630 -0.0213 -0.1970  0.1095
  457loPI   C1B 7309   8.076  10.038   9.265 -0.0002  0.0715 -0.1405
  457loPI   C2B 7310   8.215  10.217   8.897  0.2211  0.0672 -0.0201
  457loPI   C3B 7311   8.214  10.384   8.439 -0.2495  0.0401  0.1100
  457loPI   C4B 7312   8.263  10.580   8.074 -0.1324  0.4400  0.3554
  458loPI    C1 7313  18.750  18.502  10.292 -0.1477 -0.1173 -0.1703
  458loPI    C2 7314  18.505  18.333  10.560  0.0196 -0.3686 -0.1729
  458loPI    C3 7315  18.898  18.355  10.634 -0.0345  0.3198 -0.0239
  458loPI   PO4 7316  18.637  18.337  10.047 -0.0514 -0.0064  0.1400
  458loPI   GL1 7317  18.631  17.918   9.787  0.1604  0.1235 -0.4306
  458loPI   GL2 7318  18.913  17.719   9.871 -0.0224 -0.2396  0.1793
  458loPI   C1A 7319  18.669  17.959   9.284 -0.2529 -0.1886  0.1116
  458loPI   C2A 7320  18.771  18.253   8.916  0.3953 -0.1796 -0.0543
  458loPI   C3A 7321  18.867  18.393   8.602 -0.0067 -0.0584  0.0196
  458loPI   C4A 7322  18.899  18.529   8.211 -0.0248  0.1814  0.2104
  458loPI   C5A 7323  18.775  18.688   7.834  0.0602  0.2762  0.1584
  458loPI   C6A 7324  18.549  19.065   7.847  0.0045  0.0838  0.2344
  458loPI   C1B 7325  18.962  17.638   9.449 -0.2031  0.1715  0.2955
  458loPI   C2B 7326  18.957  17.607   9.017 -0.0528 -0.0001 -0.1426
  458loPI   C3B 7327  18.990  17.645   8.632  0.1073  0.1851 -0.1110
  458loPI   C4B 7328  18.871  17.719   8.163  0.1351 -0.0764  0.1251
  459loPI    C1 7329  14.524  11.572  11.128 -0.1910 -0.2919  0.1225
  459loPI    C2 7330  14.814  11.300  11.080  0.0268 -0.0555  0.0803
  459loPI    C3 7331  14.885  11.634  11.289 -0.1906  0.0420  0.0015
  459loPI   PO4 7332  14.422  11.553  10.763  0.4951  0.2158 -0.2732
  459loPI   GL1 7333  14.512  11.614  10.386  0.0132  0.3675  0.0046
  459loPI   GL2 7334  14.271  11.918  10.187 -0.1247 -0.0435  0.2600
  459loPI   C1A 7335  14.350  11.418   9.853 -0.1919  0.1834 -0.0517
  459loPI   C2A 7336  14.226  11.510   9.426  0.3011 -0.0061  0.0186
  459loPI   C3A 7337  14.238  11.599   8.987  0.1699 -0.2426 -0.0166
  459loPI   C4A 7338  14.185  11.534   8.573 -0.0086  0.3897  0.1730
  459loPI   C5A 7339  14.185  11.325   8.144  0.1355 -0.2595 -0.0743
  459loPI   C6A 7340  14.090  11.138   7.766  0.0131 -0.4930  0.2144
  459loPI   C1B 7341  14.350  11.951   9.775  0.1473 -0.0265  0.1409
  459loPI   C2B 7342  14.346  12.049   9.324 -0.1117 -0.0476 -0.1655
  459loPI   C3B 7343  14.290  12.083   8.854 -0.0593 -0.1378  0.0500
  459loPI   C4B 7344  14.211  12.044   8.363  0.0771 -0.3979  0.0972
  460loPI    C1 7345   3.132   4.848   9.840 -0.0243 -0.2794 -0.0337
  460loPI    C2 7346   3.142   4.449   9.871  0.3014 -0.2579  0.1750
  460loPI    C3 7347   3.232   4.678  10.188 -0.0328 -0.0157  0.1006
  460loPI   PO4 7348   2.944   4.877   9.655  0.4618 -0.2951  0.2300
  460loPI   GL1 7349   2.764   5.180   9.434 -0.1079  0.1131 -0.2216
  460loPI   GL2 7350   3.051   5.037   9.179 -0.2185  0.2326 -0.1649
  460loPI   C1A 7351   2.376   5.301   9.184 -0.1005  0.0710  0.0700
  460loPI   C2A 7352   2.265   5.319   8.759  0.0574 -0.0529  0.1355
  460loPI   C3A 7353   2.277   5.335   8.360 -0.5432 -0.0907 -0.1821
  460loPI   C4A 7354   2.374   5.153   7.992  0.1940 -0.0024 -0.2925
  460loPI   C5A 7355   2.815   5.235   7.710  0.2185  0.1061 -0.0211
  460loPI   C6A 7356   3.064   5.568   7.504  0.2258  0.0601  0.0834
  460loPI   C1B 7357   2.852   5.399   9.040 -0.1674  0.0347  0.0226
  460loPI   C2B 7358   2.677   5.704   8.646  0.2163  0.1109 -0.0171
  460loPI   C3B 7359   2.377   5.986   8.356  0.5424 -0.1784  0.0428
  460loPI   C4B 7360   2.168   6.433   8.054 -0.0751 -0.0563  0.0057
  461loPI    C1 7361  17.182  15.978  10.048 -0.2104 -0.2261  0.2106
  461loPI    C2 7362  17.366  16.075  10.389 -0.2347 -0.1261  0.1955
  461loPI    C3 7363  17.432  15.718  10.221 -0.1135 -0.1207  0.2303
  461loPI   PO4 7364  17.219  16.239   9.931  0.0717  0.1184 -0.3166
  461loPI   GL1 7365  17.052  16.337   9.623 -0.2299 -0.1119  0.1919
  461loPI   GL2 7366  16.774  16.520   9.623 -0.3163 -0.2690  0.1748
  461loPI   C1A 7367  17.122  16.284   9.201 -0.0289  0.1180  0.2432
  461loPI   C2A 7368  17.109  16.380   8.794 -0.6239  0.0385 -0.0413
  461loPI   C3A 7369  17.445  16.388   8.504 -0.1772  0.1360 -0.1365
  461loPI   C4A 7370  17.632  16.413   8.143 -0.0935 -0.0700  0.0410
  461loPI   C5A 7371  17.868  16.131   8.012 -0.0428  0.1477  0.2884
  461loPI   C6A 7372  18.237  15.957   8.118 -0.0982  0.0559 -0.1773
  461loPI   C1B 7373  16.740  16.689   9.240 -0.2807  0.0625 -0.1555
  461loPI   C2B 7374  16.815  16.815   8.793  0.1029  0.0330  0.0676
  461loPI   C3B 7375  16.925  16.855   8.397  0.0562 -0.3193  0.0931
  461loPI   C4B 7376  16.880  16.935   7.952  0.2653  0.0115  0.3724
  462loPI    C1 7377   2.559  17.134   9.772 -0.1703  0.0258  0.0159
  462loPI    C2 7378   2.800  16.825   9.855 -0.2035  0.0601  0.2474
  462loPI    C3 7379   2.695  17.080  10.145 -0.1630  0.2999  0.0548
  462loPI   PO4 7380   2.642  17.210   9.539  0.2010 -0.3437  0.3888
  462loPI   GL1 7381   2.585  16.954   9.247 -0.0678 -0.1765  0.0051
  462loPI   GL2 7382   2.738  16.706   9.347 -0.0303 -0.0626 -0.2073
  462loPI   C1A 7383   2.505  16.721   8.866  0.3347 -0.2763  0.0559
  462loPI   C2A 7384   2.286  16.683   8.555  0.0466  0.0693 -0.1700
  462loPI   C3A 7385   2.292  16.592   8.178  0.2982  0.3140  0.3316
  462loPI   C4A 7386   2.115  16.603   7.766 -0.1378  0.0103  0.3536
  462loPI   C5A 7387   1.896  16.745   7.421  0.0767 -0.3078  0.2224
  462loPI   C6A 7388   1.716  16.587   7.154  0.3629 -0.1437 -0.3865
  462loPI   C1B 7389   2.988  16.811   8.900  0.2789  0.3371 -0.3628
  462loPI   C2B 7390   3.233  16.685   8.489 -0.1907  0.0237 -0.2194
  462loPI   C3B 7391   3.297  16.485   8.106  0.1906 -0.2216 -0.0970
  462loPI   C4B 7392   3.190  16.590   7.777  0.0637  0.1633 -0.1644
  463loPI    C1 7393   1.093   1.434  10.113 -0.2528  0.0185  0.0920
  463loPI    C2 7394   0.991   1.051  10.172 -0.0164 -0.0286  0.2072
  463loPI    C3 7395   1.246   1.231  10.423  0.1520  0.0977 -0.0497
  463loPI   PO4 7396   0.889   1.459   9.838  0.0006  0.1454 -0.0567
  463loPI   GL1 7397   0.549   1.397   9.491  0.0421  0.2859 -0.0738
  463loPI   GL2 7398   0.431   1.705   9.511 -0.0570 -0.0965  0.0813
  463loPI   C1A 7399   0.368   1.471   9.025 -0.1380 -0.0705  0.0550
  463loPI   C2A 7400   0.399   1.445   8.645  0.1480  0.0558 -0.0365
  463loPI   C3A 7401   0.414   1.404   8.249 -0.2013  0.0900 -0.0355
  463loPI   C4A 7402   0.321   1.432   7.761  0.2261  0.1109  0.0649
  463loPI   C5A 7403   0.284   1.541   7.402  0.0813  0.1690  0.0703
  463loPI   C6A 7404   0.306   1.481   7.074 -0.1945  0.1786  0.0570
  463loPI   C1B 7405   0.202   1.865   9.211  0.0391 -0.2980  0.3036
  463loPI   C2B 7406   0.171   1.888   8.801 -0.0292 -0.1428  0.0649
  463loPI   C3B 7407   0.326   1.874   8.514  0.2020  0.2819  0.2825
  463loPI   C4B 7408   0.107   1.891   8.011  0.0814 -0.0784 -0.0685
  464loPI    C1 7409   8.285  14.758  11.001 -0.0480 -0.1581  0.1134
  464loPI    C2 7410   8.225  15.030  11.288  0.0040 -0.1006  0.0699
  464loPI    C3 7411   8.011  14.692  11.284  0.0335 -0.1211  0.2015
  464loPI   PO4 7412   8.244  14.932  10.778  0.1706 -0.2285 -0.1966
  464loPI   GL1 7413   8.188  14.849  10.364 -0.0696 -0.1839  0.2855
  464loPI   GL2 7414   8.416  14.646  10.207 -0.3449 -0.0925  0.1224
  464loPI   C1A 7415   8.376  15.086   9.983 -0.0225  0.0736 -0.1002
  464loPI   C2A 7416   8.344  15.107   9.602  0.0269 -0.0724  0.0736
  464loPI   C3A 7417   8.447  15.188   9.156  0.1487 -0.0471 -0.1649
  464loPI   C4A 7418   8.541  15.328   8.662 -0.0635  0.2247  0.0871
  464loPI   C5A 7419   8.471  15.204   8.257  0.1206 -0.0159  0.1617
  464loPI   C6A 7420   8.401  14.946   7.876  0.2077  0.0994  0.2689
  464loPI   C1B 7421   8.518  14.631   9.759  0.0296  0.0946 -0.0239
  464loPI   C2B 7422   8.599  14.750   9.417 -0.0097 -0.0267 -0.0600
  464loPI   C3B 7423   8.451  14.713   8.994  0.1399 -0.1160 -0.0450
  464loPI   C4B 7424   8.494  14.740   8.575  0.0130  0.2569  0.2272
  465loPI    C1 7425   9.891   6.167  10.433 -0.2368  0.2311  0.1146
  465loPI    C2 7426   9.756   6.418  10.714  0.0783  0.2015  0.2974
  465loPI    C3 7427   9.861   6.045  10.813 -0.2053  0.0543  0.0614
  465loPI   PO4 7428   9.987   6.312  10.240  0.1101 -0.1935 -0.1496
  465loPI   GL1 7429  10.121   6.565   9.890  0.1034 -0.1399  0.2518
  465loPI   GL2 7430  10.194   6.827   9.740 -0.2023  0.2534 -0.0773
  465loPI   C1A 7431   9.797   6.599   9.533 -0.0567 -0.0460 -0.1320
  465loPI   C2A 7432   9.843   6.446   9.135 -0.1688 -0.0859  0.2234
  465loPI   C3A 7433  10.007   6.431   8.745 -0.1218  0.0520 -0.3186
  465loPI   C4A 7434   9.963   6.445   8.385 -0.0381 -0.5109 -0.0820
  465loPI   C5A 7435   9.991   6.357   7.979  0.1142 -0.2065 -0.2443
  465loPI   C6A 7436  10.039   6.502   7.536 -0.1964 -0.0136 -0.0925
  465loPI   C1B 7437  10.209   6.789   9.301 -0.3626  0.3952 -0.0355
  465loPI   C2B 7438   9.969   6.893   8.991 -0.1434  0.0122  0.3301
  465loPI   C3B 7439   9.918   6.943   8.581  0.1197  0.2959 -0.0413
  465loPI   C4B 7440   9.968   6.941   8.163  0.1984  0.0693  0.1959
  466loPI    C1 7441  13.035  11.846  10.994  0.1497  0.3025 -0.1334
  466loPI    C2 7442  13.057  11.741  11.380  0.0122  0.4169 -0.0934
  466loPI    C3 7443  12.876  12.082  11.276 -0.2690  0.2120 -0.2881
  466loPI   PO4 7444  12.997  11.651  10.849  0.1554 -0.0264  0.1611
  466loPI   GL1 7445  13.028  11.770  10.409 -0.0942  0.0910  0.0346
  466loPI   GL2 7446  12.865  11.977  10.170 -0.2052  0.1086 -0.0021
  466loPI   C1A 7447  13.070  11.604   9.975 -0.3372  0.0722  0.0026
  466loPI   C2A 7448  13.295  11.649   9.635  0.3197  0.0160  0.0059
  466loPI   C3A 7449  13.329  11.665   9.164 -0.1458  0.3663  0.2371
  466loPI   C4A 7450  13.326  11.650   8.659 -0.2175  0.0813 -0.0969
  466loPI   C5A 7451  13.200  11.352   8.293  0.1057  0.2036  0.0719
  466loPI   C6A 7452  13.092  11.080   7.956 -0.3261 -0.4594  0.1604
  466loPI   C1B 7453  12.891  11.997   9.670 -0.1013 -0.1514 -0.1162
  466loPI   C2B 7454  12.919  11.903   9.208 -0.0656  0.0343 -0.0338
  466loPI   C3B 7455  12.955  11.940   8.740 -0.1128 -0.0064  0.0045
  466loPI   C4B 7456  12.720  11.728   8.395  0.0658  0.1436 -0.1666
  467loPI    C1 7457   0.787  12.589  10.087 -0.0025 -0.2054 -0.1074
  467loPI    C2 7458   0.538  12.587  10.401  0.0712 -0.1631 -0.0483
  467loPI    C3 7459   0.391  12.600  10.029 -0.0102  0.2157 -0.0066
  467loPI   PO4 7460   0.970  12.364  10.105  0.1234 -0.3555  0.1500
  467loPI   GL1 7461   1.080  12.203   9.826  0.0489  0.0711 -0.2911
  467loPI   GL2 7462   1.056  11.952   9.825 -0.0010 -0.0265 -0.0845
  467loPI   C1A 7463   1.142  12.270   9.367  0.1054 -0.1655  0.1901
  467loPI   C2A 7464   1.037  12.115   9.066  0.1028  0.0665 -0.0740
  467loPI   C3A 7465   0.955  11.948   8.663 -0.0089 -0.1985  0.0029
  467loPI   C4A 7466   1.173  11.950   8.327  0.0714 -0.0019 -0.1331
  467loPI   C5A 7467   1.442  11.758   7.974  0.1228  0.0460 -0.2599
  467loPI   C6A 7468   1.655  11.433   7.703 -0.1538 -0.1881 -0.1233
  467loPI   C1B 7469   1.180  11.710   9.353 -0.0920  0.0299 -0.2445
  467loPI   C2B 7470   1.267  11.611   8.977 -0.0228  0.0301 -0.1836
  467loPI   C3B 7471   1.332  11.533   8.590 -0.2712  0.2118  0.1657
  467loPI   C4B 7472   1.475  11.328   8.201 -0.0174  0.3576  0.0272
  468loPI    C1 7473   0.743   9.835   9.881 -0.1747  0.1921  0.1740
  468loPI    C2 7474   0.744   9.549  10.160  0.0659  0.0309  0.0119
  468loPI    C3 7475   0.738   9.934  10.268  0.0145 -0.0313  0.2356
  468loPI   PO4 7476   0.943   9.769   9.692  0.0471  0.0697  0.0975
  468loPI   GL1 7477   0.751   9.541   9.387 -0.1780  0.0371  0.1260
  468loPI   GL2 7478   0.480   9.626   9.422  0.1172  0.0446  0.0671
  468loPI   C1A 7479   0.702   9.590   8.989  0.1569  0.0389  0.0597
  468loPI   C2A 7480   0.681   9.692   8.604  0.1529 -0.0884  0.0187
  468loPI   C3A 7481   0.263   9.865   8.237  0.0022 -0.1409 -0.1839
  468loPI   C4A 7482   0.074   9.944   7.761  0.0369 -0.0312  0.1245
  468loPI   C5A 7483  -0.273   9.726   7.538 -0.0753  0.4436  0.0413
  468loPI   C6A 7484  -0.311   9.391   7.236 -0.2767 -0.1553  0.1935
  468loPI   C1B 7485   0.499   9.975   9.231 -0.3265 -0.0947  0.3695
  468loPI   C2B 7486   0.328  10.124   8.772  0.0566 -0.2274 -0.1886
  468loPI   C3B 7487   0.046  10.363   8.672 -0.0374 -0.1252  0.0421
  468loPI   C4B 7488  -0.432  10.313   8.452  0.2375  0.1594  0.0797
  469loPI    C1 7489   6.788   8.191  10.450 -0.0003  0.0758  0.0750
  469loPI    C2 7490   6.920   8.521  10.267 -0.0732  0.1419  0.1407
  469loPI    C3 7491   6.680   8.552  10.585 -0.2898  0.0227 -0.0086
  469loPI   PO4 7492   6.769   8.026  10.180  0.2743  0.1679  0.0384
  469loPI   GL1 7493   7.034   7.949   9.830  0.0825 -0.1572  0.2528
  469loPI   GL2 7494   7.011   7.713   9.583  0.1931 -0.1370 -0.0079
  469loPI   C1A 7495   6.971   8.180   9.394  0.1323  0.1382  0.0325
  469loPI   C2A 7496   7.219   8.266   9.101 -0.0357 -0.0404 -0.0400
  469loPI   C3A 7497   7.291   8.248   8.689 -0.1385  0.1877 -0.0094
  469loPI   C4A 7498   7.471   8.442   8.309 -0.3442  0.0293  0.2457
  469loPI   C5A 7499   7.571   8.622   7.930 -0.3876  0.4106 -0.0669
  469loPI   C6A 7500   7.687   9.026   7.703 -0.1280  0.1875  0.0540
  469loPI   C1B 7501   7.182   7.741   9.208 -0.1431  0.2602 -0.0569
  469loPI   C2B 7502   7.251   7.776   8.762 -0.0397  0.0296  0.3926
  469loPI   C3B 7503   7.338   7.852   8.329  0.0448 -0.1763 -0.2038
  469loPI   C4B 7504   7.541   8.119   7.944  0.4483 -0.1744  0.0695
  470loPI    C1 7505  18.120  12.864  10.206  0.0818  0.0385  0.1863
  470loPI    C2 7506  17.882  12.567  10.327  0.0788  0.0546  0.2197
  470loPI    C3 7507  17.738  12.940  10.297  0.0286  0.0179 -0.0149
  470loPI   PO4 7508  18.199  12.802   9.994  0.1297 -0.2710  0.1358
  470loPI   GL1 7509  18.005  12.631   9.640  0.2064 -0.1454  0.0771
  470loPI   GL2 7510  17.709  12.629   9.800  0.1668  0.0110 -0.0660
  470loPI   C1A 7511  18.079  12.440   9.160 -0.0632 -0.2831  0.1197
  470loPI   C2A 7512  17.973  12.534   8.758  0.3215  0.0867  0.0399
  470loPI   C3A 7513  17.853  12.561   8.344 -0.2052 -0.0564 -0.1549
  470loPI   C4A 7514  18.033  12.478   7.858  0.1156  0.1873 -0.2305
  470loPI   C5A 7515  18.189  12.504   7.398 -0.2744  0.0727 -0.1184
  470loPI   C6A 7516  18.314  12.886   7.205 -0.2154  0.1802  0.0627
  470loPI   C1B 7517  17.537  12.785   9.381 -0.1665  0.0760  0.2107
  470loPI   C2B 7518  17.682  12.961   8.987  0.1921  0.2686 -0.1896
  470loPI   C3B 7519  17.898  13.028   8.553 -0.2173 -0.0279 -0.1204
  470loPI   C4B 7520  18.219  12.953   8.267  0.1622  0.0721 -0.0452
  471loPI    C1 7521  15.363   5.077  10.683 -0.2795  0.2236 -0.2011
  471loPI    C2 7522  15.594   5.158  10.999 -0.0186  0.2467 -0.3945
  471loPI    C3 7523  15.199   5.120  11.046  0.0202  0.2183 -0.0616
  471loPI   PO4 7524  15.350   5.199  10.441  0.2190 -0.1621  0.1210
  471loPI   GL1 7525  15.236   5.188   9.985 -0.0487  0.2005  0.0210
  471loPI   GL2 7526  15.550   5.304   9.994 -0.0010 -0.1862  0.1308
  471loPI   C1A 7527  15.263   5.226   9.567 -0.3114 -0.1531  0.2253
  471loPI   C2A 7528  15.223   5.217   9.123  0.1428 -0.1774  0.0842
  471loPI   C3A 7529  15.164   5.191   8.719 -0.3002  0.0754  0.0784
  471loPI   C4A 7530  15.090   5.234   8.213 -0.3034  0.3344  0.0348
  471loPI   C5A 7531  15.441   5.231   7.834  0.2251  0.1243  0.4419
  471loPI   C6A 7532  15.850   5.499   7.789  0.1072 -0.2024 -0.1540
  471loPI   C1B 7533  15.709   5.061   9.572 -0.2618  0.0255 -0.0331
  471loPI   C2B 7534  15.703   5.124   9.148 -0.0388 -0.0576  0.1024
  471loPI   C3B 7535  15.688   5.171   8.720  0.0073  0.5066 -0.1695
  471loPI   C4B 7536  15.568   5.033   8.298 -0.0724 -0.1150 -0.1848
  472loPI    C1 7537  16.197   3.524  10.394 -0.4056 -0.2400  0.1828
  472loPI    C2 7538  16.001   3.857  10.290  0.0267  0.0145  0.1580
  472loPI    C3 7539  16.219   3.849  10.625  0.0838 -0.2193  0.1172
  472loPI   PO4 7540  16.401   3.489  10.165  0.1506 -0.1164 -0.1200
  472loPI   GL1 7541  16.270   3.398   9.814  0.1522  0.0673  0.0037
  472loPI   GL2 7542  16.545   3.216   9.775 -0.4322  0.0219 -0.1458
  472loPI   C1A 7543  16.129   3.445   9.375 -0.0304  0.1551 -0.0587
  472loPI   C2A 7544  15.992   3.421   8.989  0.2168  0.2785 -0.2356
  472loPI   C3A 7545  16.031   3.295   8.586  0.3075 -0.0097 -0.0242
  472loPI   C4A 7546  15.859   3.377   8.199 -0.0808  0.0664  0.0943
  472loPI   C5A 7547  15.568   3.687   8.015  0.1070  0.0538  0.2108
  472loPI   C6A 7548  15.135   3.661   7.768  0.0567 -0.2140 -0.1325
  472loPI   C1B 7549  16.651   3.331   9.404  0.1955 -0.3593  0.1600
  472loPI   C2B 7550  16.527   3.424   8.997 -0.0787 -0.1075  0.0445
  472loPI   C3B 7551  16.586   3.304   8.548 -0.0186  0.1013  0.0642
  472loPI   C4B 7552  16.400   3.323   8.148 -0.1653  0.2249 -0.1470
  473loPI    C1 7553  13.751   8.951  10.351 -0.0013 -0.1395 -0.0353
  473loPI    C2 7554  13.691   8.570  10.459  0.1402 -0.1009  0.1870
  473loPI    C3 7555  13.400   8.841  10.508  0.0623 -0.1663  0.0897
  473loPI   PO4 7556  13.873   8.848  10.094  0.0657  0.2376 -0.2707
  473loPI   GL1 7557  14.041   8.975   9.824  0.1624 -0.0727 -0.1319
  473loPI   GL2 7558  14.227   8.673   9.779 -0.3843  0.0682  0.4509
  473loPI   C1A 7559  14.156   9.083   9.469 -0.1155 -0.3345 -0.1199
  473loPI   C2A 7560  14.169   8.944   9.020  0.0235  0.0680 -0.2009
  473loPI   C3A 7561  14.097   8.671   8.594  0.3605  0.3028 -0.0825
  473loPI   C4A 7562  14.150   8.731   8.195  0.0041 -0.1579 -0.0804
  473loPI   C5A 7563  13.884   8.868   7.883  0.2325  0.3123  0.1537
  473loPI   C6A 7564  13.555   9.080   7.845  0.0362  0.0066 -0.1517
  473loPI   C1B 7565  14.124   8.542   9.397  0.1317 -0.1176 -0.2101
  473loPI   C2B 7566  13.962   8.450   9.039 -0.1799 -0.0052  0.1969
  473loPI   C3B 7567  13.786   8.149   8.619  0.2288 -0.1166  0.2104
  473loPI   C4B 7568  13.796   8.022   8.167 -0.1504 -0.1244  0.0106
  474loPI    C1 7569  13.585  15.079  10.543  0.4349 -0.0764  0.0310
  474loPI    C2 7570  13.423  14.728  10.646  0.2845 -0.0141  0.0099
  474loPI    C3 7571  13.652  14.927  10.907  0.1542 -0.0020  0.1161
  474loPI   PO4 7572  13.769  15.066  10.321  0.0033 -0.4765 -0.2030
  474loPI   GL1 7573  13.823  15.134   9.919  0.0750 -0.0457 -0.3168
  474loPI   GL2 7574  13.745  15.311   9.833  0.0662 -0.2428 -0.0027
  474loPI   C1A 7575  14.147  15.019   9.614  0.0779  0.2492  0.2585
  474loPI   C2A 7576  14.346  15.010   9.230  0.0922 -0.1694  0.0428
  474loPI   C3A 7577  14.280  14.881   8.881 -0.0573 -0.1019 -0.0878
  474loPI   C4A 7578  14.333  14.977   8.431 -0.0000  0.1524  0.2851
  474loPI   C5A 7579  14.124  14.975   7.980 -0.0931  0.0995  0.2143
  474loPI   C6A 7580  14.344  14.826   7.579  0.1569  0.0987 -0.0864
  474loPI   C1B 7581  13.777  15.399   9.436 -0.0658  0.0421 -0.2292
  474loPI   C2B 7582  13.514  15.379   9.118  0.2919  0.0019  0.1063
  474loPI   C3B 7583  13.411  15.324   8.682  0.0731  0.3438  0.0184
  474loPI   C4B 7584  13.348  14.910   8.470 -0.2208 -0.3914 -0.3300
  475loPI    C1 7585   6.295   9.059  10.005  0.0864  0.0467  0.0741
  475loPI    C2 7586   6.510   8.726  10.055  0.0707  0.0497  0.1635
  475loPI    C3 7587   6.131   8.740  10.181  0.0252  0.0525  0.0275
  475loPI   PO4 7588   6.299   9.196   9.772 -0.4038  0.4990 -0.2932
  475loPI   GL1 7589   6.390   9.106   9.287 -0.4169  0.2199  0.0402
  475loPI   GL2 7590   6.188   8.827   9.171 -0.1705 -0.1148 -0.0205
  475loPI   C1A 7591   6.839   9.139   9.026 -0.1601  0.0435 -0.0502
  475loPI   C2A 7592   6.904   9.113   8.592  0.0588  0.1906  0.8413
  475loPI   C3A 7593   6.898   9.242   8.125  0.1992  0.1779  0.1253
  475loPI   C4A 7594   6.793   9.142   7.835  0.2030 -0.4003 -0.0489
  475loPI   C5A 7595   6.294   9.133   7.785  0.1260 -0.4518 -0.3055
  475loPI   C6A 7596   5.998   9.003   7.438  0.1306  0.0094 -0.1684
  475loPI   C1B 7597   6.325   8.991   8.771  0.1087  0.0304 -0.1171
  475loPI   C2B 7598   6.296   9.005   8.352  0.0701 -0.1070 -0.2513
  475loPI   C3B 7599   6.571   8.795   8.058  0.2682  0.1124 -0.0643
  475loPI   C4B 7600   6.614   8.779   7.591  0.4259  0.1682 -0.4975
  476loPI    C1 7601   2.942  16.020   9.771  0.0433  0.0031 -0.1989
  476loPI    C2 7602   2.702  16.291   9.942 -0.2140 -0.2271 -0.1885
  476loPI    C3 7603   3.056  16.205  10.107 -0.3339 -0.2355  0.0686
  476loPI   PO4 7604   2.915  16.159   9.487 -0.2577  0.2381 -0.1229
  476loPI   GL1 7605   3.201  16.021   9.043 -0.0857 -0.3409  0.2113
  476loPI   GL2 7606   2.927  15.814   9.067 -0.3129  0.1359 -0.0478
  476loPI   C1A 7607   3.430  16.236   8.589 -0.0836 -0.1214  0.0954
  476loPI   C2A 7608   3.346  16.015   8.260  0.1732 -0.1639 -0.2095
  476loPI   C3A 7609   3.496  16.146   7.829  0.1487  0.1189 -0.0311
  476loPI   C4A 7610   3.380  16.213   7.428  0.2194 -0.1702 -0.1359
  476loPI   C5A 7611   3.225  15.986   7.099 -0.3146  0.0650 -0.0218
  476loPI   C6A 7612   3.285  15.665   6.894  0.0869 -0.1356  0.0837
  476loPI   C1B 7613   3.023  15.794   8.609 -0.0985 -0.3285 -0.2193
  476loPI   C2B 7614   2.903  15.664   8.202 -0.0636 -0.2274  0.0831
  476loPI   C3B 7615   3.110  15.419   7.801 -0.0765 -0.0893 -0.0935
  476loPI   C4B 7616   3.075  15.444   7.462 -0.1560 -0.1409 -0.3349
  477loPI    C1 7617   0.979   2.413  10.071  0.0601 -0.1388 -0.0459
  477loPI    C2 7618   0.994   2.630  10.407  0.1201 -0.0544 -0.1029
  477loPI    C3 7619   1.112   2.248  10.410  0.1606 -0.0415 -0.0376
  477loPI   PO4 7620   0.765   2.552   9.951  0.2545 -0.1270 -0.0290
  477loPI   GL1 7621   0.656   2.848   9.584  0.1014  0.0090 -0.5097
  477loPI   GL2 7622   0.967   2.941   9.448 -0.1710 -0.0833 -0.3669
  477loPI   C1A 7623   0.383   2.820   9.244 -0.0693  0.5341  0.2081
  477loPI   C2A 7624   0.298   2.829   8.802 -0.1700 -0.1657  0.0338
  477loPI   C3A 7625   0.381   2.782   8.333 -0.2038  0.0390  0.1170
  477loPI   C4A 7626   0.258   2.854   7.881  0.0467  0.3302 -0.0469
  477loPI   C5A 7627   0.006   2.871   7.514 -0.0796 -0.0812  0.1251
  477loPI   C6A 7628   0.122   3.188   7.204  0.0788 -0.3734 -0.1902
  477loPI   C1B 7629   0.973   2.835   9.057 -0.0517 -0.2143 -0.1923
  477loPI   C2B 7630   0.812   2.720   8.666  0.2240  0.3167 -0.1067
  477loPI   C3B 7631   0.841   2.605   8.161 -0.2413 -0.0999  0.0847
  477loPI   C4B 7632   1.021   2.843   7.795  0.0124  0.2171  0.1159
  478loPI    C1 7633  12.324   1.498  10.620 -0.0782 -0.0981  0.1279
  478loPI    C2 7634  12.288   1.169  10.844 -0.3366 -0.0765  0.1214
  478loPI    C3 7635  12.081   1.498  10.938 -0.2083  0.0315  0.0302
  478loPI   PO4 7636  12.537   1.476  10.465  0.0199  0.1935 -0.0681
  478loPI   GL1 7637  12.528   1.306   9.981  0.0243 -0.3508 -0.1222
  478loPI   GL2 7638  12.226   1.542   9.991  0.3378  0.4044  0.0533
  478loPI   C1A 7639  12.817   1.417   9.711  0.0824 -0.1508 -0.0064
  478loPI   C2A 7640  12.752   1.204   9.374  0.1197 -0.0298 -0.3363
  478loPI   C3A 7641  12.957   1.269   8.883  0.3621 -0.0523 -0.2060
  478loPI   C4A 7642  12.707   1.184   8.558 -0.0144  0.0649  0.0624
  478loPI   C5A 7643  12.736   0.758   8.341 -0.0333 -0.0237 -0.1849
  478loPI   C6A 7644  12.556   0.644   7.936 -0.2056  0.0872 -0.0319
  478loPI   C1B 7645  12.245   1.472   9.531 -0.1705  0.0544 -0.1058
  478loPI   C2B 7646  12.147   1.718   9.179 -0.1399  0.0382 -0.0974
  478loPI   C3B 7647  12.093   1.818   8.754 -0.0407  0.1059  0.3299
  478loPI   C4B 7648  11.820   1.922   8.340 -0.0871  0.2027  0.0053
  479loPI    C1 7649   7.759   8.905  10.105 -0.1361  0.0319 -0.0593
  479loPI    C2 7650   7.400   8.768  10.217 -0.1512  0.0574 -0.0767
  479loPI    C3 7651   7.717   8.717  10.456 -0.1359 -0.1006 -0.1296
  479loPI   PO4 7652   7.799   8.722   9.837  0.2369 -0.0236 -0.1130
  479loPI   GL1 7653   8.027   8.636   9.544 -0.0500 -0.1052 -0.4130
  479loPI   GL2 7654   8.088   8.336   9.477 -0.0046 -0.4093 -0.0270
  479loPI   C1A 7655   8.004   8.779   9.124  0.3531  0.1395 -0.0531
  479loPI   C2A 7656   8.177   8.900   8.847 -0.0941 -0.0823  0.0454
  479loPI   C3A 7657   8.287   8.853   8.537  0.0602  0.2267  0.0185
  479loPI   C4A 7658   8.438   8.673   8.161  0.0484  0.0424  0.0112
  479loPI   C5A 7659   8.850   8.784   7.990 -0.1184 -0.1679  0.1696
  479loPI   C6A 7660   9.157   8.453   7.909 -0.0179 -0.0879 -0.2563
  479loPI   C1B 7661   8.060   8.268   9.063  0.1943 -0.0070 -0.1480
  479loPI   C2B 7662   8.145   8.376   8.624  0.0581 -0.1849  0.1334
  479loPI   C3B 7663   7.984   8.426   8.206 -0.1726 -0.1158 -0.0703
  479loPI   C4B 7664   8.087   8.333   7.812 -0.0149 -0.1086 -0.0966
  480loPI    C1 7665  17.431   8.476   9.976 -0.0876  0.0439 -0.0971
  480loPI    C2 7666  17.753   8.593  10.183 -0.1502  0.1060 -0.0341
  480loPI    C3 7667  17.643   8.794   9.855 -0.0028 -0.0422 -0.1765
  480loPI   PO4 7668  17.488   8.191   9.928  0.2091 -0.2382  0.1424
  480loPI   GL1 7669  17.718   7.950   9.564 -0.0427  0.0056  0.2821
  480loPI   GL2 7670  17.965   7.977   9.470 -0.0950  0.2865 -0.1372
  480loPI   C1A 7671  17.457   7.989   9.285 -0.3700 -0.1727  0.3097
  480loPI   C2A 7672  17.243   7.848   9.006  0.2407  0.2541  0.1274
  480loPI   C3A 7673  16.949   7.782   8.666 -0.1234 -0.1779  0.2777
  480loPI   C4A 7674  16.825   7.615   8.256  0.0511  0.1822  0.0803
  480loPI   C5A 7675  16.764   7.778   7.835 -0.1130  0.0059  0.0200
  480loPI   C6A 7676  16.591   7.731   7.417  0.2916 -0.1628  0.1209
  480loPI   C1B 7677  17.916   8.011   9.073 -0.1323 -0.0337  0.2706
  480loPI   C2B 7678  17.717   8.186   8.794  0.0441 -0.0133 -0.2012
  480loPI   C3B 7679  17.408   8.076   8.550 -0.0894  0.0513  0.0125
  480loPI   C4B 7680  17.230   8.118   8.146 -0.1533 -0.0298  0.1879
  481loPI    C1 7681   7.668  11.453  10.250 -0.0873 -0.1470  0.1804
  481loPI    C2 7682   8.044  11.439  10.385  0.0090 -0.0739 -0.0748
  481loPI    C3 7683   7.751  11.569  10.624  0.1885  0.1287  0.0387
  481loPI   PO4 7684   7.618  11.167  10.108 -0.4727 -0.0961  0.0394
  481loPI   GL1 7685   7.738  11.083   9.797  0.1042  0.3424  0.0525
  481loPI   GL2 7686   7.442  11.141   9.605 -0.2194 -0.0584 -0.1412
  481loPI   C1A 7687   7.952  11.432   9.536  0.1588 -0.1347 -0.0773
  481loPI   C2A 7688   7.897  11.917   9.294  0.0641 -0.0681 -0.0514
  481loPI   C3A 7689   7.730  12.161   8.955 -0.1519  0.2651 -0.0849
  481loPI   C4A 7690   7.753  12.380   8.668  0.0624 -0.0779 -0.3163
  481loPI   C5A 7691   7.515  12.361   8.248  0.2387 -0.1731 -0.0872
  481loPI   C6A 7692   7.682  12.434   7.923  0.0658 -0.1768  0.2914
  481loPI   C1B 7693   7.483  11.466   9.280 -0.0470  0.0454  0.0131
  481loPI   C2B 7694   7.537  11.692   8.970 -0.1305  0.1574  0.2621
  481loPI   C3B 7695   7.692  11.816   8.519  0.2072 -0.3445  0.2740
  481loPI   C4B 7696   8.016  12.011   8.256 -0.2169  0.0485 -0.0266
  482loPI    C1 7697   7.726   6.695   9.720 -0.1302  0.1078  0.1247
  482loPI    C2 7698   8.020   6.955   9.644  0.0695 -0.0841  0.2316
  482loPI    C3 7699   7.774   7.017   9.953  0.0330  0.0467  0.1769
  482loPI   PO4 7700   7.889   6.418   9.608  0.0384 -0.0379 -0.2009
  482loPI   GL1 7701   8.357   6.312   9.498  0.0698  0.0359  0.0412
  482loPI   GL2 7702   8.254   6.617   9.342 -0.5363  0.1414 -0.0899
  482loPI   C1A 7703   8.531   6.209   9.071 -0.0123 -0.0601 -0.2334
  482loPI   C2A 7704   8.510   6.187   8.585 -0.0385 -0.3331  0.1820
  482loPI   C3A 7705   8.480   6.093   8.202 -0.0981  0.0475 -0.2635
  482loPI   C4A 7706   8.690   5.987   7.838 -0.1696  0.0340  0.0727
  482loPI   C5A 7707   8.681   5.718   7.584 -0.0686  0.1684  0.2490
  482loPI   C6A 7708   9.059   5.379   7.498  0.1425 -0.1692 -0.0402
  482loPI   C1B 7709   8.239   6.774   9.006  0.0207 -0.4500  0.0455
  482loPI   C2B 7710   8.289   6.919   8.629 -0.0397  0.2357 -0.0071
  482loPI   C3B 7711   8.275   6.887   8.172 -0.1191 -0.0465 -0.1321
  482loPI   C4B 7712   8.348   6.546   8.003  0.3088 -0.1628 -0.1476
  483loPI    C1 7713  16.919   3.741  10.245  0.0279 -0.0991 -0.0713
  483loPI    C2 7714  16.727   4.087  10.306  0.3832  0.1100 -0.1090
  483loPI    C3 7715  16.718   3.801  10.586  0.0185  0.1133 -0.1125
  483loPI   PO4 7716  16.880   3.704  10.010  0.0658  0.0785  0.0840
  483loPI   GL1 7717  17.049   3.420   9.718 -0.0094  0.1401  0.1179
  483loPI   GL2 7718  17.034   3.655   9.580  0.0307 -0.1792 -0.3647
  483loPI   C1A 7719  17.112   3.119   9.401  0.0041 -0.4498  0.4682
  483loPI   C2A 7720  17.071   3.213   8.900  0.4345 -0.2362 -0.1846
  483loPI   C3A 7721  17.115   3.134   8.481 -0.0060  0.0493 -0.0465
  483loPI   C4A 7722  17.269   3.116   8.086 -0.0595  0.0303  0.1169
  483loPI   C5A 7723  17.649   3.102   7.749  0.1113 -0.1927 -0.0322
  483loPI   C6A 7724  17.639   3.278   7.338  0.2157 -0.0923  0.1009
  483loPI   C1B 7725  16.891   3.694   9.177  0.3153  0.1222  0.2577
  483loPI   C2B 7726  16.890   3.660   8.716 -0.2778  0.4078  0.1263
  483loPI   C3B 7727  16.694   3.745   8.296 -0.0901  0.1010 -0.4340
  483loPI   C4B 7728  16.606   3.757   8.016  0.0659 -0.1737  0.4471
  484loPI    C1 7729   4.432   7.967   9.716  0.1425 -0.0588  0.1036
  484loPI    C2 7730   4.139   7.705   9.640  0.1084 -0.0662  0.2558
  484loPI    C3 7731   4.509   7.574   9.720  0.1545 -0.0568  0.0646
  484loPI   PO4 7732   4.405   8.132   9.503 -0.0882 -0.1024 -0.2058
  484loPI   GL1 7733   4.706   7.931   9.266 -0.1970  0.0923  0.0633
  484loPI   GL2 7734   4.451   7.682   9.273  0.3712  0.1328  0.0241
  484loPI   C1A 7735   4.734   8.268   8.991 -0.1624 -0.3252  0.0097
  484loPI   C2A 7736   4.907   8.321   8.683 -0.0857  0.0154  0.1529
  484loPI   C3A 7737   5.131   8.540   8.298  0.2419 -0.0509 -0.2261
  484loPI   C4A 7738   5.080   8.593   7.964  0.1151  0.0257  0.1747
  484loPI   C5A 7739   5.055   8.575   7.451  0.0911  0.0778  0.0794
  484loPI   C6A 7740   4.826   8.400   7.158 -0.1758  0.0589  0.2167
  484loPI   C1B 7741   4.378   7.845   8.829  0.4318  0.3285 -0.2959
  484loPI   C2B 7742   4.669   7.907   8.567 -0.2252  0.0338 -0.2135
  484loPI   C3B 7743   4.825   8.111   8.200  0.2464  0.1188  0.1118
  484loPI   C4B 7744   4.930   8.140   7.734 -0.1000  0.0552  0.0301
  485loPI    C1 7745  14.220   9.214  10.249 -0.0248  0.0189 -0.1004
  485loPI    C2 7746  14.052   9.275  10.607 -0.0145  0.0401 -0.0991
  485loPI    C3 7747  14.424   9.130  10.583  0.0595  0.2270 -0.0975
  485loPI   PO4 7748  14.168   9.385  10.070  0.0256 -0.5252 -0.3141
  485loPI   GL1 7749  14.429   9.326   9.764  0.0675  0.1708 -0.0610
  485loPI   GL2 7750  14.663   9.197   9.581 -0.0109  0.1845 -0.1711
  485loPI   C1A 7751  14.314   9.625   9.449 -0.0455  0.2702  0.0912
  485loPI   C2A 7752  14.371   9.548   8.956  0.0270  0.2306  0.2469
  485loPI   C3A 7753  14.263   9.598   8.503 -0.0635  0.0917  0.0312
  485loPI   C4A 7754  14.054   9.863   8.157 -0.1588  0.2766 -0.0488
  485loPI   C5A 7755  13.862  10.073   7.849  0.0840 -0.0345  0.1126
  485loPI   C6A 7756  13.846  10.441   7.718  0.2024 -0.0816  0.0285
  485loPI   C1B 7757  14.740   9.315   9.196 -0.3903  0.1313 -0.0433
  485loPI   C2B 7758  14.705   9.398   8.646  0.2532  0.2148 -0.1078
  485loPI   C3B 7759  14.693   9.452   8.225  0.2416  0.1574 -0.0885
  485loPI   C4B 7760  14.472   9.500   7.831 -0.2044 -0.1749  0.0458
  486loPI    C1 7761  13.662  14.574  10.247 -0.0149 -0.2638 -0.2088
  486loPI    C2 7762  13.326  14.547  10.032 -0.1018 -0.2914 -0.0707
  486loPI    C3 7763  13.386  14.299  10.341 -0.0385 -0.1644  0.0196
  486loPI   PO4 7764  13.934  14.552  10.106  0.2408  0.0009  0.0846
  486loPI   GL1 7765  14.242  14.492   9.886  0.0029  0.1427 -0.3007
  486loPI   GL2 7766  14.543  14.607   9.809 -0.1078  0.0742 -0.1466
  486loPI   C1A 7767  14.146  14.506   9.488  0.0981  0.1580 -0.0380
  486loPI   C2A 7768  14.277  14.432   9.066 -0.0396  0.0423  0.1387
  486loPI   C3A 7769  14.169  14.397   8.742  0.2786 -0.0638 -0.1666
  486loPI   C4A 7770  14.296  14.385   8.316  0.0103 -0.0207  0.2206
  486loPI   C5A 7771  14.108  14.367   7.844 -0.1544  0.1556  0.0030
  486loPI   C6A 7772  13.720  14.466   7.685 -0.0041  0.0071 -0.1395
  486loPI   C1B 7773  14.648  14.673   9.387 -0.3252 -0.1333 -0.0420
  486loPI   C2B 7774  14.753  14.574   9.062 -0.1270  0.3361  0.2007
  486loPI   C3B 7775  14.631  14.596   8.623 -0.2486 -0.1087 -0.0174
  486loPI   C4B 7776  14.938  14.584   8.309  0.2184 -0.1139  0.0645
  487loPI    C1 7777   3.451  16.131   9.727  0.1485  0.0010 -0.0142
  487loPI    C2 7778   3.375  15.791   9.923 -0.0603  0.1116  0.1000
  487loPI    C3 7779   3.594  16.077  10.097  0.0546  0.0658  0.0319
  487loPI   PO4 7780   3.491  16.075   9.455 -0.1055 -0.0439 -0.1783
  487loPI   GL1 7781   3.659  16.249   9.152 -0.0579 -0.1606  0.1812
  487loPI   GL2 7782   3.940  16.203   9.221 -0.1249 -0.1975 -0.0212
  487loPI   C1A 7783   3.639  16.640   8.864 -0.0650 -0.1903  0.3088
  487loPI   C2A 7784   3.762  16.722   8.509  0.2097 -0.0032  0.1070
  487loPI   C3A 7785   3.683  16.808   8.168  0.0230 -0.0641  0.0352
  487loPI   C4A 7786   3.723  17.030   7.833  0.0879  0.1720 -0.2130
  487loPI   C5A 7787   3.316  17.100   7.551 -0.0225  0.2152  0.0314
  487loPI   C6A 7788   2.989  16.816   7.412  0.0031  0.0617  0.2571
  487loPI   C1B 7789   4.342  16.109   9.066  0.3528  0.0610  0.0570
  487loPI   C2B 7790   4.488  15.956   8.727 -0.1153  0.1828  0.2423
  487loPI   C3B 7791   4.700  16.131   8.503  0.0738 -0.0706  0.0684
  487loPI   C4B 7792   4.915  16.516   8.300  0.1172  0.1768  0.0183
  488loPI    C1 7793   9.749  13.116  11.097 -0.1547  0.1632  0.0392
  488loPI    C2 7794   9.922  13.470  11.168  0.1535 -0.0054  0.1459
  488loPI    C3 7795  10.085  13.134  11.312 -0.1175 -0.1967  0.0173
  488loPI   PO4 7796   9.752  13.167  10.777  0.1275 -0.0955  0.1305
  488loPI   GL1 7797  10.030  13.312  10.430 -0.1102 -0.0871 -0.1080
  488loPI   GL2 7798  10.032  13.001  10.316 -0.4482  0.0049  0.3390
  488loPI   C1A 7799  10.184  13.423   9.988  0.1567  0.2413  0.0555
  488loPI   C2A 7800  10.322  13.382   9.602 -0.2366  0.0502 -0.1987
  488loPI   C3A 7801  10.431  13.404   9.209  0.0880  0.0900  0.2370
  488loPI   C4A 7802  10.521  13.342   8.822 -0.0620  0.0706 -0.1990
  488loPI   C5A 7803  10.397  13.405   8.377 -0.1515 -0.4178 -0.1623
  488loPI   C6A 7804  10.425  13.657   7.959 -0.2149 -0.1473  0.0714
  488loPI   C1B 7805  10.085  12.882   9.925 -0.1406  0.1485  0.1117
  488loPI   C2B 7806  10.144  12.928   9.340 -0.0626  0.1221 -0.3343
  488loPI   C3B 7807  10.103  13.037   8.902 -0.0763  0.1427 -0.0260
  488loPI   C4B 7808   9.905  13.193   8.410  0.3092  0.2910 -0.0885
  489loPI    C1 7809   3.630  10.827   9.546 -0.1991 -0.3658  0.0053
  489loPI    C2 7810   3.775  10.777   9.916  0.0894 -0.2287 -0.0863
  489loPI    C3 7811   3.970  10.623   9.602  0.0260 -0.0595 -0.2101
  489loPI   PO4 7812   3.395  10.699   9.504  0.0272  0.3817  0.2881
  489loPI   GL1 7813   3.195  10.467   9.225  0.0312  0.2190  0.2685
  489loPI   GL2 7814   3.227  10.110   9.361  0.0164  0.1523 -0.2072
  489loPI   C1A 7815   3.125  10.563   8.786  0.2895  0.0398  0.4934
  489loPI   C2A 7816   3.044  10.646   8.358  0.0990  0.2357 -0.4364
  489loPI   C3A 7817   2.981  10.690   8.006  0.1069 -0.0885 -0.0668
  489loPI   C4A 7818   3.120  10.434   7.621  0.2967  0.1087  0.0960
  489loPI   C5A 7819   2.879  10.164   7.314  0.0000  0.1660 -0.3622
  489loPI   C6A 7820   2.464  10.055   7.023 -0.1330  0.0423  0.1008
  489loPI   C1B 7821   2.873  10.130   9.000  0.0360 -0.0408  0.0155
  489loPI   C2B 7822   2.881  10.172   8.565  0.0431 -0.1020 -0.4133
  489loPI   C3B 7823   2.813  10.218   8.179 -0.1755  0.0174 -0.1629
  489loPI   C4B 7824   2.792  10.053   7.807 -0.0649  0.0225  0.2353
  490loPI    C1 7825  11.007   3.952  10.493  0.1046  0.0815 -0.0238
  490loPI    C2 7826  11.296   3.941  10.769 -0.1257 -0.0635  0.2152
  490loPI    C3 7827  11.066   4.267  10.733  0.1949  0.1329 -0.1129
  490loPI   PO4 7828  11.167   3.870  10.289  0.0183 -0.2516 -0.1366
  490loPI   GL1 7829  11.336   4.006   9.939  0.1330 -0.2105  0.0252
  490loPI   GL2 7830  11.451   3.845   9.768 -0.0999  0.1228  0.2209
  490loPI   C1A 7831  11.115   4.307   9.590 -0.1386  0.2764 -0.2452
  490loPI   C2A 7832  11.040   4.284   9.178 -0.2203 -0.1549 -0.2290
  490loPI   C3A 7833  11.073   4.523   8.851  0.1919  0.2346 -0.3381
  490loPI   C4A 7834  11.121   4.616   8.401  0.1788 -0.0797  0.0191
  490loPI   C5A 7835  10.924   4.642   8.028 -0.0020 -0.1609 -0.1680
  490loPI   C6A 7836  10.859   5.022   7.942  0.0489 -0.1127 -0.1082
  490loPI   C1B 7837  11.343   3.889   9.386 -0.3943 -0.0588  0.0621
  490loPI   C2B 7838  11.516   3.772   8.999  0.1771  0.1042 -0.1146
  490loPI   C3B 7839  11.782   3.501   8.876 -0.0279 -0.0470 -0.1736
  490loPI   C4B 7840  12.157   3.316   8.871  0.2136  0.1126 -0.0153
  491loPI    C1 7841  11.782   4.915  10.242 -0.0234 -0.2353 -0.1321
  491loPI    C2 7842  11.982   4.661  10.007 -0.1985 -0.2127 -0.3085
  491loPI    C3 7843  11.872   4.549  10.375  0.1658 -0.2128 -0.1956
  491loPI   PO4 7844  11.569   5.025  10.077 -0.0110 -0.0169 -0.2119
  491loPI   GL1 7845  11.536   4.983   9.734  0.2686 -0.0524 -0.0975
  491loPI   GL2 7846  11.296   4.761   9.704 -0.0325 -0.2566 -0.1902
  491loPI   C1A 7847  11.849   5.301   9.500 -0.1565 -0.1871 -0.0558
  491loPI   C2A 7848  11.941   5.380   9.039  0.2311 -0.0801 -0.0277
  491loPI   C3A 7849  11.698   5.375   8.641 -0.0204 -0.0280  0.0256
  491loPI   C4A 7850  11.515   5.482   8.266  0.3264  0.0070 -0.0032
  491loPI   C5A 7851  11.337   5.464   7.877  0.3590  0.0390 -0.1167
  491loPI   C6A 7852  11.083   5.307   7.573 -0.0125 -0.2127  0.1541
  491loPI   C1B 7853  11.313   4.694   9.312 -0.0035 -0.1144  0.2737
  491loPI   C2B 7854  11.549   4.924   8.966 -0.2226  0.0013  0.1204
  491loPI   C3B 7855  11.682   4.872   8.505  0.2508  0.0818  0.0064
  491loPI   C4B 7856  11.696   4.778   8.144 -0.0502  0.0697  0.4213
  492loPI    C1 7857  12.452  16.579  10.278 -0.0846 -0.0730 -0.0585
  492loPI    C2 7858  12.821  16.584  10.431 -0.0769  0.0735 -0.0808
  492loPI    C3 7859  12.526  16.397  10.626  0.0283 -0.1235 -0.1089
  492loPI   PO4 7860  12.504  16.537   9.968 -0.0405  0.3098 -0.1402
  492loPI   GL1 7861  12.611  16.166   9.639  0.4982  0.2003  0.5336
  492loPI   GL2 7862  12.749  16.506   9.524  0.4515  0.2098 -0.3802
  492loPI   C1A 7863  12.266  15.839   9.539  0.0182 -0.0801  0.0248
  492loPI   C2A 7864  12.182  15.675   9.105  0.0195  0.1012  0.0635
  492loPI   C3A 7865  12.045  15.365   8.757 -0.1207 -0.0782  0.4023
  492loPI   C4A 7866  11.926  15.268   8.349 -0.0521  0.0865 -0.0407
  492loPI   C5A 7867  11.695  15.274   7.917  0.1085 -0.2896 -0.0695
  492loPI   C6A 7868  11.744  15.129   7.455 -0.0177  0.1179 -0.1755
  492loPI   C1B 7869  12.523  16.276   9.145 -0.1230  0.0340 -0.0220
  492loPI   C2B 7870  12.279  16.339   8.720 -0.0491 -0.1932  0.0412
  492loPI   C3B 7871  11.965  16.320   8.361  0.0652 -0.0430  0.2313
  492loPI   C4B 7872  11.710  16.542   8.098 -0.0861  0.0559  0.0582
  493loPI    C1 7873   8.973   0.452  10.109  0.2492 -0.0675 -0.3418
  493loPI    C2 7874   8.616   0.541   9.952  0.2483  0.1068 -0.2444
  493loPI    C3 7875   8.736   0.160   9.973 -0.0436  0.0227 -0.0376
  493loPI   PO4 7876   9.168   0.560   9.987  0.0117  0.1085 -0.0028
  493loPI   GL1 7877   9.316   0.739   9.656 -0.1674  0.1787 -0.1363
  493loPI   GL2 7878   9.293   1.030   9.736 -0.1062 -0.2138 -0.0142
  493loPI   C1A 7879   9.209   0.709   9.172  0.1316 -0.0279  0.0885
  493loPI   C2A 7880   9.357   0.646   8.670 -0.0024 -0.0255 -0.0628
  493loPI   C3A 7881   9.316   0.698   8.175 -0.0043  0.1405 -0.2139
  493loPI   C4A 7882   9.635   0.726   7.918  0.1346 -0.0613 -0.1633
  493loPI   C5A 7883   9.678   0.963   7.497  0.2299 -0.2519  0.1285
  493loPI   C6A 7884   9.766   1.235   7.219 -0.0412  0.1914  0.1351
  493loPI   C1B 7885   9.104   1.229   9.258 -0.2458 -0.2279  0.0683
  493loPI   C2B 7886   9.101   1.731   9.016 -0.2237 -0.2934  0.1259
  493loPI   C3B 7887   9.389   1.997   8.775 -0.1762 -0.1401 -0.1798
  493loPI   C4B 7888   9.559   2.112   8.363  0.2182  0.2407  0.2438
  494loPI    C1 7889  18.085  11.288  10.607  0.0599  0.0441  0.2387
  494loPI    C2 7890  18.453  11.138  10.561 -0.0441 -0.0808 -0.2371
  494loPI    C3 7891  18.211  10.991  10.843  0.2411 -0.0470  0.0308
  494loPI   PO4 7892  18.026  11.268  10.279 -0.0191 -0.1969 -0.1290
  494loPI   GL1 7893  17.708  11.307  10.007 -0.0087  0.0080 -0.1342
  494loPI   GL2 7894  17.997  11.223   9.789  0.0467 -0.0805  0.1655
  494loPI   C1A 7895  17.406  11.259   9.752  0.0278  0.1086 -0.0419
  494loPI   C2A 7896  17.388  11.325   9.234 -0.3430  0.2902 -0.1314
  494loPI   C3A 7897  17.341  11.305   8.840 -0.0051 -0.2207 -0.0154
  494loPI   C4A 7898  17.422  11.333   8.398 -0.2534 -0.1548  0.1545
  494loPI   C5A 7899  17.448  11.222   7.868  0.1723  0.1716 -0.1116
  494loPI   C6A 7900  17.710  11.067   7.624  0.0744 -0.0351  0.1064
  494loPI   C1B 7901  17.771  11.051   9.423  0.0231 -0.2817 -0.0998
  494loPI   C2B 7902  17.755  10.968   8.992  0.3083 -0.0150  0.0070
  494loPI   C3B 7903  17.687  10.938   8.609  0.2151 -0.2481  0.1625
  494loPI   C4B 7904  17.785  10.983   8.181  0.2397  0.2053 -0.0771
  495loPI    C1 7905  18.215   5.427  10.403  0.1466 -0.1492  0.0685
  495loPI    C2 7906  18.570   5.244  10.385  0.2547  0.0385  0.2548
  495loPI    C3 7907  18.296   5.121  10.649  0.1303 -0.1906  0.0225
  495loPI   PO4 7908  18.312   5.591  10.069  0.2087 -0.1190  0.1931
  495loPI   GL1 7909  18.225   5.325   9.685 -0.3145  0.0158  0.1485
  495loPI   GL2 7910  18.037   5.047   9.634  0.3470 -0.0060 -0.0543
  495loPI   C1A 7911  18.214   5.273   9.242  0.2631 -0.3473 -0.0275
  495loPI   C2A 7912  18.224   5.404   8.787 -0.1135 -0.3193 -0.1034
  495loPI   C3A 7913  18.179   5.247   8.311  0.2539 -0.1900 -0.3925
  495loPI   C4A 7914  17.822   5.302   8.176 -0.0853 -0.0810  0.1126
  495loPI   C5A 7915  17.596   5.286   7.779  0.6672  0.0297  0.1553
  495loPI   C6A 7916  17.720   5.456   7.494  0.0444  0.0766  0.0694
  495loPI   C1B 7917  17.823   4.936   9.180 -0.1066 -0.1232  0.0783
  495loPI   C2B 7918  17.852   5.008   8.730 -0.2124  0.1789 -0.1732
  495loPI   C3B 7919  17.792   4.782   8.416 -0.3379 -0.1321  0.2618
  495loPI   C4B 7920  17.606   4.874   8.034 -0.0753 -0.3208 -0.0204
  496loPI    C1 7921  13.849  12.040  10.996 -0.0114 -0.0427 -0.0919
  496loPI    C2 7922  14.206  12.081  11.171 -0.0033  0.1640 -0.1537
  496loPI    C3 7923  14.059  11.716  11.099  0.1132  0.0779  0.0374
  496loPI   PO4 7924  13.832  12.234  10.790 -0.0382 -0.3022 -0.1293
  496loPI   GL1 7925  13.838  12.294  10.368 -0.1450  0.2137 -0.0312
  496loPI   GL2 7926  13.658  12.540  10.175  0.1192 -0.0401  0.0884
  496loPI   C1A 7927  13.963  12.250   9.930 -0.0627  0.4421  0.0711
  496loPI   C2A 7928  13.915  12.307   9.559 -0.1236  0.0068  0.0145
  496loPI   C3A 7929  13.825  12.342   9.104 -0.2685 -0.1760 -0.0432
  496loPI   C4A 7930  13.888  12.352   8.659  0.1106  0.3129  0.0614
  496loPI   C5A 7931  13.730  12.274   8.260  0.1894  0.2293 -0.2905
  496loPI   C6A 7932  13.492  12.535   7.915 -0.0286 -0.0554 -0.1796
  496loPI   C1B 7933  13.518  12.698   9.694 -0.3335  0.1780  0.2758
  496loPI   C2B 7934  13.498  12.671   9.308 -0.0513  0.0492 -0.0560
  496loPI   C3B 7935  13.445  12.643   8.866 -0.2575 -0.1989  0.3074
  496loPI   C4B 7936  13.511  12.654   8.494 -0.1420 -0.0249 -0.0821
  497loPI    C1 7937  17.394   2.672  10.356 -0.1554  0.0740 -0.0536
  497loPI    C2 7938  17.154   2.962  10.492 -0.0339  0.0406  0.2393
  497loPI    C3 7939  17.251   2.655  10.730 -0.0187 -0.1498 -0.0097
  497loPI   PO4 7940  17.321   2.545  10.212  0.0935 -0.1577 -0.1174
  497loPI   GL1 7941  17.242   2.364   9.853  0.2381  0.0705  0.0880
  497loPI   GL2 7942  17.014   2.337   9.689  0.1367  0.0456 -0.1593
  497loPI   C1A 7943  17.261   2.594   9.372 -0.0165  0.0030 -0.1003
  497loPI   C2A 7944  17.268   2.711   8.934 -0.3536  0.3287  0.2528
  497loPI   C3A 7945  17.283   2.673   8.513  0.0826  0.2278  0.2875
  497loPI   C4A 7946  17.537   2.656   8.099  0.1629  0.1837  0.0922
  497loPI   C5A 7947  17.908   2.484   7.986  0.3003  0.0955 -0.0319
  497loPI   C6A 7948  18.163   2.382   7.770  0.1661 -0.0122 -0.1088
  497loPI   C1B 7949  16.961   2.330   9.145  0.5808  0.3190 -0.0236
  497loPI   C2B 7950  16.985   2.318   8.769  0.1906 -0.3500 -0.2281
  497loPI   C3B 7951  17.035   2.269   8.369  0.1392  0.0996  0.3113
  497loPI   C4B 7952  17.072   2.470   8.054  0.1372  0.2251  0.0584
  498loPI    C1 7953   9.253   5.973  10.568 -0.0894  0.0338 -0.0090
  498loPI    C2 7954   9.090   6.177  10.871  0.0416  0.0072  0.0806
  498loPI    C3 7955   9.116   5.778  10.889  0.0830  0.0085  0.0508
  498loPI   PO4 7956   9.084   6.128  10.361 -0.1637 -0.0888 -0.2529
  498loPI   GL1 7957   9.092   6.091   9.871 -0.1992  0.1392  0.2155
  498loPI   GL2 7958   8.779   6.181   9.704  0.1052  0.0931 -0.0347
  498loPI   C1A 7959   9.459   6.118   9.555  0.2411 -0.2342 -0.0036
  498loPI   C2A 7960   9.453   6.112   9.145  0.2144  0.2034 -0.0467
  498loPI   C3A 7961   9.450   6.041   8.703 -0.3376  0.0339  0.3485
  498loPI   C4A 7962   9.512   5.970   8.294 -0.2210 -0.0830  0.1027
  498loPI   C5A 7963   9.406   5.901   7.919  0.2146 -0.2924  0.0773
  498loPI   C6A 7964   9.591   5.569   7.617  0.0810 -0.1875 -0.1339
  498loPI   C1B 7965   8.941   6.128   9.361  0.1713 -0.1862  0.2487
  498loPI   C2B 7966   9.057   6.302   8.987  0.2023 -0.2188 -0.0226
  498loPI   C3B 7967   9.004   6.306   8.484 -0.0788  0.0984 -0.1400
  498loPI   C4B 7968   9.000   6.000   8.224  0.1140 -0.1828 -0.0787
  499loPI    C1 7969   2.800   9.012   9.997  0.0762 -0.1174  0.0211
  499loPI    C2 7970   2.697   8.692  10.213  0.1128 -0.1411  0.0037
  499loPI    C3 7971   2.892   8.995  10.386 -0.1520 -0.0117  0.0816
  499loPI   PO4 7972   2.620   9.014   9.812 -0.1056 -0.3744 -0.0708
  499loPI   GL1 7973   2.637   9.063   9.445  0.0764 -0.0132 -0.1159
  499loPI   GL2 7974   2.357   9.174   9.428  0.1693 -0.0592 -0.1537
  499loPI   C1A 7975   2.622   9.302   9.045 -0.0799 -0.2218 -0.2091
  499loPI   C2A 7976   2.762   9.319   8.651 -0.4138  0.2436 -0.0713
  499loPI   C3A 7977   3.092   9.712   8.495 -0.3690  0.4559 -0.2165
  499loPI   C4A 7978   3.197   9.872   8.074  0.0289  0.1545 -0.1179
  499loPI   C5A 7979   3.433  10.035   7.675  0.1021  0.1386  0.1623
  499loPI   C6A 7980   3.740   9.875   7.437 -0.0587  0.2202  0.0256
  499loPI   C1B 7981   2.095   9.276   9.100 -0.1018  0.0828  0.0096
  499loPI   C2B 7982   2.165   9.308   8.775 -0.2431 -0.1372 -0.0809
  499loPI   C3B 7983   2.110   9.459   8.282 -0.0242  0.0826 -0.1921
  499loPI   C4B 7984   1.989   9.800   8.116  0.2053 -0.2756  0.3398
  500loPI    C1 7985   2.382  18.218  10.020 -0.0687  0.2952 -0.0684
  500loPI    C2 7986   2.612  17.983  10.248 -0.0369  0.0226 -0.3741
  500loPI    C3 7987   2.247  18.089  10.374  0.1226  0.1836 -0.0348
  500loPI   PO4 7988   2.376  18.083   9.711 -0.1128  0.0538 -0.0486
  500loPI   GL1 7989   2.315  18.118   9.374 -0.2036 -0.2331  0.1383
  500loPI   GL2 7990   2.048  18.374   9.260 -0.1528  0.0510  0.0592
  500loPI   C1A 7991   2.302  18.061   9.003 -0.0837 -0.0006  0.3606
  500loPI   C2A 7992   2.386  17.947   8.553 -0.0652 -0.3770  0.1351
  500loPI   C3A 7993   2.547  17.764   8.298 -0.0050  0.1796  0.0874
  500loPI   C4A 7994   2.547  17.564   7.958 -0.0744 -0.0432  0.0219
  500loPI   C5A 7995   2.542  17.216   7.602 -0.3424  0.0987 -0.0198
  500loPI   C6A 7996   2.452  16.873   7.451 -0.0851  0.0692  0.0830
  500loPI   C1B 7997   1.896  18.401   8.832  0.0881  0.0371 -0.1579
  500loPI   C2B 7998   1.803  18.309   8.453  0.2214 -0.3711 -0.0834
  500loPI   C3B 7999   1.756  18.143   8.113 -0.1041  0.0430  0.1119
  500loPI   C4B 8000   1.682  17.851   7.652  0.1147  0.1730  0.0288
  501loPI    C1 8001  17.346  10.390  10.462  0.0320  0.2686  0.0692
  501loPI    C2 8002  17.687  10.460  10.265  0.0817  0.0741  0.0840
  501loPI    C3 8003  17.685  10.454  10.665  0.0434  0.1595  0.0852
  501loPI   PO4 8004  17.192  10.582  10.365  0.0259  0.2428  0.0928
  501loPI   GL1 8005  17.062  10.631   9.968  0.0472  0.0073 -0.0243
  501loPI   GL2 8006  17.286  10.807   9.853  0.0914  0.1227 -0.3172
  501loPI   C1A 8007  16.942  10.587   9.570  0.1886  0.0173 -0.0430
  501loPI   C2A 8008  16.902  10.604   9.146  0.1305 -0.1825  0.3589
  501loPI   C3A 8009  16.792  10.521   8.757 -0.1116  0.1642  0.1507
  501loPI   C4A 8010  16.785  10.589   8.344 -0.1589  0.2720  0.0166
  501loPI   C5A 8011  16.783  10.482   8.003  0.0012 -0.1241 -0.0693
  501loPI   C6A 8012  17.019  10.359   7.667  0.1592  0.1009  0.0891
  501loPI   C1B 8013  17.304  10.830   9.415 -0.0355  0.0636  0.7021
  501loPI   C2B 8014  17.339  10.652   8.939  0.0894 -0.0463  0.3450
  501loPI   C3B 8015  17.230  10.783   8.594  0.2553 -0.2490  0.2018
  501loPI   C4B 8016  17.328  10.744   8.174  0.0815 -0.0155 -0.1659
  502loPI    C1 8017   7.299   4.820   9.809 -0.0606 -0.1091  0.0802
  502loPI    C2 8018   7.334   4.828  10.207 -0.2210  0.2709  0.0917
  502loPI    C3 8019   7.016   4.995  10.032 -0.1192  0.1636 -0.2010
  502loPI   PO4 8020   7.366   4.543   9.683 -0.2538 -0.3039  0.0143
  502loPI   GL1 8021   7.653   4.144   9.467  0.1145 -0.0331  0.0420
  502loPI   GL2 8022   7.396   3.983   9.286 -0.2138  0.0084  0.3100
  502loPI   C1A 8023   7.914   3.874   9.228 -0.1299  0.0690  0.1629
  502loPI   C2A 8024   8.089   3.745   8.883  0.2103 -0.1883 -0.0176
  502loPI   C3A 8025   8.331   3.558   8.579  0.2118  0.0926 -0.0810
  502loPI   C4A 8026   8.639   3.725   8.240  0.0132  0.0380 -0.0496
  502loPI   C5A 8027   8.556   3.815   7.770 -0.1609 -0.2552 -0.2217
  502loPI   C6A 8028   8.648   4.048   7.302  0.0351 -0.2678  0.1566
  502loPI   C1B 8029   7.517   3.911   8.817  0.2187 -0.0461 -0.0156
  502loPI   C2B 8030   7.494   3.931   8.287 -0.0478  0.1117  0.0572
  502loPI   C3B 8031   7.540   3.797   7.862 -0.3272  0.1345 -0.0439
  502loPI   C4B 8032   7.671   3.967   7.408  0.0439  0.2411 -0.0385
  503loPI    C1 8033   2.819  10.315   9.846  0.0877  0.0239  0.2061
  503loPI    C2 8034   3.214  10.247   9.851  0.0975  0.0453 -0.0942
  503loPI    C3 8035   3.006  10.243  10.192  0.3493 -0.0105  0.0610
  503loPI   PO4 8036   2.839  10.509   9.648  0.2391 -0.0415  0.0935
  503loPI   GL1 8037   2.768  10.700   9.175 -0.1743 -0.3093  0.1680
  503loPI   GL2 8038   2.521  10.472   9.249  0.1039  0.1100  0.4545
  503loPI   C1A 8039   2.626  10.637   8.728 -0.2473  0.3445 -0.0462
  503loPI   C2A 8040   2.577  10.813   8.277  0.1091  0.1952 -0.0511
  503loPI   C3A 8041   2.565  10.735   7.766 -0.1856  0.3727  0.2322
  503loPI   C4A 8042   2.696  10.779   7.430  0.0996 -0.0830  0.0644
  503loPI   C5A 8043   2.624  11.120   7.187 -0.0527  0.0742 -0.0338
  503loPI   C6A 8044   2.439  11.549   7.254  0.1007  0.2332 -0.0064
  503loPI   C1B 8045   2.389  10.228   8.924  0.0837 -0.2655 -0.3768
  503loPI   C2B 8046   2.206  10.105   8.463 -0.0330  0.1090 -0.1873
  503loPI   C3B 8047   2.318  10.208   8.064  0.0549  0.2153 -0.2270
  503loPI   C4B 8048   2.308  10.190   7.646 -0.1344  0.0693  0.1357
  504loPI    C1 8049  14.583  14.059  10.524  0.0051  0.1403 -0.0983
  504loPI    C2 8050  14.542  14.408  10.715 -0.0130  0.0452  0.0737
  504loPI    C3 8051  14.568  14.068  10.924  0.0835 -0.0492 -0.0901
  504loPI   PO4 8052  14.454  14.134  10.253  0.2400  0.1267  0.1383
  504loPI   GL1 8053  14.214  13.950   9.921 -0.1276 -0.0746 -0.2052
  504loPI   GL2 8054  14.584  14.118   9.793 -0.1845  0.1447 -0.2175
  504loPI   C1A 8055  14.079  13.970   9.503  0.0248  0.2469 -0.1203
  504loPI   C2A 8056  14.173  13.870   9.064 -0.1163  0.1562 -0.0063
  504loPI   C3A 8057  14.171  13.895   8.606  0.4370 -0.0810 -0.3107
  504loPI   C4A 8058  14.198  13.873   8.115  0.1563 -0.0948  0.3379
  504loPI   C5A 8059  14.318  13.910   7.752  0.1670 -0.3406  0.2354
  504loPI   C6A 8060  14.455  14.058   7.374  0.0718  0.0080  0.1670
  504loPI   C1B 8061  14.564  14.032   9.347  0.0226  0.0293  0.0286
  504loPI   C2B 8062  14.646  14.081   8.933  0.0315 -0.2001  0.1411
  504loPI   C3B 8063  14.675  14.086   8.501 -0.0663 -0.0292 -0.0813
  504loPI   C4B 8064  14.685  13.936   8.197 -0.0192 -0.1621  0.3943
  505loPI    C1 8065  15.572  10.491  10.479 -0.2375 -0.2748 -0.0876
  505loPI    C2 8066  15.355  10.513  10.814  0.0281 -0.0383  0.0742
  505loPI    C3 8067  15.676  10.275  10.800  0.1588  0.1364  0.0720
  505loPI   PO4 8068  15.637  10.726  10.426 -0.0369  0.1737  0.0373
  505loPI   GL1 8069  15.427  10.733  10.078  0.0193 -0.0418  0.0679
  505loPI   GL2 8070  15.609  10.670   9.868 -0.1795 -0.0627  0.2175
  505loPI   C1A 8071  15.154  10.790   9.663 -0.0817  0.1617  0.0630
  505loPI   C2A 8072  15.004  10.901   9.274  0.3193  0.1115  0.1563
  505loPI   C3A 8073  15.047  10.907   8.845  0.3697  0.1770 -0.2549
  505loPI   C4A 8074  15.056  10.938   8.486 -0.0597 -0.0193 -0.1423
  505loPI   C5A 8075  15.037  11.114   8.030  0.1219  0.0159 -0.0425
  505loPI   C6A 8076  14.998  11.048   7.606  0.0234  0.5027 -0.0067
  505loPI   C1B 8077  15.913  10.666   9.453 -0.2217 -0.2720 -0.0602
  505loPI   C2B 8078  15.933  10.766   8.958  0.0055  0.2746  0.1397
  505loPI   C3B 8079  15.972  10.790   8.473  0.2550  0.0180  0.1796
  505loPI   C4B 8080  16.065  10.969   7.996  0.3938 -0.2607  0.1547
  506loPI    C1 8081  12.078  17.005  10.071  0.0013  0.2369 -0.1449
  506loPI    C2 8082  12.259  17.035  10.426  0.0618 -0.4464 -0.1051
  506loPI    C3 8083  12.477  17.036  10.090  0.0326 -0.1334 -0.1258
  506loPI   PO4 8084  12.000  16.772  10.092  0.4054 -0.1289 -0.0561
  506loPI   GL1 8085  11.843  16.526   9.768 -0.0400 -0.0807 -0.1250
  506loPI   GL2 8086  11.708  16.354   9.890  0.2992 -0.0592  0.0702
  506loPI   C1A 8087  12.065  16.317   9.517  0.2040 -0.0661  0.0589
  506loPI   C2A 8088  12.070  16.169   9.118  0.0400 -0.2818  0.1196
  506loPI   C3A 8089  11.900  15.916   8.730  0.0789  0.0150 -0.4004
  506loPI   C4A 8090  12.026  15.748   8.327 -0.0177 -0.2019  0.0829
  506loPI   C5A 8091  12.395  15.520   8.331  0.0368  0.2641 -0.0730
  506loPI   C6A 8092  12.761  15.478   8.063 -0.0568 -0.0690  0.0126
  506loPI   C1B 8093  11.479  16.251   9.510 -0.0217 -0.0689 -0.1720
  506loPI   C2B 8094  11.618  16.423   9.125 -0.0979 -0.1388 -0.1710
  506loPI   C3B 8095  11.615  16.452   8.662 -0.2243 -0.1150 -0.0533
  506loPI   C4B 8096  11.320  16.535   8.376 -0.2116 -0.0589 -0.1637
  507loPI    C1 8097  16.769   9.658  10.449  0.0180  0.2329 -0.1057
  507loPI    C2 8098  16.963   9.325  10.342  0.0648  0.2744 -0.1504
  507loPI    C3 8099  17.057   9.510  10.684 -0.1558  0.0842  0.0165
  507loPI   PO4 8100  16.719   9.778  10.114  0.0897  0.2378 -0.2163
  507loPI   GL1 8101  16.802   9.839   9.678  0.0849  0.1372  0.0015
  507loPI   GL2 8102  16.572  10.104   9.736  0.0849 -0.1704  0.1791
  507loPI   C1A 8103  17.140   9.615   9.558 -0.0693 -0.1038  0.1335
  507loPI   C2A 8104  17.303   9.616   9.204  0.0869  0.0920 -0.0448
  507loPI   C3A 8105  17.166   9.652   8.805 -0.0574 -0.0361 -0.0719
  507loPI   C4A 8106  17.095   9.747   8.404  0.2868  0.3687  0.3781
  507loPI   C5A 8107  17.093   9.770   7.911  0.0988 -0.1033 -0.2470
  507loPI   C6A 8108  17.339   9.921   7.612 -0.2430 -0.0731 -0.1912
  507loPI   C1B 8109  16.590  10.305   9.394  0.1493 -0.2110 -0.2743
  507loPI   C2B 8110  16.391  10.468   8.989 -0.3361 -0.0724 -0.1779
  507loPI   C3B 8111  16.362  10.397   8.533  0.0398 -0.1221  0.2902
  507loPI   C4B 8112  16.294  10.387   8.063 -0.0066  0.0178  0.2144
  508loPI    C1 8113  14.818  17.351  10.835 -0.3333  0.0083  0.3140
  508loPI    C2 8114  14.660  17.289  10.473 -0.0259  0.1396  0.1548
  508loPI    C3 8115  14.422  17.309  10.793 -0.2884 -0.1106 -0.0203
  508loPI   PO4 8116  15.071  17.231  10.779  0.1355  0.1854 -0.0933
  508loPI   GL1 8117  15.103  17.025  10.313  0.0920 -0.3151 -0.0404
  508loPI   GL2 8118  15.207  17.326  10.269 -0.1391  0.1782 -0.1444
  508loPI   C1A 8119  15.109  16.936   9.902 -0.3561 -0.1561  0.0794
  508loPI   C2A 8120  15.207  16.957   9.424  0.1134  0.0173  0.0679
  508loPI   C3A 8121  15.410  17.297   9.115 -0.3169  0.0731  0.4450
  508loPI   C4A 8122  15.402  17.419   8.591  0.1387 -0.0548 -0.1992
  508loPI   C5A 8123  15.610  17.263   8.316  0.0451 -0.0258  0.0442
  508loPI   C6A 8124  15.827  17.077   8.040  0.2020  0.2906 -0.0758
  508loPI   C1B 8125  15.101  17.466   9.936 -0.1249  0.0616 -0.0221
  508loPI   C2B 8126  15.308  17.591   9.516 -0.2800  0.0803 -0.3457
  508loPI   C3B 8127  15.397  18.003   9.165 -0.2971  0.0889  0.0821
  508loPI   C4B 8128  15.771  18.242   8.975 -0.0893 -0.2540  0.0861
  509loPI    C1 8129  13.820   1.204  10.786 -0.0083 -0.2097 -0.1357
  509loPI    C2 8130  13.981   1.057  11.121  0.1504 -0.0056 -0.1201
  509loPI    C3 8131  13.584   1.100  11.092  0.1479  0.1545  0.1164
  509loPI   PO4 8132  13.861   1.025  10.617 -0.1760  0.1659  0.1333
  509loPI   GL1 8133  13.821   1.025  10.203  0.1256 -0.1337 -0.2700
  509loPI   GL2 8134  13.468   1.177  10.051 -0.0941 -0.3272 -0.0945
  509loPI   C1A 8135  13.966   1.424  10.047  0.0649 -0.2618  0.0019
  509loPI   C2A 8136  14.137   1.538   9.525  0.1832 -0.0699  0.1696
  509loPI   C3A 8137  14.285   1.735   9.080  0.0110 -0.0600  0.0602
  509loPI   C4A 8138  14.312   1.683   8.677 -0.0249  0.2973  0.3060
  509loPI   C5A 8139  14.106   1.573   8.312  0.2223 -0.0214 -0.0707
  509loPI   C6A 8140  14.186   1.151   8.095 -0.1904 -0.5222  0.3452
  509loPI   C1B 8141  13.804   1.097   9.726  0.1651 -0.1917 -0.1517
  509loPI   C2B 8142  13.846   1.158   9.352  0.1365  0.0571 -0.0779
  509loPI   C3B 8143  14.020   1.271   9.034  0.0930 -0.2312 -0.0554
  509loPI   C4B 8144  14.064   1.260   8.668  0.3893 -0.1098  0.0870
  510loPI    C1 8145  17.537  14.707  10.286  0.2903  0.0377 -0.0603
  510loPI    C2 8146  17.416  14.327  10.319  0.0913  0.0708 -0.3734
  510loPI    C3 8147  17.761  14.442  10.486  0.0034 -0.1733 -0.0124
  510loPI   PO4 8148  17.293  14.784  10.125  0.0583 -0.1141  0.2775
  510loPI   GL1 8149  17.096  14.642   9.785 -0.0283  0.0966  0.0427
  510loPI   GL2 8150  17.278  14.670   9.535 -0.2584 -0.1803 -0.2600
  510loPI   C1A 8151  16.843  14.493   9.453 -0.1175  0.0864 -0.1303
  510loPI   C2A 8152  16.811  14.520   9.084  0.0137 -0.0295  0.0109
  510loPI   C3A 8153  16.818  14.544   8.686  0.2264 -0.3781 -0.1954
  510loPI   C4A 8154  17.100  14.577   8.357  0.2717 -0.4126 -0.1406
  510loPI   C5A 8155  17.299  14.793   7.991  0.0591 -0.3038  0.2176
  510loPI   C6A 8156  17.506  14.741   7.554  0.0394  0.1982 -0.2503
  510loPI   C1B 8157  17.266  14.903   9.280  0.0836  0.2057 -0.0553
  510loPI   C2B 8158  17.088  14.946   8.924 -0.2425 -0.1623  0.2083
  510loPI   C3B 8159  17.023  15.047   8.510 -0.2387  0.2233  0.0927
  510loPI   C4B 8160  16.944  15.466   8.294 -0.0681 -0.1881 -0.0951
  511loPI    C1 8161  10.322  18.687  10.310  0.1107  0.0187  0.0550
  511loPI    C2 8162  10.659  18.861  10.439  0.3373 -0.2859 -0.1125
  511loPI    C3 8163  10.617  18.464  10.463 -0.0963 -0.2336  0.0934
  511loPI   PO4 8164  10.277  18.801  10.063  0.3206  0.0210 -0.1171
  511loPI   GL1 8165  10.154  19.151   9.802  0.1733 -0.0852  0.0423
  511loPI   GL2 8166  10.088  19.339   9.966 -0.1302 -0.1272  0.0747
  511loPI   C1A 8167  10.079  18.912   9.397  0.2477 -0.1449  0.1333
  511loPI   C2A 8168   9.830  18.790   9.108  0.2146  0.3005 -0.2461
  511loPI   C3A 8169   9.732  19.035   8.787  0.0551 -0.1621 -0.2045
  511loPI   C4A 8170   9.776  19.260   8.391 -0.1046 -0.2207  0.3066
  511loPI   C5A 8171   9.992  19.148   8.043 -0.2391  0.0536  0.2435
  511loPI   C6A 8172   9.969  18.922   7.662  0.2289  0.1506 -0.0082
  511loPI   C1B 8173   9.812  19.437   9.599 -0.1876  0.0210 -0.2084
  511loPI   C2B 8174   9.722  19.394   9.131  0.3724  0.1107  0.1236
  511loPI   C3B 8175   9.853  19.613   8.755 -0.1101  0.1190  0.1268
  511loPI   C4B 8176   9.724  19.790   8.382  0.2799 -0.1395 -0.2889
  512loPI    C1 8177  14.555  15.040  10.373 -0.0572 -0.0919  0.0154
  512loPI    C2 8178  14.258  14.920  10.134 -0.0039 -0.1184 -0.0375
  512loPI    C3 8179  14.506  14.651  10.296 -0.0549 -0.1028  0.0674
  512loPI   PO4 8180  14.601  15.317  10.219 -0.1207  0.1546 -0.1218
  512loPI   GL1 8181  14.876  15.540   9.887 -0.1864  0.1248  0.0843
  512loPI   GL2 8182  15.200  15.727   9.967 -0.0754  0.1376 -0.1269
  512loPI   C1A 8183  14.586  15.708   9.588  0.1488 -0.1106 -0.1080
  512loPI   C2A 8184  14.399  15.572   9.186  0.0015  0.1028  0.0806
  512loPI   C3A 8185  14.035  15.340   9.043  0.2330 -0.2528  0.0252
  512loPI   C4A 8186  13.960  15.293   8.633 -0.2221 -0.1174  0.0996
  512loPI   C5A 8187  13.747  15.184   8.293 -0.1305  0.0687 -0.3101
  512loPI   C6A 8188  13.286  15.278   8.120  0.1073 -0.0625 -0.1035
  512loPI   C1B 8189  15.162  15.672   9.489 -0.1614  0.2575 -0.1558
  512loPI   C2B 8190  14.947  15.582   9.145 -0.2331 -0.3678  0.3309
  512loPI   C3B 8191  14.775  15.513   8.901 -0.1711 -0.0260 -0.0285
  512loPI   C4B 8192  14.578  15.425   8.579  0.0704 -0.0143 -0.0679
  513loPI    C1 8193  16.000   2.659  10.326  0.0394  0.0209  0.1270
  513loPI    C2 8194  16.367   2.502  10.304  0.1222  0.2408 -0.1158
  513loPI    C3 8195  16.239   2.665  10.646  0.2307  0.1184 -0.0158
  513loPI   PO4 8196  15.859   2.447  10.163  0.2727  0.3871 -0.1731
  513loPI   GL1 8197  15.555   2.248   9.936  0.1874  0.1323  0.0768
  513loPI   GL2 8198  15.546   2.546   9.694 -0.1902 -0.0937  0.1357
  513loPI   C1A 8199  15.649   2.125   9.524 -0.0521  0.0379  0.0367
  513loPI   C2A 8200  15.589   2.097   9.079  0.0041 -0.3058  0.0191
  513loPI   C3A 8201  15.647   2.057   8.737 -0.3040  0.2468 -0.0739
  513loPI   C4A 8202  15.745   1.950   8.295  0.2106 -0.5330  0.1791
  513loPI   C5A 8203  15.943   1.793   7.927  0.1149  0.0568  0.0617
  513loPI   C6A 8204  15.774   1.621   7.617  0.2732 -0.0354 -0.2132
  513loPI   C1B 8205  15.442   2.517   9.256  0.0823  0.2863  0.0558
  513loPI   C2B 8206  15.416   2.582   8.836  0.1138  0.3529  0.0417
  513loPI   C3B 8207  15.359   2.482   8.374  0.1115  0.2998  0.3867
  513loPI   C4B 8208  15.416   2.199   7.937 -0.0962  0.0704 -0.1861
  514loPI    C1 8209  10.513   8.885  10.294  0.1907  0.0745  0.0553
  514loPI    C2 8210  10.565   9.090  10.633  0.4372 -0.0773  0.1122
  514loPI    C3 8211  10.739   8.733  10.587  0.1462 -0.2016 -0.0502
  514loPI   PO4 8212  10.349   8.933  10.191  0.2302 -0.1784 -0.1380
  514loPI   GL1 8213  10.025   9.041   9.815 -0.0466 -0.0590  0.3128
  514loPI   GL2 8214  10.419   8.877   9.750  0.2110 -0.3784  0.0849
  514loPI   C1A 8215   9.832   8.960   9.398 -0.0149 -0.0925  0.2615
  514loPI   C2A 8216   9.885   9.067   9.016 -0.2186  0.1174  0.3564
  514loPI   C3A 8217   9.946   9.468   8.882 -0.3261  0.2861 -0.1416
  514loPI   C4A 8218  10.008   9.554   8.398 -0.4309 -0.2729  0.3314
  514loPI   C5A 8219  10.004   9.741   7.858  0.1260 -0.1708 -0.4149
  514loPI   C6A 8220   9.824   9.900   7.563 -0.0132  0.2389  0.1742
  514loPI   C1B 8221  10.200   8.635   9.265 -0.1010  0.1872 -0.0229
  514loPI   C2B 8222   9.810   8.483   9.089  0.0283 -0.2471 -0.0362
  514loPI   C3B 8223   9.523   8.720   8.909 -0.0200 -0.1299  0.1301
  514loPI   C4B 8224   9.147   8.901   8.959  0.1059  0.2219 -0.4314
  515loPI    C1 8225   5.876   2.140   9.720 -0.1034 -0.1683  0.0964
  515loPI    C2 8226   6.151   2.265   9.458 -0.0255 -0.0765  0.2207
  515loPI    C3 8227   6.050   2.497   9.768 -0.0789 -0.2064  0.3013
  515loPI   PO4 8228   5.931   1.885   9.780  0.2144  0.1048  0.1370
  515loPI   GL1 8229   6.055   1.625   9.487  0.5103  0.2195  0.1064
  515loPI   GL2 8230   6.222   1.403   9.429 -0.2955  0.2163  0.0983
  515loPI   C1A 8231   6.259   1.803   9.087 -0.2336  0.0906 -0.1631
  515loPI   C2A 8232   6.465   2.086   8.733  0.4657 -0.4587  0.0243
  515loPI   C3A 8233   6.532   2.233   8.324 -0.3974 -0.1356  0.1042
  515loPI   C4A 8234   6.734   2.346   7.980 -0.1135  0.0708  0.1235
  515loPI   C5A 8235   6.788   2.302   7.575  0.0790  0.2353 -0.0836
  515loPI   C6A 8236   6.746   1.974   7.302 -0.3127  0.0385  0.1224
  515loPI   C1B 8237   6.029   1.302   9.023  0.1295 -0.0911 -0.0430
  515loPI   C2B 8238   5.785   1.406   8.670 -0.0308 -0.0862  0.0957
  515loPI   C3B 8239   5.626   1.397   8.306  0.1171 -0.2885  0.1888
  515loPI   C4B 8240   5.660   1.427   7.813  0.0863  0.0042 -0.3204
  516loPI    C1 8241  13.385  10.348  10.360 -0.2459 -0.1583  0.1086
  516loPI    C2 8242  13.309  10.512  10.716 -0.2698 -0.0709  0.0634
  516loPI    C3 8243  13.254  10.725  10.382 -0.3305 -0.1809  0.0027
  516loPI   PO4 8244  13.243  10.137  10.357  0.0578  0.2521 -0.2679
  516loPI   GL1 8245  12.953  10.040  10.010  0.2135 -0.1601 -0.0135
  516loPI   GL2 8246  12.992  10.422   9.986  0.0271 -0.0350  0.3380
  516loPI   C1A 8247  13.145  10.074   9.654  0.0578  0.1496  0.1446
  516loPI   C2A 8248  13.426   9.972   9.287  0.1129  0.4065 -0.2120
  516loPI   C3A 8249  13.292   9.957   8.864 -0.3733 -0.2972  0.0586
  516loPI   C4A 8250  13.207   9.769   8.585 -0.0121 -0.0088  0.1233
  516loPI   C5A 8251  13.223   9.719   8.180  0.3122 -0.1129  0.2919
  516loPI   C6A 8252  13.281  10.057   7.930 -0.0901 -0.1800  0.2424
  516loPI   C1B 8253  13.114  10.659   9.745 -0.1803  0.3754  0.0195
  516loPI   C2B 8254  13.518  10.714   9.440  0.2449 -0.3888 -0.2438
  516loPI   C3B 8255  13.731  10.876   9.063  0.0509  0.1195  0.0921
  516loPI   C4B 8256  13.686  10.793   8.633 -0.0172 -0.1798 -0.2532
  517loPI    C1 8257   4.436   4.438   9.905 -0.0225  0.1300 -0.0761
  517loPI    C2 8258   4.053   4.326   9.882 -0.0774  0.2695  0.1327
  517loPI    C3 8259   4.171   4.578  10.170  0.1734  0.2202  0.0753
  517loPI   PO4 8260   4.514   4.420   9.625  0.1838  0.4551 -0.3015
  517loPI   GL1 8261   4.534   4.879   9.304 -0.1717  0.0964 -0.1079
  517loPI   GL2 8262   4.797   4.664   9.197  0.1752  0.1401  0.2629
  517loPI   C1A 8263   4.369   5.088   9.051  0.2089  0.0113  0.2230
  517loPI   C2A 8264   4.088   5.434   8.973  0.0535 -0.2441  0.1926
  517loPI   C3A 8265   3.802   5.482   8.588  0.0555 -0.1275 -0.0502
  517loPI   C4A 8266   3.758   5.491   8.163 -0.0930  0.1739  0.3473
  517loPI   C5A 8267   4.030   5.832   7.978 -0.0207  0.2467  0.1396
  517loPI   C6A 8268   4.352   5.833   7.586 -0.0831  0.0702 -0.1815
  517loPI   C1B 8269   4.519   4.646   8.796 -0.1826 -0.1866 -0.0324
  517loPI   C2B 8270   4.436   4.659   8.457  0.1544  0.0563  0.1326
  517loPI   C3B 8271   4.354   4.619   8.011  0.0263  0.0045  0.1632
  517loPI   C4B 8272   4.221   4.914   7.717 -0.2976 -0.0023  0.0757
  518loPI    C1 8273  17.756  18.688  10.576  0.0673 -0.0692 -0.0844
  518loPI    C2 8274  18.133  18.757  10.689  0.0314 -0.0398  0.0190
  518loPI    C3 8275  17.922  18.467  10.866  0.0268 -0.1003 -0.0849
  518loPI   PO4 8276  17.793  18.715  10.270  0.0147  0.0457 -0.1573
  518loPI   GL1 8277  17.927  18.755   9.821 -0.2529  0.1125 -0.0386
  518loPI   GL2 8278  17.898  19.122   9.650 -0.0005  0.1848 -0.2704
  518loPI   C1A 8279  18.118  18.627   9.359  0.1810  0.0749  0.1431
  518loPI   C2A 8280  17.886  18.555   9.061 -0.0198  0.0892 -0.1115
  518loPI   C3A 8281  17.907  18.653   8.687  0.0331 -0.1008  0.4385
  518loPI   C4A 8282  17.886  18.647   8.213 -0.0858 -0.0508 -0.1902
  518loPI   C5A 8283  17.876  18.504   7.788 -0.2609 -0.1235  0.2220
  518loPI   C6A 8284  17.937  18.276   7.371  0.2410  0.2441 -0.2393
  518loPI   C1B 8285  17.850  19.017   9.305  0.0528 -0.2250 -0.0815
  518loPI   C2B 8286  17.770  19.102   8.899 -0.0400  0.3785 -0.2374
  518loPI   C3B 8287  17.720  19.113   8.504 -0.0086  0.1565  0.1028
  518loPI   C4B 8288  17.683  19.124   8.006  0.2408  0.0496  0.0963
  519loPI    C1 8289   1.479  11.151  10.103 -0.0891  0.2209  0.2225
  519loPI    C2 8290   1.698  11.356   9.838 -0.1066  0.1411  0.1461
  519loPI    C3 8291   1.547  11.542  10.159 -0.1496  0.2554  0.0606
  519loPI   PO4 8292   1.313  11.023   9.919 -0.1588  0.4581  0.0555
  519loPI   GL1 8293   1.154  10.936   9.572  0.1447 -0.0742 -0.1516
  519loPI   GL2 8294   0.970  10.716   9.449 -0.3435 -0.0484 -0.3041
  519loPI   C1A 8295   0.919  11.203   9.347  0.3740 -0.0287 -0.2030
  519loPI   C2A 8296   0.762  11.530   9.097  0.0298 -0.0934  0.0213
  519loPI   C3A 8297   0.808  11.451   8.626 -0.2749 -0.1303 -0.0489
  519loPI   C4A 8298   0.967  11.548   8.134 -0.2900 -0.0710 -0.0385
  519loPI   C5A 8299   1.145  11.390   7.806  0.0249  0.0294  0.0252
  519loPI   C6A 8300   1.275  11.273   7.408 -0.1756  0.1513 -0.0316
  519loPI   C1B 8301   0.887  10.628   9.035 -0.2391  0.0287 -0.0672
  519loPI   C2B 8302   0.979  10.661   8.611  0.2070  0.3557  0.2012
  519loPI   C3B 8303   0.796  10.642   8.236  0.0173 -0.0852  0.1091
  519loPI   C4B 8304   0.499  10.671   7.874 -0.1591  0.0240  0.1816
  520loPI    C1 8305   9.606  14.488  11.170  0.0268  0.1537  0.0419
  520loPI    C2 8306   9.251  14.538  11.347  0.0838  0.1177  0.1676
  520loPI    C3 8307   9.467  14.210  11.421  0.0233  0.0106 -0.1165
  520loPI   PO4 8308   9.575  14.424  10.935 -0.1950 -0.2318  0.0338
  520loPI   GL1 8309   9.397  14.550  10.527  0.3479 -0.1562 -0.0307
  520loPI   GL2 8310   9.639  14.479  10.417 -0.1202  0.2221 -0.2104
  520loPI   C1A 8311   9.152  14.535  10.168  0.2578 -0.0670 -0.2070
  520loPI   C2A 8312   8.979  14.508   9.837  0.2308 -0.0017  0.1222
  520loPI   C3A 8313   9.166  14.517   9.447 -0.2359 -0.0577 -0.0529
  520loPI   C4A 8314   8.979  14.543   8.990  0.0279 -0.2228  0.0591
  520loPI   C5A 8315   8.987  14.625   8.556  0.3261  0.3173  0.1291
  520loPI   C6A 8316   8.854  14.755   8.078  0.2002 -0.3466  0.1120
  520loPI   C1B 8317   9.680  14.549  10.013 -0.1007 -0.0141  0.3650
  520loPI   C2B 8318   9.745  14.579   9.501 -0.0452  0.3450  0.0735
  520loPI   C3B 8319   9.850  14.586   9.063 -0.0261 -0.0078  0.2806
  520loPI   C4B 8320   9.850  14.647   8.676  0.0288  0.2294  0.0674
  521loPI    C1 8321   1.277   5.463   9.832 -0.0080  0.0716 -0.1098
  521loPI    C2 8322   0.972   5.205   9.866 -0.1214  0.2270  0.0728
  521loPI    C3 8323   1.083   5.426  10.180  0.4580 -0.1331  0.1366
  521loPI   PO4 8324   1.405   5.410   9.662  0.0441 -0.2859  0.1706
  521loPI   GL1 8325   1.668   5.396   9.400 -0.3435  0.1571  0.0071
  521loPI   GL2 8326   1.436   5.140   9.222 -0.0700 -0.0941  0.1554
  521loPI   C1A 8327   1.881   5.254   9.067 -0.1629  0.2103  0.1106
  521loPI   C2A 8328   1.822   5.175   8.635  0.2493  0.1863 -0.0952
  521loPI   C3A 8329   1.697   5.344   8.159 -0.1365 -0.2989  0.0139
  521loPI   C4A 8330   2.004   5.495   7.789 -0.0282  0.1820  0.1428
  521loPI   C5A 8331   2.333   5.333   7.541  0.1623  0.0107 -0.0514
  521loPI   C6A 8332   2.438   5.146   7.269 -0.2019  0.0297  0.0216
  521loPI   C1B 8333   1.401   5.002   8.825 -0.1371 -0.0505  0.3257
  521loPI   C2B 8334   1.327   5.287   8.493  0.1265  0.0891  0.2310
  521loPI   C3B 8335   1.120   5.348   8.077  0.2296 -0.3087 -0.1503
  521loPI   C4B 8336   0.834   5.317   7.767 -0.0746  0.1370 -0.2396
  522loPI    C1 8337   2.510  12.540   9.930 -0.0763 -0.0853 -0.0129
  522loPI    C2 8338   2.226  12.775   9.775 -0.0279  0.1032  0.1791
  522loPI    C3 8339   2.223  12.689  10.166 -0.1747 -0.4034  0.0740
  522loPI   PO4 8340   2.773  12.641   9.711 -0.1569  0.3591 -0.1647
  522loPI   GL1 8341   3.029  12.542   9.263  0.1759 -0.1225 -0.1852
  522loPI   GL2 8342   2.741  12.373   9.112  0.2821  0.1809 -0.0254
  522loPI   C1A 8343   3.296  12.857   9.053 -0.0135 -0.0809 -0.1058
  522loPI   C2A 8344   3.351  12.944   8.614 -0.1323 -0.1987  0.4497
  522loPI   C3A 8345   3.322  13.198   8.167 -0.3917 -0.4423 -0.2381
  522loPI   C4A 8346   3.244  13.061   7.710 -0.0740  0.1920 -0.1492
  522loPI   C5A 8347   2.885  12.849   7.408 -0.1412  0.1321 -0.2497
  522loPI   C6A 8348   2.474  12.750   7.279  0.1891  0.1606 -0.1579
  522loPI   C1B 8349   2.918  12.414   8.755  0.1564 -0.2219 -0.3351
  522loPI   C2B 8350   3.044  12.581   8.503  0.4133 -0.0530  0.1639
  522loPI   C3B 8351   3.373  12.685   8.193 -0.2641  0.2614  0.0623
  522loPI   C4B 8352   3.704  12.967   7.866  0.1151  0.1740  0.0120
  523loPI    C1 8353  14.800   3.247  10.535  0.0738  0.0952  0.0467
  523loPI    C2 8354  14.489   3.359  10.762  0.1084  0.0602  0.1115
  523loPI    C3 8355  14.734   3.068  10.887  0.1873  0.1114  0.0764
  523loPI   PO4 8356  14.920   3.407  10.451 -0.0552 -0.2275  0.2191
  523loPI   GL1 8357  15.024   3.755  10.133 -0.0123  0.0650  0.0457
  523loPI   GL2 8358  15.064   3.909   9.814  0.2520 -0.0452 -0.2887
  523loPI   C1A 8359  15.011   3.400   9.802 -0.1397 -0.2491  0.0604
  523loPI   C2A 8360  15.052   3.370   9.360 -0.0203 -0.0601 -0.0705
  523loPI   C3A 8361  14.914   3.416   8.830 -0.3464 -0.0803 -0.1620
  523loPI   C4A 8362  14.790   3.376   8.472  0.0150  0.0283  0.1338
  523loPI   C5A 8363  14.845   3.418   8.092 -0.0967  0.1034  0.0161
  523loPI   C6A 8364  14.901   3.237   7.585 -0.2555 -0.2417  0.1852
  523loPI   C1B 8365  15.082   4.198   9.475 -0.0461 -0.4754  0.1278
  523loPI   C2B 8366  15.099   4.311   9.072 -0.1364  0.0039 -0.0227
  523loPI   C3B 8367  15.020   4.223   8.629 -0.0360 -0.0111  0.1236
  523loPI   C4B 8368  14.987   4.320   8.207  0.2218  0.2178 -0.3299
  524loPI    C1 8369   3.909  17.906   9.748  0.3764 -0.0108 -0.1360
  524loPI    C2 8370   3.689  18.095   9.473  0.0143 -0.3139 -0.0623
  524loPI    C3 8371   3.875  18.304   9.758  0.1369 -0.0235 -0.3487
  524loPI   PO4 8372   4.057  17.777   9.623 -0.0268 -0.2499 -0.3031
  524loPI   GL1 8373   4.171  17.714   9.221  0.0293 -0.1512  0.0821
  524loPI   GL2 8374   3.938  17.430   9.134 -0.0402 -0.0384  0.1121
  524loPI   C1A 8375   4.138  17.530   8.700  0.3121  0.0328  0.0392
  524loPI   C2A 8376   4.329  17.476   8.249  0.0292 -0.1086  0.1651
  524loPI   C3A 8377   4.453  17.769   7.887 -0.1115 -0.0291  0.2513
  524loPI   C4A 8378   4.774  17.900   7.620  0.1875  0.0518 -0.1074
  524loPI   C5A 8379   5.139  17.702   7.439  0.1760  0.0509  0.1697
  524loPI   C6A 8380   5.513  17.506   7.443 -0.2678  0.0644 -0.1205
  524loPI   C1B 8381   3.884  17.140   8.778  0.2219  0.0215 -0.1526
  524loPI   C2B 8382   3.911  17.215   8.306 -0.0505 -0.0122  0.0016
  524loPI   C3B 8383   4.059  17.389   7.823  0.1928 -0.1639  0.2828
  524loPI   C4B 8384   4.126  17.555   7.441 -0.6770 -0.1173 -0.4689
  525loPI    C1 8385  18.328   6.631  10.417 -0.1043 -0.0730 -0.0427
  525loPI    C2 8386  18.514   6.956  10.279  0.0998 -0.1131  0.1327
  525loPI    C3 8387  18.138   6.983  10.411 -0.0030 -0.0197 -0.1708
  525loPI   PO4 8388  18.305   6.477  10.215 -0.0098  0.1380  0.1029
  525loPI   GL1 8389  18.206   6.543   9.756  0.3423 -0.1570 -0.0954
  525loPI   GL2 8390  18.183   6.951   9.853 -0.1438 -0.2530 -0.0468
  525loPI   C1A 8391  18.194   6.595   9.211 -0.1668  0.1022 -0.0683
  525loPI   C2A 8392  18.265   6.712   8.896  0.2595 -0.1787 -0.1521
  525loPI   C3A 8393  18.467   6.788   8.492 -0.0077  0.2520  0.3047
  525loPI   C4A 8394  18.548   6.649   8.018 -0.0824 -0.1113  0.2492
  525loPI   C5A 8395  18.565   6.657   7.649 -0.0759 -0.1829 -0.0638
  525loPI   C6A 8396  18.740   6.580   7.180  0.0634 -0.0524 -0.1031
  525loPI   C1B 8397  18.240   6.995   9.444 -0.2160  0.3436  0.1267
  525loPI   C2B 8398  18.037   7.134   8.940 -0.0394  0.2320  0.0968
  525loPI   C3B 8399  17.943   7.220   8.577  0.0168  0.2548 -0.1382
  525loPI   C4B 8400  17.745   7.059   8.179  0.2060 -0.1566  0.2187
  526loPI    C1 8401  14.443  15.903  10.587  0.1217 -0.2347  0.0293
  526loPI    C2 8402  14.122  15.748  10.768  0.0427 -0.2228 -0.0995
  526loPI    C3 8403  14.222  16.130  10.830 -0.0549 -0.1844 -0.1748
  526loPI   PO4 8404  14.428  15.849  10.347 -0.0115  0.0087 -0.1100
  526loPI   GL1 8405  14.144  15.776   9.917 -0.0351  0.1673 -0.1140
  526loPI   GL2 8406  14.265  15.403   9.821 -0.0299  0.0477  0.0832
  526loPI   C1A 8407  14.082  15.877   9.469 -0.3927  0.0052 -0.0057
  526loPI   C2A 8408  13.885  15.846   9.124  0.3192  0.1798 -0.0348
  526loPI   C3A 8409  13.646  15.792   8.784  0.2124  0.2650 -0.0824
  526loPI   C4A 8410  13.776  15.998   8.508  0.2457  0.1226  0.0578
  526loPI   C5A 8411  13.496  16.248   8.130 -0.1293 -0.3721 -0.2387
  526loPI   C6A 8412  13.576  16.460   7.772 -0.1017 -0.0707 -0.1189
  526loPI   C1B 8413  14.610  15.109   9.657 -0.3302  0.0286 -0.0492
  526loPI   C2B 8414  14.830  15.148   9.313  0.1826  0.1763 -0.4447
  526loPI   C3B 8415  14.774  15.046   8.871 -0.1077 -0.1502  0.1325
  526loPI   C4B 8416  14.930  15.142   8.390 -0.1265  0.1842 -0.2117
  527loPI    C1 8417  16.983  17.160  10.191 -0.1288  0.0198  0.2840
  527loPI    C2 8418  17.239  17.350  10.433  0.0855  0.1963 -0.0717
  527loPI    C3 8419  17.206  16.951  10.449  0.1898  0.1955  0.1573
  527loPI   PO4 8420  17.018  17.292   9.993  0.0789  0.0145  0.0464
  527loPI   GL1 8421  16.847  17.213   9.585 -0.0613  0.2413  0.2718
  527loPI   GL2 8422  16.630  17.002   9.761 -0.4239  0.1107 -0.0405
  527loPI   C1A 8423  17.137  17.432   9.282 -0.0711  0.2208 -0.1106
  527loPI   C2A 8424  17.326  17.370   8.938  0.1356  0.1022  0.1577
  527loPI   C3A 8425  17.284  17.381   8.484 -0.2563 -0.2243 -0.2642
  527loPI   C4A 8426  17.200  17.289   8.091  0.2682  0.2083 -0.2980
  527loPI   C5A 8427  16.886  17.430   7.824 -0.0808 -0.0508  0.1489
  527loPI   C6A 8428  16.706  17.239   7.528 -0.2041 -0.0038  0.1717
  527loPI   C1B 8429  16.443  17.103   9.358 -0.2959 -0.1119  0.2380
  527loPI   C2B 8430  16.721  17.248   9.045  0.1739  0.1844  0.1296
  527loPI   C3B 8431  16.728  17.417   8.704  0.1480 -0.0409  0.1114
  527loPI   C4B 8432  16.694  17.452   8.281 -0.0839  0.0394  0.1661
  528loPI    C1 8433  11.876  10.147  10.786 -0.1477 -0.2357  0.1300
  528loPI    C2 8434  11.849  10.433  11.064  0.0637 -0.1838  0.0992
  528loPI    C3 8435  12.184  10.216  11.033  0.0440 -0.1845 -0.1195
  528loPI   PO4 8436  11.828  10.245  10.564  0.3215 -0.1600 -0.3103
  528loPI   GL1 8437  12.071  10.209  10.215 -0.0570  0.0515 -0.0006
  528loPI   GL2 8438  12.430  10.395  10.150 -0.1260  0.0788 -0.3443
  528loPI   C1A 8439  11.981  10.143   9.701 -0.0071 -0.0224 -0.3350
  528loPI   C2A 8440  11.792  10.394   9.347  0.0448 -0.3619  0.0341
  528loPI   C3A 8441  11.355  10.539   9.244 -0.0535  0.1112  0.0908
  528loPI   C4A 8442  11.167  10.827   9.118  0.0411 -0.3024  0.1714
  528loPI   C5A 8443  11.034  11.068   8.667  0.0777 -0.0865  0.0521
  528loPI   C6A 8444  10.769  10.894   8.394  0.1813  0.0346 -0.2505
  528loPI   C1B 8445  12.152  10.589   9.776  0.0529  0.2277  0.1412
  528loPI   C2B 8446  12.230  10.586   9.307 -0.1350  0.1033 -0.2768
  528loPI   C3B 8447  12.044  10.485   8.840  0.0471 -0.0829 -0.1986
  528loPI   C4B 8448  11.791  10.298   8.502 -0.2678 -0.0830  0.1679
  529loPI    C1 8449  12.268   8.952  10.505 -0.0606 -0.0234 -0.0318
  529loPI    C2 8450  12.203   8.557  10.498 -0.0817 -0.0186 -0.1137
  529loPI    C3 8451  11.984   8.792  10.736 -0.0821 -0.0539 -0.0792
  529loPI   PO4 8452  12.209   9.098  10.347 -0.1447  0.2844  0.3420
  529loPI   GL1 8453  12.270   9.019   9.968  0.1799 -0.1063 -0.2626
  529loPI   GL2 8454  12.014   8.730   9.872  0.0199 -0.2237  0.0747
  529loPI   C1A 8455  12.361   8.866   9.575 -0.2117 -0.1378  0.0510
  529loPI   C2A 8456  12.444   9.024   9.123  0.1336  0.2603  0.2855
  529loPI   C3A 8457  12.400   9.064   8.695 -0.0661 -0.1731  0.0412
  529loPI   C4A 8458  12.511   9.238   8.265  0.0319  0.0631 -0.0010
  529loPI   C5A 8459  12.647   9.481   8.013 -0.0921 -0.1296 -0.0529
  529loPI   C6A 8460  12.955   9.717   7.756  0.2332 -0.0951 -0.1756
  529loPI   C1B 8461  11.804   8.760   9.482  0.1609 -0.0708  0.0275
  529loPI   C2B 8462  11.915   8.865   9.027  0.2531  0.1322 -0.0875
  529loPI   C3B 8463  12.071   8.708   8.701  0.0937  0.2278 -0.0708
  529loPI   C4B 8464  12.186   8.639   8.368 -0.1020 -0.4581 -0.0968
  530loPI    C1 8465   5.073   4.137   9.694  0.1927 -0.4317 -0.3048
  530loPI    C2 8466   5.355   4.290   9.933 -0.0116 -0.2092 -0.2006
  530loPI    C3 8467   5.017   4.146  10.090 -0.2223  0.0971 -0.3638
  530loPI   PO4 8468   5.080   4.324   9.430 -0.0360  0.0810 -0.4035
  530loPI   GL1 8469   5.285   4.570   9.072  0.0347 -0.3604  0.3171
  530loPI   GL2 8470   5.576   4.397   8.924  0.0712  0.1807  0.0796
  530loPI   C1A 8471   5.019   4.626   8.696  0.0134 -0.5291 -0.1305
  530loPI   C2A 8472   4.949   4.787   8.331  0.0370  0.0333  0.0233
  530loPI   C3A 8473   4.638   5.066   8.057  0.1902  0.1943  0.2166
  530loPI   C4A 8474   4.756   5.458   7.853  0.1438 -0.1418  0.1881
  530loPI   C5A 8475   4.891   5.647   7.495  0.0113  0.3028  0.0872
  530loPI   C6A 8476   5.246   5.631   7.227 -0.0134  0.0314  0.0442
  530loPI   C1B 8477   5.429   4.390   8.545  0.3379 -0.0242  0.0957
  530loPI   C2B 8478   5.299   4.479   8.217 -0.0188  0.0308  0.0918
  530loPI   C3B 8479   5.196   4.789   7.912  0.2772 -0.2393 -0.1289
  530loPI   C4B 8480   4.864   4.982   7.640  0.2488  0.0669  0.1405
  531loPI    C1 8481  10.588   7.969  10.360 -0.2020  0.3834 -0.3005
  531loPI    C2 8482  10.899   8.213  10.420 -0.0851  0.1826 -0.0720
  531loPI    C3 8483  10.678   8.092  10.730 -0.1894  0.0592 -0.1934
  531loPI   PO4 8484  10.703   7.942  10.077  0.0276 -0.0890  0.2230
  531loPI   GL1 8485  10.496   7.977   9.680 -0.0027  0.0890  0.0868
  531loPI   GL2 8486  10.836   7.838   9.621  0.0239 -0.3027 -0.0083
  531loPI   C1A 8487  10.393   8.116   9.297 -0.2067  0.0078  0.4298
  531loPI   C2A 8488  10.642   8.277   8.936  0.1682  0.2099  0.2197
  531loPI   C3A 8489  10.467   8.375   8.466  0.1503 -0.0937 -0.2492
  531loPI   C4A 8490  10.221   8.604   8.209  0.3031 -0.2458  0.0502
  531loPI   C5A 8491  10.060   8.958   8.102  0.1303  0.0195  0.3385
  531loPI   C6A 8492   9.696   8.957   7.740 -0.0303  0.2758 -0.2422
  531loPI   C1B 8493  10.778   7.824   9.182 -0.1837  0.3211  0.1735
  531loPI   C2B 8494  10.938   7.885   8.813  0.0861 -0.0231 -0.4296
  531loPI   C3B 8495  10.891   8.027   8.341  0.1929 -0.3841 -0.1337
  531loPI   C4B 8496  10.934   8.084   7.941 -0.1407  0.0577  0.1227
  532loPI    C1 8497  16.917   2.266  10.382 -0.0297  0.1618 -0.0222
  532loPI    C2 8498  16.613   2.179  10.626  0.0698 -0.0113  0.0415
  532loPI    C3 8499  16.977   2.245  10.777  0.0603  0.2180 -0.0324
  532loPI   PO4 8500  16.897   2.147  10.171 -0.0629 -0.0838  0.0028
  532loPI   GL1 8501  16.606   2.170  10.000 -0.0155 -0.3356 -0.0465
  532loPI   GL2 8502  16.499   2.439   9.746 -0.1556  0.3926  0.2822
  532loPI   C1A 8503  16.681   2.043   9.579  0.0446 -0.2601  0.0836
  532loPI   C2A 8504  16.639   1.922   9.141 -0.1748 -0.2217 -0.1055
  532loPI   C3A 8505  16.660   1.890   8.742 -0.0127 -0.0127 -0.0376
  532loPI   C4A 8506  16.732   1.860   8.346 -0.0255 -0.2204  0.0413
  532loPI   C5A 8507  16.925   1.906   7.909  0.1509 -0.2428 -0.0655
  532loPI   C6A 8508  16.776   2.156   7.644 -0.3787 -0.3237  0.3488
  532loPI   C1B 8509  16.490   2.409   9.263 -0.0034  0.1559  0.0595
  532loPI   C2B 8510  16.495   2.363   8.906 -0.0621  0.2324 -0.0856
  532loPI   C3B 8511  16.541   2.325   8.502 -0.0437 -0.3524 -0.0966
  532loPI   C4B 8512  16.595   2.395   8.022 -0.0428  0.1091  0.0689
  533loPI    C1 8513  14.878   7.805  10.281 -0.0311 -0.5136  0.2319
  533loPI    C2 8514  14.522   7.962  10.375 -0.0367 -0.1724 -0.3145
  533loPI    C3 8515  14.572   7.565  10.378 -0.3325 -0.2126  0.0479
  533loPI   PO4 8516  14.920   7.997  10.117 -0.3079  0.0791 -0.1787
  533loPI   GL1 8517  15.009   8.100   9.765 -0.0693  0.0270  0.1067
  533loPI   GL2 8518  15.377   8.063   9.903 -0.0439  0.0410 -0.0509
  533loPI   C1A 8519  15.224   7.838   9.443  0.2294 -0.4522 -0.1308
  533loPI   C2A 8520  15.306   7.911   9.034 -0.3445 -0.1663  0.3417
  533loPI   C3A 8521  15.137   8.095   8.658 -0.0423 -0.0930  0.0050
  533loPI   C4A 8522  15.152   8.414   8.218  0.1149  0.2469  0.3640
  533loPI   C5A 8523  15.286   8.365   7.864 -0.0614 -0.0324  0.0973
  533loPI   C6A 8524  15.300   8.472   7.369 -0.1256 -0.0347 -0.1026
  533loPI   C1B 8525  15.489   8.189   9.556 -0.1595  0.0865 -0.1447
  533loPI   C2B 8526  15.186   8.379   9.259 -0.2554  0.3505 -0.0423
  533loPI   C3B 8527  14.914   8.478   8.891  0.0427  0.1821 -0.0209
  533loPI   C4B 8528  14.717   8.430   8.523 -0.0966 -0.4764  0.0691
  534loPI    C1 8529  14.038  14.219  10.535 -0.0743 -0.0659 -0.0843
  534loPI    C2 8530  13.729  14.377  10.734 -0.0865 -0.0956 -0.0796
  534loPI    C3 8531  14.055  14.259  10.933 -0.1572 -0.2613 -0.0598
  534loPI   PO4 8532  13.909  14.059  10.290  0.1060  0.1849 -0.0031
  534loPI   GL1 8533  13.561  13.919   9.998 -0.1118 -0.1994 -0.0947
  534loPI   GL2 8534  13.694  14.207   9.840 -0.2070 -0.3067 -0.0271
  534loPI   C1A 8535  13.778  13.678   9.767  0.1579  0.1303 -0.4207
  534loPI   C2A 8536  13.677  13.744   9.329  0.2030 -0.2408 -0.1326
  534loPI   C3A 8537  13.747  13.742   8.867  0.0964 -0.0544  0.0721
  534loPI   C4A 8538  13.736  13.684   8.423 -0.2460  0.2434 -0.0816
  534loPI   C5A 8539  13.718  13.353   8.052  0.0151  0.2499  0.1509
  534loPI   C6A 8540  13.421  13.344   7.758  0.2672  0.1301  0.0363
  534loPI   C1B 8541  13.589  14.271   9.466 -0.0486  0.3089 -0.3972
  534loPI   C2B 8542  13.789  14.205   9.080 -0.1027 -0.2449 -0.1598
  534loPI   C3B 8543  13.708  14.199   8.556 -0.0761  0.0428 -0.0567
  534loPI   C4B 8544  13.761  14.118   8.137 -0.0887  0.1271 -0.0987
  535loPI    C1 8545  15.101  15.218  11.002  0.0029 -0.0871  0.0759
  535loPI    C2 8546  15.054  15.521  11.258 -0.0078 -0.0999  0.0891
  535loPI    C3 8547  15.416  15.442  11.106  0.0440 -0.2351  0.2783
  535loPI   PO4 8548  14.950  15.219  10.822  0.0195  0.0537 -0.0437
  535loPI   GL1 8549  15.090  15.182  10.379  0.2931  0.0743  0.4183
  535loPI   GL2 8550  15.241  15.237  10.141 -0.0103  0.1909  0.0289
  535loPI   C1A 8551  15.327  14.769  10.330  0.2505 -0.0983 -0.0346
  535loPI   C2A 8552  15.697  14.691  10.132  0.0978  0.3732 -0.1913
  535loPI   C3A 8553  15.932  14.572   9.672 -0.1069  0.0528 -0.2053
  535loPI   C4A 8554  15.999  14.584   9.261  0.2921  0.1341 -0.1470
  535loPI   C5A 8555  16.045  14.663   8.823 -0.0814 -0.2430 -0.0168
  535loPI   C6A 8556  15.929  14.565   8.414  0.1343 -0.0062  0.0491
  535loPI   C1B 8557  15.342  14.903   9.822  0.1614 -0.0696 -0.0243
  535loPI   C2B 8558  15.147  14.846   9.441  0.0406 -0.0567  0.0948
  535loPI   C3B 8559  15.215  14.756   9.094  0.1168 -0.0737  0.1772
  535loPI   C4B 8560  15.159  14.750   8.745 -0.0879 -0.1580 -0.0966
  536loPI    C1 8561   1.464   4.939   9.747  0.0258 -0.3286  0.0096
  536loPI    C2 8562   1.448   5.120  10.103 -0.0091 -0.0073 -0.1511
  536loPI    C3 8563   1.695   4.810  10.047  0.0732  0.0061  0.1207
  536loPI   PO4 8564   1.217   4.873   9.575  0.0979 -0.0027  0.1179
  536loPI   GL1 8565   1.046   4.799   9.086 -0.1197  0.0100 -0.5062
  536loPI   GL2 8566   1.342   4.558   9.162 -0.1657  0.1133 -0.1989
  536loPI   C1A 8567   0.749   5.032   8.976  0.0554 -0.1526  0.2629
  536loPI   C2A 8568   0.348   5.146   8.743 -0.0065  0.0997 -0.0075
  536loPI   C3A 8569   0.166   5.283   8.216 -0.2281  0.0562  0.2515
  536loPI   C4A 8570   0.168   5.227   7.816 -0.4000  0.0521 -0.0407
  536loPI   C5A 8571   0.411   5.165   7.519 -0.2973 -0.0379  0.1972
  536loPI   C6A 8572   0.745   5.054   7.228 -0.0394  0.4698  0.3635
  536loPI   C1B 8573   1.138   4.589   8.689 -0.1415 -0.2872  0.0863
  536loPI   C2B 8574   1.426   4.813   8.297  0.0301  0.2101 -0.0993
  536loPI   C3B 8575   1.428   4.997   7.881 -0.1377 -0.1002  0.1732
  536loPI   C4B 8576   1.614   5.311   7.504  0.0782  0.5353  0.0970
  537loPI    C1 8577   3.318  17.953   9.755  0.2934 -0.0607 -0.1180
  537loPI    C2 8578   3.503  17.684   9.986  0.0715  0.0343  0.1763
  537loPI    C3 8579   3.510  18.071  10.085  0.0449  0.0872 -0.0236
  537loPI   PO4 8580   3.112  17.825   9.704  0.1227  0.1621 -0.1465
  537loPI   GL1 8581   2.709  17.798   9.388 -0.2311  0.0720 -0.1799
  537loPI   GL2 8582   2.576  17.569   9.186  0.0529  0.1096  0.2524
  537loPI   C1A 8583   2.796  18.046   8.902  0.3219  0.3421 -0.1990
  537loPI   C2A 8584   2.829  18.134   8.436 -0.0593 -0.2153  0.4634
  537loPI   C3A 8585   2.967  17.998   8.002 -0.3237  0.0196 -0.0068
  537loPI   C4A 8586   2.755  17.844   7.605 -0.0203 -0.1258 -0.1307
  537loPI   C5A 8587   2.417  17.679   7.507 -0.0116 -0.3111  0.0002
  537loPI   C6A 8588   2.027  17.502   7.482 -0.1119  0.0620 -0.3190
  537loPI   C1B 8589   2.727  17.259   8.831 -0.1469  0.0671 -0.0930
  537loPI   C2B 8590   2.895  17.124   8.458 -0.0541 -0.0040 -0.3176
  537loPI   C3B 8591   2.722  16.783   8.294  0.0265 -0.2160 -0.2445
  537loPI   C4B 8592   2.639  16.616   7.831  0.3022 -0.0829 -0.2937
  538loPI    C1 8593   4.434   0.515   9.620  0.0389  0.1065 -0.3647
  538loPI    C2 8594   4.182   0.220   9.523  0.0159  0.0037 -0.0049
  538loPI    C3 8595   4.562   0.206   9.402  0.0591 -0.2636  0.1541
  538loPI   PO4 8596   4.293   0.721   9.589  0.0303 -0.0546  0.1567
  538loPI   GL1 8597   4.012   0.827   9.287  0.4073  0.1624  0.0760
  538loPI   GL2 8598   4.252   0.598   9.086 -0.0228  0.0802  0.0198
  538loPI   C1A 8599   3.865   0.929   8.917  0.2426 -0.0581 -0.2462
  538loPI   C2A 8600   3.908   0.958   8.466  0.2766 -0.0160  0.0539
  538loPI   C3A 8601   4.155   0.898   8.196 -0.1237 -0.0581 -0.1812
  538loPI   C4A 8602   4.093   0.822   7.736  0.0599  0.2215  0.3802
  538loPI   C5A 8603   3.787   1.014   7.496  0.0825 -0.2606 -0.0472
  538loPI   C6A 8604   3.472   1.367   7.464  0.1992  0.3625 -0.0468
  538loPI   C1B 8605   4.467   0.964   8.938 -0.0296  0.0771  0.0758
  538loPI   C2B 8606   4.422   1.214   8.522  0.0913  0.1569  0.0456
  538loPI   C3B 8607   4.603   1.499   8.357  0.0290  0.1273  0.2777
  538loPI   C4B 8608   4.786   1.383   7.963  0.2804  0.1095  0.0566
  539loPI    C1 8609   0.247   2.699  10.067  0.0576 -0.1007 -0.1372
  539loPI    C2 8610   0.178   2.745  10.459  0.0836  0.2712 -0.1729
  539loPI    C3 8611   0.472   2.504  10.334 -0.0435  0.0070  0.0284
  539loPI   PO4 8612   0.285   2.969   9.989 -0.0343  0.1114 -0.1243
  539loPI   GL1 8613  -0.050   3.291   9.837  0.3342 -0.4593  0.1489
  539loPI   GL2 8614   0.267   3.384   9.677  0.0438 -0.1465 -0.1040
  539loPI   C1A 8615  -0.255   3.358   9.475  0.1275  0.3056  0.3151
  539loPI   C2A 8616  -0.326   3.380   9.103 -0.0785  0.0227  0.1298
  539loPI   C3A 8617  -0.414   3.361   8.681  0.3007 -0.4458  0.3195
  539loPI   C4A 8618  -0.409   3.300   8.237  0.4079 -0.0188 -0.2142
  539loPI   C5A 8619  -0.580   3.349   7.786 -0.1519 -0.0243  0.1982
  539loPI   C6A 8620  -0.788   3.518   7.554  0.0531 -0.0641 -0.1193
  539loPI   C1B 8621   0.134   3.257   9.192 -0.0365  0.3544 -0.0939
  539loPI   C2B 8622   0.115   3.367   8.678  0.2052 -0.1548 -0.1872
  539loPI   C3B 8623   0.194   3.289   8.280 -0.0526 -0.1356  0.1531
  539loPI   C4B 8624  -0.027   3.249   7.855  0.1722 -0.1538 -0.2484
  540loPI    C1 8625   9.811   2.918  10.100 -0.0309 -0.0187 -0.0455
  540loPI    C2 8626   9.976   2.896  10.463 -0.2203  0.1121  0.0503
  540loPI    C3 8627  10.202   2.844  10.137 -0.0440  0.0219  0.1851
  540loPI   PO4 8628   9.579   2.813  10.041 -0.3538 -0.3979  0.1467
  540loPI   GL1 8629   9.618   2.315   9.945  0.0625 -0.1743  0.2958
  540loPI   GL2 8630   9.894   2.531   9.833  0.0634 -0.4080  0.0591
  540loPI   C1A 8631   9.504   2.431   9.500 -0.2776 -0.0186  0.1368
  540loPI   C2A 8632   9.526   2.487   9.059 -0.1119  0.0190  0.3063
  540loPI   C3A 8633   9.444   2.562   8.598 -0.1804 -0.1810 -0.0681
  540loPI   C4A 8634   9.637   2.782   8.198  0.3947  0.1641  0.1540
  540loPI   C5A 8635  10.063   2.672   7.931 -0.0133 -0.1009 -0.0565
  540loPI   C6A 8636  10.326   2.860   7.561 -0.1664  0.2635  0.2168
  540loPI   C1B 8637  10.003   2.692   9.390 -0.1529  0.1260 -0.1343
  540loPI   C2B 8638  10.009   2.648   8.947  0.1292  0.1502  0.3964
  540loPI   C3B 8639   9.892   2.540   8.557  0.2735 -0.2424 -0.0780
  540loPI   C4B 8640  10.135   2.291   8.212 -0.1407  0.0275  0.1401
  541loPI    C1 8641  16.877  18.172  10.357 -0.2465  0.0155  0.1581
  541loPI    C2 8642  17.148  18.031  10.615 -0.1630 -0.0258  0.0484
  541loPI    C3 8643  16.966  18.380  10.688  0.1138  0.1339 -0.0080
  541loPI   PO4 8644  17.056  18.205  10.046  0.1662  0.1867 -0.4078
  541loPI   GL1 8645  16.989  18.497   9.702 -0.1008 -0.1558  0.0225
  541loPI   GL2 8646  16.724  18.573   9.659 -0.0865  0.3000 -0.4926
  541loPI   C1A 8647  17.090  18.425   9.222 -0.0226  0.3699 -0.2888
  541loPI   C2A 8648  17.015  18.305   8.823 -0.1611 -0.1837  0.0661
  541loPI   C3A 8649  17.042  18.317   8.302 -0.2399 -0.2394  0.0082
  541loPI   C4A 8650  16.868  17.963   8.088 -0.1148  0.0009 -0.3970
  541loPI   C5A 8651  16.587  17.861   7.796 -0.1584 -0.2965  0.1463
  541loPI   C6A 8652  16.216  18.130   7.670 -0.2091  0.0759 -0.0277
  541loPI   C1B 8653  16.586  18.448   9.274  0.1641  0.0972 -0.1866
  541loPI   C2B 8654  16.547  18.458   8.842 -0.0200  0.1007 -0.3191
  541loPI   C3B 8655  16.579  18.413   8.448 -0.0779 -0.1574 -0.5374
  541loPI   C4B 8656  16.591  18.343   7.996  0.2577  0.3324  0.0389
  542loPI    C1 8657   6.223  13.418  10.347 -0.1086  0.0295  0.0107
  542loPI    C2 8658   6.348  13.624  10.666 -0.0344  0.1137 -0.0721
  542loPI    C3 8659   6.006  13.416  10.683 -0.0598  0.1642  0.0433
  542loPI   PO4 8660   6.372  13.600  10.102  0.1993 -0.1797  0.1225
  542loPI   GL1 8661   6.675  13.666   9.769 -0.3037  0.1808  0.0063
  542loPI   GL2 8662   6.639  14.041   9.758  0.1172  0.0074  0.0243
  542loPI   C1A 8663   6.588  13.544   9.296 -0.1767  0.0446  0.3793
  542loPI   C2A 8664   6.429  13.608   8.960 -0.1054  0.0097 -0.1412
  542loPI   C3A 8665   6.254  13.730   8.568  0.3254 -0.1061  0.1115
  542loPI   C4A 8666   6.349  13.693   8.204 -0.0022  0.1007 -0.3662
  542loPI   C5A 8667   6.339  13.803   7.769 -0.0664  0.2531  0.1316
  542loPI   C6A 8668   6.359  13.803   7.315 -0.1376  0.2001 -0.1131
  542loPI   C1B 8669   6.690  14.143   9.346 -0.0590  0.3818 -0.1093
  542loPI   C2B 8670   6.604  14.042   8.925 -0.0645 -0.0773  0.0689
  542loPI   C3B 8671   6.832  13.881   8.531  0.0122 -0.0980  0.3115
  542loPI   C4B 8672   6.935  13.802   8.093 -0.0961 -0.0144 -0.0582
  543loPI    C1 8673   5.203   8.507   9.558  0.0847  0.1164  0.2201
  543loPI    C2 8674   4.904   8.514   9.823 -0.1356  0.0564 -0.0234
  543loPI    C3 8675   4.852   8.338   9.468  0.1769  0.0810 -0.0837
  543loPI   PO4 8676   5.285   8.809   9.530 -0.1118 -0.1139  0.3404
  543loPI   GL1 8677   5.149   9.219   9.426 -0.3417  0.1444 -0.1553
  543loPI   GL2 8678   5.362   9.281   9.681 -0.0095 -0.4100  0.0064
  543loPI   C1A 8679   5.162   9.304   9.023  0.1784 -0.0165  0.3150
  543loPI   C2A 8680   5.514   9.327   8.770 -0.1998 -0.2963 -0.0430
  543loPI   C3A 8681   5.564   9.376   8.357 -0.0560 -0.0202  0.0303
  543loPI   C4A 8682   5.734   9.219   7.901  0.2006  0.2465  0.1936
  543loPI   C5A 8683   5.474   9.423   7.584 -0.1730 -0.3510  0.1606
  543loPI   C6A 8684   5.392   9.807   7.339 -0.3393  0.4588 -0.0043
  543loPI   C1B 8685   5.546   9.485   9.397 -0.0970  0.0767 -0.0088
  543loPI   C2B 8686   5.561   9.811   9.034  0.3031  0.0922  0.0357
  543loPI   C3B 8687   5.713   9.850   8.512  0.0939  0.2736 -0.1865
  543loPI   C4B 8688   5.671   9.783   8.033 -0.0454  0.1602  0.0794
  544loPI    C1 8689   4.081   2.527   9.619 -0.0374 -0.0472  0.0706
  544loPI    C2 8690   4.016   2.669   9.988  0.0139  0.0142  0.0562
  544loPI    C3 8691   4.002   2.916   9.673  0.0804 -0.0171  0.0286
  544loPI   PO4 8692   3.971   2.345   9.579  0.1928  0.1567  0.2371
  544loPI   GL1 8693   3.722   2.114   9.376  0.0594 -0.1345  0.0724
  544loPI   GL2 8694   3.469   2.208   9.245 -0.1043  0.2452 -0.3553
  544loPI   C1A 8695   3.870   2.232   8.908 -0.0410  0.1202 -0.1216
  544loPI   C2A 8696   3.961   2.347   8.428 -0.0498  0.1399 -0.1136
  544loPI   C3A 8697   3.865   2.410   8.055  0.2596 -0.2150  0.3175
  544loPI   C4A 8698   3.978   2.172   7.734  0.1283  0.1061 -0.0303
  544loPI   C5A 8699   4.084   1.942   7.450  0.0508  0.1331  0.0315
  544loPI   C6A 8700   3.986   1.537   7.539 -0.2102 -0.0065  0.1154
  544loPI   C1B 8701   3.402   1.928   8.883  0.0147  0.0496 -0.0910
  544loPI   C2B 8702   3.276   1.790   8.476 -0.0762  0.0578  0.1695
  544loPI   C3B 8703   3.205   2.060   8.099  0.3138 -0.1154 -0.0595
  544loPI   C4B 8704   2.932   2.263   7.790 -0.1661  0.2016 -0.2100
  545loPI    C1 8705  17.362   8.984  10.214 -0.1151 -0.2137  0.1113
  545loPI    C2 8706  17.312   9.094  10.596 -0.0433  0.0618  0.0435
  545loPI    C3 8707  17.677   9.005  10.459  0.0198  0.5202 -0.1019
  545loPI   PO4 8708  17.152   8.833  10.140 -0.0120  0.3274  0.1426
  545loPI   GL1 8709  17.109   8.696   9.682 -0.2023 -0.1846  0.2158
  545loPI   GL2 8710  17.267   8.494   9.556 -0.2798  0.0387 -0.2746
  545loPI   C1A 8711  17.253   8.981   9.363  0.2037  0.1750  0.0229
  545loPI   C2A 8712  17.128   9.147   9.010  0.2585  0.2356  0.0885
  545loPI   C3A 8713  17.042   9.260   8.548  0.2576  0.0845 -0.1463
  545loPI   C4A 8714  16.704   9.023   8.402  0.0971 -0.1152 -0.2561
  545loPI   C5A 8715  16.512   8.770   8.027  0.1989 -0.0241  0.2397
  545loPI   C6A 8716  16.350   8.611   7.667 -0.1782 -0.0899 -0.0521
  545loPI   C1B 8717  17.400   8.458   9.099 -0.3531  0.4010  0.1156
  545loPI   C2B 8718  17.438   8.584   8.741 -0.0447 -0.1840 -0.1373
  545loPI   C3B 8719  17.491   8.537   8.323  0.0859 -0.0654 -0.1174
  545loPI   C4B 8720  17.551   8.481   7.950  0.0755 -0.0907 -0.0528
  546loPI    C1 8721   6.543  13.116  10.151 -0.0138  0.1723 -0.0285
  546loPI    C2 8722   6.497  12.737  10.273  0.1762  0.1873  0.0928
  546loPI    C3 8723   6.580  13.025  10.539  0.1480  0.2951 -0.0141
  546loPI   PO4 8724   6.544  13.088   9.934 -0.3095  0.0055  0.4172
  546loPI   GL1 8725   6.666  13.109   9.585 -0.1449 -0.0125 -0.0625
  546loPI   GL2 8726   6.893  12.786   9.703  0.0053  0.0092 -0.1689
  546loPI   C1A 8727   6.730  13.080   9.187  0.0194 -0.2245  0.1606
  546loPI   C2A 8728   6.886  13.242   8.803  0.2316 -0.1416  0.1585
  546loPI   C3A 8729   6.736  13.410   8.384  0.2938  0.1064 -0.0786
  546loPI   C4A 8730   6.490  13.252   8.002  0.0890 -0.1929 -0.1221
  546loPI   C5A 8731   6.464  12.893   7.786 -0.0131 -0.0263 -0.1963
  546loPI   C6A 8732   6.696  12.548   7.502  0.1633 -0.1997  0.1555
  546loPI   C1B 8733   7.001  12.638   9.335  0.3103  0.0166 -0.1299
  546loPI   C2B 8734   7.316  12.359   9.116 -0.4147  0.0888 -0.4179
  546loPI   C3B 8735   7.271  12.092   8.689 -0.3023  0.0865  0.3451
  546loPI   C4B 8736   7.271  11.965   8.345  0.1106  0.1168 -0.0075
  547loPI    C1 8737  16.784   4.945  10.585  0.1634 -0.1848 -0.1281
  547loPI    C2 8738  16.971   5.232  10.791 -0.2091 -0.0452  0.0238
  547loPI    C3 8739  17.017   4.849  10.896  0.0338 -0.0186  0.0218
  547loPI   PO4 8740  16.803   4.978  10.289  0.0411  0.2087  0.0849
  547loPI   GL1 8741  16.483   4.698  10.079  0.0804 -0.1576  0.1046
  547loPI   GL2 8742  16.703   4.464  10.024  0.0434 -0.0840  0.0815
  547loPI   C1A 8743  16.418   4.962   9.748  0.0176  0.0436 -0.0393
  547loPI   C2A 8744  16.365   5.129   9.358 -0.1920  0.0102 -0.0998
  547loPI   C3A 8745  16.237   5.066   8.963  0.0631 -0.2577  0.1059
  547loPI   C4A 8746  16.218   5.096   8.564 -0.2248  0.3370  0.0053
  547loPI   C5A 8747  16.081   5.045   8.092 -0.0944 -0.4084 -0.0079
  547loPI   C6A 8748  15.985   4.975   7.757 -0.0111  0.1218 -0.0152
  547loPI   C1B 8749  16.663   4.478   9.582  0.1591 -0.0619 -0.2387
  547loPI   C2B 8750  16.455   4.652   9.206 -0.0822  0.1639 -0.2672
  547loPI   C3B 8751  16.479   4.652   8.751  0.1275 -0.2050  0.0124
  547loPI   C4B 8752  16.330   4.639   8.386 -0.1301 -0.0009  0.1696
  548loPI    C1 8753  15.397   4.606  10.398 -0.0421  0.0572  0.1317
  548loPI    C2 8754  15.083   4.812  10.259 -0.0506 -0.0008  0.0640
  548loPI    C3 8755  15.071   4.653  10.626  0.0070  0.2298  0.1677
  548loPI   PO4 8756  15.610   4.781  10.345 -0.2988 -0.2383  0.2360
  548loPI   GL1 8757  15.969   4.824  10.122  0.0868  0.2432 -0.2786
  548loPI   GL2 8758  16.044   5.188  10.016 -0.1583 -0.4331 -0.0214
  548loPI   C1A 8759  15.970   4.678   9.727 -0.0690  0.0928 -0.2780
  548loPI   C2A 8760  15.946   4.663   9.242  0.0773  0.4053  0.0417
  548loPI   C3A 8761  15.921   4.734   8.763  0.2095  0.0994  0.1427
  548loPI   C4A 8762  15.834   4.620   8.266 -0.1565  0.1972  0.0602
  548loPI   C5A 8763  16.136   4.516   7.905 -0.1441  0.1285  0.1022
  548loPI   C6A 8764  16.101   4.547   7.554 -0.0490  0.2040 -0.2022
  548loPI   C1B 8765  16.024   5.473   9.661  0.1936  0.0446  0.3006
  548loPI   C2B 8766  16.035   5.521   9.172  0.0709  0.2479 -0.1171
  548loPI   C3B 8767  16.030   5.608   8.699 -0.0730  0.0357  0.1803
  548loPI   C4B 8768  15.880   5.433   8.271  0.0021  0.0805 -0.1102
  549loPI    C1 8769  15.267  18.142  10.879 -0.0917  0.0710 -0.1089
  549loPI    C2 8770  15.635  17.999  10.815 -0.1301 -0.0314 -0.1030
  549loPI    C3 8771  15.407  17.842  11.103 -0.2466 -0.0920 -0.2274
  549loPI   PO4 8772  15.143  18.192  10.606  0.0056 -0.1450 -0.0199
  549loPI   GL1 8773  14.899  18.153  10.293  0.0070  0.0131 -0.1580
  549loPI   GL2 8774  15.097  17.952  10.067  0.1928 -0.2388  0.1106
  549loPI   C1A 8775  14.623  18.145   9.900 -0.1239 -0.5823  0.1491
  549loPI   C2A 8776  14.602  18.482   9.659 -0.1142  0.1755  0.1721
  549loPI   C3A 8777  14.643  18.850   9.481 -0.1673  0.0015 -0.2956
  549loPI   C4A 8778  14.879  19.121   9.170 -0.0477  0.1441  0.2405
  549loPI   C5A 8779  15.272  19.057   9.006 -0.1664  0.4381  0.1614
  549loPI   C6A 8780  15.632  18.744   9.049  0.1455 -0.1599  0.2490
  549loPI   C1B 8781  15.029  18.025   9.595 -0.0756  0.0779 -0.0403
  549loPI   C2B 8782  14.848  18.326   9.261  0.2035 -0.0771 -0.1133
  549loPI   C3B 8783  14.716  18.684   9.036  0.2331  0.0610 -0.2651
  549loPI   C4B 8784  14.951  18.830   8.642 -0.2316 -0.0763  0.1030
  550loPI    C1 8785  11.468  17.936  10.812  0.0918 -0.0003  0.0084
  550loPI    C2 8786  11.573  17.551  10.827  0.2558  0.0483  0.1363
  550loPI    C3 8787  11.477  17.745  11.163 -0.2718  0.0005  0.0218
  550loPI   PO4 8788  11.555  18.036  10.662  0.0294 -0.1707  0.1174
  550loPI   GL1 8789  11.375  18.134  10.340  0.0611 -0.0692 -0.0576
  550loPI   GL2 8790  11.545  18.231  10.020 -0.0234  0.0120 -0.1191
  550loPI   C1A 8791  11.235  17.910   9.920 -0.0201 -0.0460 -0.0745
  550loPI   C2A 8792  10.904  17.951   9.594 -0.2279 -0.1827 -0.1954
  550loPI   C3A 8793  10.725  18.193   9.185  0.1607  0.0379 -0.0817
  550loPI   C4A 8794  10.786  18.536   8.815  0.0622 -0.1937  0.1589
  550loPI   C5A 8795  10.572  18.741   8.552  0.1304  0.0741  0.3299
  550loPI   C6A 8796  10.272  18.748   8.208  0.2536 -0.0944  0.1046
  550loPI   C1B 8797  11.493  18.184   9.573  0.1350 -0.1886  0.0984
  550loPI   C2B 8798  11.690  18.125   9.221  0.0368 -0.1240  0.1840
  550loPI   C3B 8799  11.456  17.902   8.888  0.2163  0.1077 -0.0780
  550loPI   C4B 8800  11.630  17.546   8.674 -0.1185  0.1922  0.2440
  551loPI    C1 8801  10.757  12.952  10.837  0.1318  0.0828 -0.1283
  551loPI    C2 8802  10.739  13.121  11.199  0.0874  0.0406 -0.1106
  551loPI    C3 8803  10.478  12.836  11.099  0.0021  0.1599 -0.2313
  551loPI   PO4 8804  10.764  13.127  10.655 -0.1954 -0.0606  0.1664
  551loPI   GL1 8805  10.645  13.033  10.178 -0.1661 -0.2656 -0.5370
  551loPI   GL2 8806  10.947  12.814  10.324 -0.0730 -0.0903 -0.0991
  551loPI   C1A 8807  10.683  13.010   9.801 -0.2511  0.2008 -0.0015
  551loPI   C2A 8808  10.754  13.015   9.364 -0.2622  0.0506 -0.0337
  551loPI   C3A 8809  10.636  12.845   8.972 -0.2001  0.0858 -0.1331
  551loPI   C4A 8810  10.713  12.814   8.485 -0.0595  0.0303  0.2277
  551loPI   C5A 8811  10.881  13.225   8.229 -0.0868  0.2045  0.1627
  551loPI   C6A 8812  11.241  13.612   8.351 -0.2264  0.0363 -0.2622
  551loPI   C1B 8813  11.098  12.639   9.870 -0.0056 -0.0895 -0.0978
  551loPI   C2B 8814  11.094  12.590   9.519 -0.0429  0.1676 -0.0458
  551loPI   C3B 8815  11.068  12.620   9.135 -0.1911 -0.0201 -0.1621
  551loPI   C4B 8816  11.194  12.628   8.638 -0.1098 -0.1495  0.0980
  552loPI    C1 8817   8.226  15.668  10.526  0.0422 -0.0685 -0.0944
  552loPI    C2 8818   7.915  15.718  10.772  0.1078 -0.0483 -0.0150
  552loPI    C3 8819   8.215  15.475  10.876  0.1080 -0.0856 -0.1016
  552loPI   PO4 8820   8.127  15.715  10.249 -0.1311 -0.2343  0.1913
  552loPI   GL1 8821   8.223  15.591   9.802  0.1233  0.2530 -0.0850
  552loPI   GL2 8822   8.179  15.950   9.826 -0.0678  0.1835  0.0008
  552loPI   C1A 8823   8.061  15.419   9.379 -0.2721 -0.0730  0.3065
  552loPI   C2A 8824   8.079  15.360   8.896  0.1475 -0.1018  0.1957
  552loPI   C3A 8825   8.006  15.383   8.449 -0.0330 -0.1553 -0.1838
  552loPI   C4A 8826   8.070  15.364   8.094  0.0835 -0.0744  0.3371
  552loPI   C5A 8827   8.137  15.466   7.644  0.2231  0.3632  0.0079
  552loPI   C6A 8828   7.915  15.686   7.327 -0.2925 -0.0043  0.1582
  552loPI   C1B 8829   8.404  15.874   9.395 -0.0252  0.1083  0.0281
  552loPI   C2B 8830   8.328  15.751   8.989  0.2878  0.0758  0.1962
  552loPI   C3B 8831   8.408  15.813   8.623  0.1020 -0.2737 -0.0624
  552loPI   C4B 8832   8.340  15.796   8.186 -0.3064 -0.0807  0.3438
  553loPI    C1 8833   0.172   7.029  10.061 -0.0694  0.0704  0.0530
  553loPI    C2 8834   0.192   7.124  10.449 -0.0613 -0.0115  0.0728
  553loPI    C3 8835   0.527   7.048  10.244 -0.0569  0.1416  0.0218
  553loPI   PO4 8836  -0.038   7.186   9.830  0.2953  0.1342 -0.0440
  553loPI   GL1 8837  -0.175   7.386   9.526 -0.0083 -0.0730  0.1472
  553loPI   GL2 8838   0.022   7.550   9.364 -0.0124  0.2574 -0.0384
  553loPI   C1A 8839  -0.365   7.369   9.140 -0.0343  0.1042 -0.0512
  553loPI   C2A 8840  -0.664   7.599   8.876  0.1767 -0.0373  0.0413
  553loPI   C3A 8841  -0.982   7.700   8.620  0.1322  0.1810  0.0355
  553loPI   C4A 8842  -1.123   7.559   8.223  0.3806  0.0413 -0.0412
  553loPI   C5A 8843  -1.554   7.590   7.981 -0.2287  0.2002  0.1051
  553loPI   C6A 8844  -1.736   7.452   7.544 -0.3355 -0.2525  0.2586
  553loPI   C1B 8845   0.159   7.466   8.948 -0.2451 -0.3355 -0.2589
  553loPI   C2B 8846   0.105   7.467   8.508  0.1455  0.2222 -0.3343
  553loPI   C3B 8847  -0.023   7.087   8.230  0.1686 -0.0111 -0.1833
  553loPI   C4B 8848  -0.120   7.131   7.783  0.2196  0.0190 -0.0881
  554loPI    C1 8849   2.757   1.777  10.040 -0.1511 -0.1756  0.0018
  554loPI    C2 8850   2.921   1.487   9.818 -0.1264 -0.0586 -0.1337
  554loPI    C3 8851   3.128   1.649  10.119 -0.1007 -0.1091 -0.1241
  554loPI   PO4 8852   2.629   1.920   9.875  0.1129  0.0513  0.1232
  554loPI   GL1 8853   2.623   1.851   9.441 -0.2194 -0.1649 -0.0447
  554loPI   GL2 8854   2.230   1.863   9.505  0.2620 -0.0239  0.0651
  554loPI   C1A 8855   2.809   1.894   9.099 -0.1632 -0.2163  0.2231
  554loPI   C2A 8856   3.058   1.545   8.947 -0.0668 -0.0048 -0.1234
  554loPI   C3A 8857   3.111   1.297   8.681 -0.2254  0.0976 -0.2175
  554loPI   C4A 8858   3.203   1.033   8.390 -0.0522 -0.0315 -0.3399
  554loPI   C5A 8859   3.561   1.046   8.063  0.0325  0.1699  0.2117
  554loPI   C6A 8860   3.708   1.312   7.883  0.0131 -0.1316  0.3171
  554loPI   C1B 8861   2.317   1.616   9.133  0.0039  0.2071 -0.3022
  554loPI   C2B 8862   2.648   1.239   8.891  0.0033  0.1438  0.2925
  554loPI   C3B 8863   2.653   1.087   8.424  0.0826  0.0131 -0.2274
  554loPI   C4B 8864   2.647   1.255   7.983  0.0952  0.0795 -0.0227
  555loPI    C1 8865   1.157   6.117   9.723  0.1468  0.2358 -0.2872
  555loPI    C2 8866   1.237   5.958  10.081 -0.0915  0.0267 -0.3239
  555loPI    C3 8867   1.069   6.321  10.056  0.0782  0.1130 -0.2296
  555loPI   PO4 8868   1.092   5.896   9.562  0.0924  0.0118  0.2538
  555loPI   GL1 8869   1.108   5.793   9.073  0.2483 -0.2280 -0.1776
  555loPI   GL2 8870   1.333   5.680   9.208  0.0979  0.2216  0.2511
  555loPI   C1A 8871   1.080   5.388   8.886  0.1311  0.2602 -0.1351
  555loPI   C2A 8872   0.856   5.111   8.518  0.0971  0.1795 -0.2348
  555loPI   C3A 8873   0.607   5.101   8.174 -0.1270 -0.1173 -0.1715
  555loPI   C4A 8874   0.506   4.838   7.916  0.2955  0.0084 -0.0488
  555loPI   C5A 8875   0.414   4.683   7.443 -0.3916  0.1031 -0.1332
  555loPI   C6A 8876   0.136   4.992   7.086  0.2413  0.1598  0.0724
  555loPI   C1B 8877   1.436   5.727   8.688 -0.0436 -0.0739 -0.1054
  555loPI   C2B 8878   1.486   5.822   8.256  0.0556 -0.0482 -0.1992
  555loPI   C3B 8879   1.511   5.709   7.811  0.0228 -0.0522  0.1799
  555loPI   C4B 8880   1.830   5.857   7.521 -0.2575 -0.1320 -0.1043
  556loPI    C1 8881  17.152  10.095  10.003 -0.1620 -0.1055 -0.0032
  556loPI    C2 8882  17.213   9.700  10.016  0.1929 -0.0553 -0.0496
  556loPI    C3 8883  17.191   9.910  10.356 -0.3844 -0.1654 -0.0082
  556loPI   PO4 8884  17.364  10.245   9.926 -0.0462 -0.0461 -0.3464
  556loPI   GL1 8885  17.424  10.294   9.538 -0.0140  0.1379  0.1481
  556loPI   GL2 8886  17.628  10.017   9.488 -0.1738 -0.1161  0.1767
  556loPI   C1A 8887  17.054  10.165   9.315 -0.2501  0.4189 -0.2728
  556loPI   C2A 8888  16.793   9.955   9.060  0.1023 -0.3493  0.3403
  556loPI   C3A 8889  16.718  10.043   8.626  0.0894 -0.0731 -0.0047
  556loPI   C4A 8890  16.701  10.075   8.290 -0.1027  0.2049  0.0203
  556loPI   C5A 8891  16.641   9.924   7.776 -0.3513  0.1600 -0.0723
  556loPI   C6A 8892  16.883   9.762   7.481  0.2140  0.1083  0.0267
  556loPI   C1B 8893  17.583   9.982   9.013 -0.0116 -0.1330  0.0118
  556loPI   C2B 8894  17.205  10.151   8.853  0.0802 -0.1184 -0.1204
  556loPI   C3B 8895  17.238  10.303   8.413  0.4298 -0.0408 -0.2882
  556loPI   C4B 8896  17.269  10.249   8.064  0.0775 -0.1807  0.1354
  557loPI    C1 8897  16.411   3.060  10.488  0.0441 -0.2263  0.0634
  557loPI    C2 8898  16.737   3.224  10.652 -0.0196  0.0135 -0.0456
  557loPI    C3 8899  16.473   3.030  10.882 -0.0177  0.1909  0.1093
  557loPI   PO4 8900  16.460   2.991  10.259  0.0971 -0.1031  0.0159
  557loPI   GL1 8901  16.258   2.830   9.895  0.0744  0.0588 -0.1494
  557loPI   GL2 8902  16.056   2.613   9.772 -0.0589  0.3657 -0.1797
  557loPI   C1A 8903  16.288   2.936   9.423 -0.0325  0.0047  0.3972
  557loPI   C2A 8904  16.305   2.933   9.065 -0.2717 -0.1061 -0.1339
  557loPI   C3A 8905  16.218   2.831   8.636  0.0689  0.1265  0.0541
  557loPI   C4A 8906  16.251   2.824   8.181 -0.2257 -0.0419  0.0360
  557loPI   C5A 8907  16.473   2.929   7.851  0.0820 -0.1816  0.0227
  557loPI   C6A 8908  16.794   3.309   7.851  0.1540  0.1603  0.1812
  557loPI   C1B 8909  15.946   2.524   9.375  0.1660 -0.0755 -0.0483
  557loPI   C2B 8910  16.012   2.410   8.901  0.2225  0.0436  0.0253
  557loPI   C3B 8911  15.882   2.467   8.418 -0.2814 -0.2566 -0.1086
  557loPI   C4B 8912  16.072   2.401   7.960 -0.0958  0.1919  0.1713
  558loPI    C1 8913  12.884   5.532  10.302 -0.0135  0.3691  0.2753
  558loPI    C2 8914  12.523   5.412  10.179  0.1071 -0.0620  0.3283
  558loPI    C3 8915  12.557   5.641  10.505 -0.1192 -0.0055  0.3137
  558loPI   PO4 8916  13.023   5.539  10.060  0.1267  0.1077 -0.0373
  558loPI   GL1 8917  13.101   5.279   9.725 -0.1133  0.1617 -0.0344
  558loPI   GL2 8918  12.808   5.289   9.691  0.1842 -0.1285  0.2307
  558loPI   C1A 8919  13.394   5.127   9.360 -0.0034  0.2233  0.0958
  558loPI   C2A 8920  13.308   4.950   9.078 -0.2628  0.0385 -0.0228
  558loPI   C3A 8921  13.325   4.987   8.652 -0.1958 -0.5736  0.0368
  558loPI   C4A 8922  13.419   4.946   8.251  0.0362 -0.2269  0.0800
  558loPI   C5A 8923  13.539   4.728   7.866 -0.0749 -0.0629 -0.1232
  558loPI   C6A 8924  13.718   4.679   7.499 -0.1999 -0.0068 -0.0352
  558loPI   C1B 8925  12.895   5.150   9.299  0.2663  0.0460 -0.5192
  558loPI   C2B 8926  12.856   4.985   8.979  0.0572  0.0749 -0.2690
  558loPI   C3B 8927  12.813   5.112   8.617  0.0301  0.0949 -0.0691
  558loPI   C4B 8928  13.011   5.152   8.284 -0.0867  0.1503 -0.1016
  559loPI    C1 8929   1.088  10.196  10.008 -0.1438  0.1775 -0.2801
  559loPI    C2 8930   0.923  10.408  10.305 -0.1136 -0.1450 -0.0266
  559loPI    C3 8931   1.293  10.494  10.180 -0.1401  0.0157  0.0029
  559loPI   PO4 8932   0.995  10.314   9.766  0.0607 -0.1465  0.4086
  559loPI   GL1 8933   1.173  10.276   9.369 -0.4186  0.0578 -0.2833
  559loPI   GL2 8934   0.965  10.058   9.338 -0.1572 -0.0706  0.0668
  559loPI   C1A 8935   1.350  10.593   9.091  0.3220 -0.2110  0.1232
  559loPI   C2A 8936   1.193  10.990   8.886  0.0768  0.1365  0.1955
  559loPI   C3A 8937   1.295  11.032   8.585  0.2067 -0.1570 -0.2201
  559loPI   C4A 8938   1.201  10.844   8.064 -0.2397 -0.2353 -0.1639
  559loPI   C5A 8939   0.916  10.937   7.798  0.1080  0.4259  0.1313
  559loPI   C6A 8940   0.901  10.953   7.340 -0.0423 -0.0999  0.0599
  559loPI   C1B 8941   0.920  10.118   8.917 -0.1678  0.3266  0.2236
  559loPI   C2B 8942   0.790  10.210   8.530  0.3960  0.0266  0.0052
  559loPI   C3B 8943   0.847  10.098   8.076 -0.0148 -0.0064  0.0640
  559loPI   C4B 8944   0.553  10.169   7.808  0.2677 -0.0045 -0.0135
  560loPI    C1 8945  12.990  12.427  10.966 -0.1876 -0.0043 -0.1941
  560loPI    C2 8946  12.596  12.467  11.024 -0.1660 -0.1290  0.0554
  560loPI    C3 8947  12.851  12.553  11.320 -0.0132 -0.1909 -0.0567
  560loPI   PO4 8948  13.075  12.351  10.760 -0.1594 -0.2970  0.0313
  560loPI   GL1 8949  13.257  12.288  10.342 -0.1135  0.0389 -0.0445
  560loPI   GL2 8950  13.384  12.068  10.164  0.0805 -0.3109  0.3712
  560loPI   C1A 8951  13.106  12.386   9.880  0.2485 -0.3184  0.0856
  560loPI   C2A 8952  12.969  12.535   9.441 -0.2007 -0.0226 -0.2299
  560loPI   C3A 8953  12.999  12.414   9.059 -0.0580 -0.0689 -0.0116
  560loPI   C4A 8954  12.963  12.418   8.604 -0.1336  0.1585  0.0008
  560loPI   C5A 8955  13.090  12.610   8.232 -0.3830  0.0364 -0.0967
  560loPI   C6A 8956  12.971  12.555   7.787  0.0864  0.0515  0.3502
  560loPI   C1B 8957  13.489  12.081   9.727  0.0281  0.1491  0.1078
  560loPI   C2B 8958  13.415  12.201   9.304 -0.0532  0.0376  0.0351
  560loPI   C3B 8959  13.442  12.157   8.770  0.3143 -0.1199  0.1211
  560loPI   C4B 8960  13.245  12.093   8.341  0.2867  0.0665 -0.0226
  561loPI    C1 8961   8.167  13.274  10.729 -0.0818  0.0538 -0.0917
  561loPI    C2 8962   8.192  13.526  11.038 -0.0959  0.1827 -0.1951
  561loPI    C3 8963   7.892  13.262  11.019  0.0753 -0.0347  0.0557
  561loPI   PO4 8964   8.223  13.449  10.450 -0.0394 -0.1918  0.1262
  561loPI   GL1 8965   8.311  13.323  10.086  0.0324  0.0145  0.2004
  561loPI   GL2 8966   8.452  13.078   9.959 -0.0291 -0.0860  0.1327
  561loPI   C1A 8967   8.064  13.563   9.774  0.0263  0.2619 -0.0524
  561loPI   C2A 8968   8.016  13.677   9.414  0.0460 -0.3315 -0.0863
  561loPI   C3A 8969   8.100  13.928   9.019  0.0837 -0.3204 -0.2135
  561loPI   C4A 8970   8.172  13.940   8.647 -0.4379 -0.0355 -0.0271
  561loPI   C5A 8971   8.191  13.871   8.297  0.0092 -0.2341 -0.0592
  561loPI   C6A 8972   8.185  13.979   7.867 -0.4255 -0.1325 -0.0345
  561loPI   C1B 8973   8.509  13.041   9.563 -0.0151 -0.0368 -0.0566
  561loPI   C2B 8974   8.333  13.307   9.369  0.0349 -0.4732 -0.1616
  561loPI   C3B 8975   8.237  13.421   8.971 -0.0167  0.0694 -0.2763
  561loPI   C4B 8976   8.112  13.435   8.535  0.2387 -0.2862 -0.0150
  562loPI    C1 8977   9.277  11.362  10.803  0.2904  0.0384 -0.1409
  562loPI    C2 8978   9.496  11.332  11.136  0.1607 -0.2124 -0.0755
  562loPI    C3 8979   9.272  11.023  11.016 -0.2393  0.0730 -0.0841
  562loPI   PO4 8980   9.524  11.379  10.598 -0.0128  0.1611  0.1472
  562loPI   GL1 8981   9.693  11.581  10.236  0.2661  0.0138  0.1645
  562loPI   GL2 8982   9.519  11.342   9.960  0.3376  0.0929  0.1908
  562loPI   C1A 8983   9.925  11.774   9.887  0.1347 -0.0102  0.0859
  562loPI   C2A 8984   9.836  11.867   9.464 -0.1706  0.3236  0.2703
  562loPI   C3A 8985   9.823  12.144   9.102 -0.1628  0.0856 -0.0893
  562loPI   C4A 8986   9.968  12.162   8.757 -0.0038 -0.0090  0.0694
  562loPI   C5A 8987  10.292  12.208   8.531 -0.0295  0.1791  0.2653
  562loPI   C6A 8988  10.495  12.334   8.161 -0.2696  0.0224  0.0387
  562loPI   C1B 8989   9.509  11.524   9.628 -0.3319  0.0068 -0.1806
  562loPI   C2B 8990   9.449  11.553   9.232  0.0586  0.0462 -0.0491
  562loPI   C3B 8991   9.681  11.695   8.775 -0.1628 -0.1125 -0.0180
  562loPI   C4B 8992   9.635  12.136   8.389 -0.1440 -0.0121  0.0759
  563loPI    C1 8993   9.296  13.895  11.039 -0.0856  0.1845  0.0026
  563loPI    C2 8994   9.443  13.533  10.950 -0.1783  0.1849 -0.1569
  563loPI    C3 8995   9.059  13.573  11.056 -0.0796  0.1898  0.2137
  563loPI   PO4 8996   9.365  14.000  10.746 -0.1071 -0.0108  0.3690
  563loPI   GL1 8997   9.513  13.629  10.372  0.0805  0.2331 -0.1136
  563loPI   GL2 8998   9.429  13.293  10.316 -0.0720 -0.2374 -0.0584
  563loPI   C1A 8999   9.795  13.721  10.028 -0.2496 -0.0406 -0.0807
  563loPI   C2A 9000   9.917  13.737   9.580 -0.0233 -0.0939  0.0482
  563loPI   C3A 9001   9.926  13.748   9.193 -0.0252 -0.1018 -0.0396
  563loPI   C4A 9002  10.100  13.576   8.876 -0.0162  0.0638  0.3710
  563loPI   C5A 9003   9.976  13.698   8.546  0.2689 -0.0392  0.2343
  563loPI   C6A 9004   9.874  13.722   8.063  0.4122  0.1208  0.0255
  563loPI   C1B 9005   9.597  13.221  10.004  0.0958  0.0797 -0.1284
  563loPI   C2B 9006   9.720  13.207   9.609 -0.2180  0.0440 -0.0904
  563loPI   C3B 9007   9.728  13.256   9.172  0.1904 -0.4575 -0.1790
  563loPI   C4B 9008   9.587  13.338   8.794 -0.0172  0.1802 -0.2085
  564loPI    C1 9009   3.343   3.226  10.055  0.0938 -0.0295 -0.2795
  564loPI    C2 9010   3.577   3.549  10.020  0.0996 -0.0202 -0.1599
  564loPI    C3 9011   3.520   3.381  10.379  0.2064 -0.2342 -0.2408
  564loPI   PO4 9012   3.357   3.014   9.800 -0.0581  0.1558 -0.3215
  564loPI   GL1 9013   3.067   2.674   9.663  0.0801  0.1340 -0.1654
  564loPI   GL2 9014   2.913   2.907   9.571 -0.2569 -0.0694 -0.2058
  564loPI   C1A 9015   3.207   2.730   9.198 -0.2559  0.2222 -0.0957
  564loPI   C2A 9016   3.073   2.320   9.030  0.0681 -0.1721 -0.0955
  564loPI   C3A 9017   2.914   2.200   8.617  0.1813  0.1118 -0.0485
  564loPI   C4A 9018   2.702   2.117   8.228 -0.2675 -0.0776 -0.0754
  564loPI   C5A 9019   2.246   2.105   8.270 -0.3858  0.1762 -0.3174
  564loPI   C6A 9020   2.024   2.013   8.625 -0.1153  0.2437 -0.0646
  564loPI   C1B 9021   2.739   2.816   9.243 -0.0373  0.3106  0.1434
  564loPI   C2B 9022   2.799   2.674   8.829  0.0490 -0.0910 -0.0079
  564loPI   C3B 9023   3.221   2.613   8.668  0.0591 -0.2062  0.0052
  564loPI   C4B 9024   3.488   2.282   8.500 -0.1602 -0.2338 -0.1220
  565loPI    C1 9025   2.651   4.572   9.961  0.2063  0.0222 -0.0786
  565loPI    C2 9026   2.463   4.462  10.297 -0.0585  0.2193 -0.1587
  565loPI    C3 9027   2.781   4.704  10.315  0.1854 -0.1036 -0.0233
  565loPI   PO4 9028   2.677   4.390   9.790 -0.0502 -0.1181  0.0013
  565loPI   GL1 9029   2.502   4.505   9.442  0.0810 -0.1401 -0.1615
  565loPI   GL2 9030   2.656   4.697   9.231 -0.0978  0.3729  0.2918
  565loPI   C1A 9031   2.400   4.335   9.002  0.4105 -0.1173 -0.0203
  565loPI   C2A 9032   2.483   4.432   8.567  0.2343  0.0976 -0.2485
  565loPI   C3A 9033   2.628   4.374   8.180  0.1549  0.0305 -0.0875
  565loPI   C4A 9034   2.548   4.198   7.736 -0.2970  0.0630  0.0517
  565loPI   C5A 9035   2.651   4.372   7.287  0.1734 -0.2087  0.0193
  565loPI   C6A 9036   2.482   4.701   6.977  0.1888  0.0335  0.2053
  565loPI   C1B 9037   2.657   4.955   8.850 -0.0097 -0.0320  0.0523
  565loPI   C2B 9038   2.806   5.206   8.547  0.1691 -0.2012 -0.0166
  565loPI   C3B 9039   2.760   5.425   8.202 -0.2172 -0.0124 -0.2706
  565loPI   C4B 9040   2.514   5.594   8.022  0.0066  0.2366 -0.0188
  566loPI    C1 9041   9.930   1.446  10.396 -0.0665  0.0584 -0.0439
  566loPI    C2 9042  10.191   1.654  10.615  0.0962 -0.1170 -0.0682
  566loPI    C3 9043   9.799   1.688  10.685  0.1279  0.0966  0.0136
  566loPI   PO4 9044  10.104   1.468  10.196  0.1214 -0.1156  0.4409
  566loPI   GL1 9045  10.177   1.579   9.919  0.1922  0.0766  0.1944
  566loPI   GL2 9046  10.444   1.864   9.753 -0.4503  0.0409 -0.4657
  566loPI   C1A 9047  10.106   1.638   9.460 -0.3452  0.1239 -0.3225
  566loPI   C2A 9048  10.292   1.626   9.057  0.0806 -0.0276  0.2305
  566loPI   C3A 9049  10.382   1.605   8.608 -0.0698 -0.1814  0.2007
  566loPI   C4A 9050  10.226   1.833   8.300  0.0706  0.2082  0.1390
  566loPI   C5A 9051  10.387   1.818   7.881 -0.0596 -0.1367  0.1006
  566loPI   C6A 9052  10.579   1.775   7.586  0.1068 -0.2291  0.2277
  566loPI   C1B 9053  10.607   1.963   9.265 -0.2443 -0.1072  0.0002
  566loPI   C2B 9054  10.768   1.847   8.894 -0.0322 -0.0450  0.1230
  566loPI   C3B 9055  10.964   1.906   8.598 -0.3109  0.1658 -0.0952
  566loPI   C4B 9056  10.759   1.756   8.250  0.0326 -0.0018 -0.2945
  567loPI    C1 9057   1.661   9.040   9.976  0.0993  0.0226  0.1542
  567loPI    C2 9058   1.994   9.148   9.781  0.0107  0.0705  0.0281
  567loPI    C3 9059   1.929   9.278  10.154  0.2769 -0.1843  0.1670
  567loPI   PO4 9060   1.508   9.046   9.762 -0.1241 -0.2964 -0.2448
  567loPI   GL1 9061   1.238   9.126   9.458 -0.1883 -0.2973 -0.2869
  567loPI   GL2 9062   0.973   9.058   9.324  0.1531  0.2455 -0.4924
  567loPI   C1A 9063   1.365   8.986   9.061  0.0248  0.1881  0.0973
  567loPI   C2A 9064   1.294   8.853   8.621 -0.3869 -0.0039  0.1299
  567loPI   C3A 9065   1.360   8.959   8.207 -0.0488 -0.1097  0.1474
  567loPI   C4A 9066   1.389   9.180   7.843 -0.2600  0.2807 -0.1145
  567loPI   C5A 9067   1.170   9.194   7.448  0.0366  0.4833 -0.1230
  567loPI   C6A 9068   1.140   9.592   7.169  0.3380  0.0133  0.0235
  567loPI   C1B 9069   0.711   8.839   8.979 -0.0680  0.1566 -0.2404
  567loPI   C2B 9070   0.783   8.801   8.578  0.1661  0.1746  0.1476
  567loPI   C3B 9071   0.510   8.867   8.210 -0.4130 -0.0096  0.1013
  567loPI   C4B 9072   0.309   9.087   7.906  0.5393 -0.0355  0.0744
  568loPI    C1 9073   1.515   9.568  10.015  0.0319 -0.0840  0.1648
  568loPI    C2 9074   1.167   9.372   9.987  0.0278 -0.1622  0.6724
  568loPI    C3 9075   1.185   9.720  10.184  0.0068  0.4448 -0.3314
  568loPI   PO4 9076   1.630   9.592   9.813 -0.1079 -0.0610  0.1432
  568loPI   GL1 9077   1.346   9.616   9.407 -0.0023  0.0004  0.0473
  568loPI   GL2 9078   1.654   9.363   9.372 -0.1364  0.1705 -0.2567
  568loPI   C1A 9079   1.200   9.451   9.050  0.1343  0.0956  0.0722
  568loPI   C2A 9080   1.010   9.202   8.810 -0.1265  0.0075  0.0601
  568loPI   C3A 9081   0.902   9.259   8.356 -0.1626  0.2768 -0.0691
  568loPI   C4A 9082   0.862   9.154   7.858  0.2568  0.2665 -0.2523
  568loPI   C5A 9083   0.638   8.949   7.444 -0.0564 -0.0117 -0.0344
  568loPI   C6A 9084   0.550   8.693   7.098 -0.0204 -0.0359  0.1527
  568loPI   C1B 9085   1.646   9.399   8.926 -0.0676 -0.0704  0.2050
  568loPI   C2B 9086   1.480   9.329   8.564 -0.0547  0.1502 -0.0357
  568loPI   C3B 9087   1.636   9.443   8.150 -0.0965 -0.0253  0.0874
  568loPI   C4B 9088   1.736   9.675   7.721  0.0144 -0.3075 -0.1743
  569loPI    C1 9089  13.336  17.444  10.020 -0.2635 -0.0298 -0.1335
  569loPI    C2 9090  13.576  17.720   9.858 -0.0005 -0.0292  0.2441
  569loPI    C3 9091  13.178  17.759   9.830  0.0363  0.1327 -0.1185
  569loPI   PO4 9092  13.436  17.227   9.887  0.3399 -0.1685  0.3459
  569loPI   GL1 9093  13.529  17.282   9.465 -0.1403  0.2924  0.0692
  569loPI   GL2 9094  13.482  17.644   9.342 -0.0212 -0.1681 -0.0705
  569loPI   C1A 9095  13.708  17.212   9.057 -0.0667 -0.0289 -0.0381
  569loPI   C2A 9096  13.856  17.386   8.732  0.2882  0.1646  0.0652
  569loPI   C3A 9097  13.798  17.562   8.257  0.2822  0.3572  0.0706
  569loPI   C4A 9098  14.003  17.753   7.866 -0.2046 -0.2210 -0.1701
  569loPI   C5A 9099  13.873  18.144   7.558 -0.2128  0.0543  0.0132
  569loPI   C6A 9100  14.088  18.262   7.214 -0.1026 -0.3256  0.0752
  569loPI   C1B 9101  13.887  17.707   9.340 -0.1359 -0.1891 -0.0023
  569loPI   C2B 9102  14.218  17.762   9.147 -0.2190  0.0039 -0.1807
  569loPI   C3B 9103  14.602  17.669   8.809 -0.2405 -0.0162  0.0545
  569loPI   C4B 9104  14.695  17.681   8.444 -0.1342  0.2279 -0.2650
  570loPI    C1 9105  13.196   9.361  10.401 -0.0121 -0.0427  0.0154
  570loPI    C2 9106  13.003   9.160  10.688  0.1494 -0.1871  0.0242
  570loPI    C3 9107  13.382   9.276  10.744  0.1014  0.0025 -0.0344
  570loPI   PO4 9108  13.211   9.215  10.225  0.0384  0.2106  0.2647
  570loPI   GL1 9109  13.251   8.981   9.868  0.1104  0.2502  0.0135
  570loPI   GL2 9110  13.567   9.206   9.850  0.1782 -0.0750 -0.3347
  570loPI   C1A 9111  13.115   8.815   9.344  0.1945  0.1062 -0.0676
  570loPI   C2A 9112  13.143   8.940   8.974 -0.2130 -0.1034 -0.0549
  570loPI   C3A 9113  12.863   9.015   8.585 -0.1594 -0.0363  0.2465
  570loPI   C4A 9114  12.824   8.884   8.117  0.1316 -0.6983  0.2983
  570loPI   C5A 9115  12.765   8.828   7.701  0.1574 -0.2064 -0.0123
  570loPI   C6A 9116  12.555   8.693   7.225 -0.0268  0.1687 -0.0173
  570loPI   C1B 9117  13.599   9.075   9.442 -0.2144 -0.1885 -0.0012
  570loPI   C2B 9118  13.602   8.950   8.937 -0.2993  0.0892 -0.2050
  570loPI   C3B 9119  13.480   8.644   8.635 -0.2717 -0.3166  0.0182
  570loPI   C4B 9120  13.591   8.453   8.176  0.1235 -0.0802 -0.0333
  571loPI    C1 9121  11.422   1.807  10.318  0.1095 -0.2259 -0.2392
  571loPI    C2 9122  11.280   1.455  10.192 -0.1185 -0.1956 -0.0724
  571loPI    C3 9123  11.358   1.511  10.580 -0.1426 -0.0420 -0.0891
  571loPI   PO4 9124  11.291   2.044  10.207  0.1588 -0.3542 -0.0207
  571loPI   GL1 9125  11.167   2.316  10.053 -0.1587  0.3918 -0.1675
  571loPI   GL2 9126  10.830   2.064  10.050 -0.2179 -0.0640 -0.0403
  571loPI   C1A 9127  11.249   2.531   9.647  0.1482  0.2405 -0.0696
  571loPI   C2A 9128  11.315   2.186   9.358  0.1891  0.0644  0.0578
  571loPI   C3A 9129  11.393   2.153   8.884 -0.2732  0.4422 -0.1378
  571loPI   C4A 9130  11.415   2.189   8.420 -0.0809 -0.0898 -0.0975
  571loPI   C5A 9131  11.121   2.113   8.099 -0.0676  0.0737  0.0572
  571loPI   C6A 9132  10.984   2.117   7.731  0.0525 -0.3033 -0.0529
  571loPI   C1B 9133  10.968   1.984   9.646 -0.0992 -0.0888 -0.1873
  571loPI   C2B 9134  11.114   1.779   9.226 -0.1652  0.0325  0.2381
  571loPI   C3B 9135  11.220   1.524   8.971 -0.0726  0.1003  0.2837
  571loPI   C4B 9136  11.424   1.135   8.764 -0.1924  0.1395 -0.3206
  572loPI    C1 9137  10.737   9.758  10.201  0.0372 -0.1131 -0.2480
  572loPI    C2 9138  10.591   9.395  10.285 -0.0452 -0.0748 -0.2249
  572loPI    C3 9139  10.473   9.712  10.498  0.2034 -0.0693 -0.0918
  572loPI   PO4 9140  11.092   9.798  10.232  0.0522 -0.1129  0.0177
  572loPI   GL1 9141  11.276   9.762   9.898  0.0775  0.0494 -0.3798
  572loPI   GL2 9142  11.267   9.454   9.901 -0.2042  0.3249  0.1371
  572loPI   C1A 9143  11.062   9.713   9.557 -0.0281  0.1735 -0.0423
  572loPI   C2A 9144  10.902   9.318   9.347  0.0574 -0.0808  0.1095
  572loPI   C3A 9145  10.874   9.202   8.918 -0.1216 -0.0319 -0.0485
  572loPI   C4A 9146  11.022   9.275   8.518 -0.0988  0.0553  0.1520
  572loPI   C5A 9147  11.089   9.050   8.122  0.1423  0.0435 -0.1067
  572loPI   C6A 9148  11.369   8.705   7.993  0.2986  0.1113 -0.1641
  572loPI   C1B 9149  11.430   9.245   9.560 -0.1905  0.0288  0.1989
  572loPI   C2B 9150  11.529   9.417   9.200  0.1633 -0.1291 -0.6082
  572loPI   C3B 9151  11.491   9.315   8.742  0.2690 -0.1904 -0.1695
  572loPI   C4B 9152  11.614   8.940   8.568  0.1189  0.2769 -0.0651
  573loPI    C1 9153   4.146  14.918  10.341 -0.0343  0.0571  0.1113
  573loPI    C2 9154   3.910  14.595  10.336 -0.0327  0.0580 -0.1560
  573loPI    C3 9155   4.156  14.658  10.645 -0.0836 -0.1594 -0.0694
  573loPI   PO4 9156   4.384  14.960  10.115  0.4394 -0.1667 -0.0259
  573loPI   GL1 9157   4.319  14.954   9.697  0.1963  0.1612 -0.0438
  573loPI   GL2 9158   4.191  15.240   9.641  0.0977  0.0474 -0.0951
  573loPI   C1A 9159   3.941  14.857   9.358  0.1218 -0.0516 -0.2706
  573loPI   C2A 9160   3.860  14.827   8.911  0.2035  0.2225  0.1440
  573loPI   C3A 9161   3.908  14.791   8.402  0.3439 -0.5270 -0.0104
  573loPI   C4A 9162   3.883  14.766   7.939  0.0506  0.1620 -0.1067
  573loPI   C5A 9163   3.756  14.647   7.526 -0.1569 -0.2109 -0.2110
  573loPI   C6A 9164   3.544  14.273   7.364  0.1173 -0.2619 -0.2024
  573loPI   C1B 9165   4.169  15.249   9.124  0.1506 -0.0554  0.3170
  573loPI   C2B 9166   4.100  15.213   8.681  0.3793 -0.5046 -0.0475
  573loPI   C3B 9167   4.067  15.233   8.381 -0.0122  0.0564  0.3224
  573loPI   C4B 9168   4.106  15.459   8.020 -0.0056 -0.5367 -0.3975
  574loPI    C1 9169   3.881   8.169  10.061 -0.1993  0.1006  0.0133
  574loPI    C2 9170   4.138   8.220  10.363  0.0808  0.0616 -0.2140
  574loPI    C3 9171   3.744   8.231  10.431  0.1406  0.0982  0.1427
  574loPI   PO4 9172   3.978   8.069   9.913  0.1701 -0.3360 -0.2121
  574loPI   GL1 9173   3.909   8.151   9.443  0.2315  0.0471  0.3194
  574loPI   GL2 9174   3.934   8.436   9.479  0.1716  0.1677  0.0130
  574loPI   C1A 9175   4.027   8.189   8.983  0.0588  0.2246  0.3243
  574loPI   C2A 9176   4.029   8.096   8.530  0.0558  0.1292 -0.0661
  574loPI   C3A 9177   4.183   8.185   8.203 -0.2631 -0.0764 -0.0712
  574loPI   C4A 9178   4.215   8.107   7.741  0.0137  0.1178  0.1025
  574loPI   C5A 9179   3.994   8.192   7.413  0.0942 -0.0154  0.1982
  574loPI   C6A 9180   3.622   8.433   7.252  0.1875  0.0109 -0.0516
  574loPI   C1B 9181   3.852   8.692   8.996 -0.1653 -0.1735  0.2212
  574loPI   C2B 9182   3.919   8.668   8.615 -0.2381 -0.0382  0.1889
  574loPI   C3B 9183   3.874   8.602   8.199  0.0128 -0.1875  0.1134
  574loPI   C4B 9184   3.821   8.567   7.774  0.0321 -0.0644  0.2199
  575loPI    C1 9185  18.498   9.319  10.076 -0.2233 -0.3323  0.0502
  575loPI    C2 9186  18.723   9.288  10.405  0.0593 -0.2037 -0.1271
  575loPI    C3 9187  18.324   9.289  10.435  0.0801  0.2261  0.2561
  575loPI   PO4 9188  18.625   9.493   9.920 -0.3669  0.2681  0.2726
  575loPI   GL1 9189  18.777   9.636   9.481  0.0401  0.0405 -0.0616
  575loPI   GL2 9190  18.465   9.684   9.339  0.1175  0.0809 -0.0328
  575loPI   C1A 9191  18.936   9.659   9.078  0.0606 -0.0304 -0.0565
  575loPI   C2A 9192  18.938   9.664   8.666 -0.1193  0.0083  0.2155
  575loPI   C3A 9193  18.595   9.831   8.432 -0.0883 -0.0722  0.0334
  575loPI   C4A 9194  18.332   9.916   8.103 -0.1009  0.0523 -0.2495
  575loPI   C5A 9195  18.308  10.218   7.699 -0.1239  0.1619 -0.0126
  575loPI   C6A 9196  18.014  10.507   7.650 -0.3363  0.1562 -0.0798
  575loPI   C1B 9197  18.218   9.257   9.135 -0.0588 -0.0110  0.1751
  575loPI   C2B 9198  18.108   9.112   8.742  0.1329  0.2382 -0.0501
  575loPI   C3B 9199  17.906   8.965   8.461 -0.4088  0.0371  0.0626
  575loPI   C4B 9200  17.662   8.976   8.171  0.2991 -0.1316  0.0419
  576loPI    C1 9201   3.579   4.391   9.611  0.1330 -0.0229  0.0305
  576loPI    C2 9202   3.530   4.775   9.509 -0.2789 -0.0217  0.2156
  576loPI    C3 9203   3.666   4.680   9.873  0.2094 -0.0481  0.0331
  576loPI   PO4 9204   3.850   4.260   9.419  0.0277 -0.0171 -0.1263
  576loPI   GL1 9205   3.826   4.173   8.995 -0.3130  0.0543  0.0320
  576loPI   GL2 9206   3.699   3.934   8.883 -0.2859 -0.0639  0.3173
  576loPI   C1A 9207   4.157   4.266   8.677 -0.0788  0.3168 -0.1800
  576loPI   C2A 9208   4.339   4.169   8.223  0.0061 -0.0165 -0.1756
  576loPI   C3A 9209   4.352   4.101   7.842  0.1899  0.2817 -0.2212
  576loPI   C4A 9210   4.100   3.962   7.480  0.2502  0.0684 -0.2078
  576loPI   C5A 9211   3.745   3.761   7.429 -0.1467 -0.2208  0.2264
  576loPI   C6A 9212   3.337   3.556   7.252  0.0574  0.1600 -0.2974
  576loPI   C1B 9213   3.383   4.236   8.779  0.2445 -0.0680  0.0275
  576loPI   C2B 9214   3.310   4.516   8.486  0.1365 -0.0260  0.0618
  576loPI   C3B 9215   3.442   4.588   7.933 -0.0773  0.2762  0.1135
  576loPI   C4B 9216   3.574   4.666   7.551 -0.1971 -0.0705 -0.2769
  577loPI    C1 9217  17.339  12.350  10.042 -0.1790 -0.1197 -0.0607
  577loPI    C2 9218  17.107  12.065  10.200 -0.0222 -0.0386  0.3275
  577loPI    C3 9219  17.116  12.429  10.365  0.2376  0.0138  0.2018
  577loPI   PO4 9220  17.651  12.215  10.068 -0.1839  0.0612 -0.3936
  577loPI   GL1 9221  17.836  12.140   9.746  0.1669 -0.2821  0.0114
  577loPI   GL2 9222  17.543  12.236   9.546 -0.0385  0.0914 -0.1033
  577loPI   C1A 9223  17.898  12.030   9.293 -0.0574 -0.0452 -0.1302
  577loPI   C2A 9224  17.890  11.982   8.861  0.1243 -0.2782 -0.2507
  577loPI   C3A 9225  17.964  12.091   8.453 -0.0465  0.0047  0.2393
  577loPI   C4A 9226  17.986  12.018   8.029  0.0360 -0.1393  0.1597
  577loPI   C5A 9227  17.861  11.807   7.652 -0.1691 -0.0405  0.1929
  577loPI   C6A 9228  17.696  11.539   7.552 -0.2919 -0.1853  0.0436
  577loPI   C1B 9229  17.584  12.322   9.082 -0.0157  0.1082  0.0970
  577loPI   C2B 9230  17.494  12.311   8.668 -0.1853 -0.0166  0.0668
  577loPI   C3B 9231  17.490  12.209   8.221  0.1218 -0.1331  0.1463
  577loPI   C4B 9232  17.518  12.185   7.854  0.0772 -0.1795 -0.1728
  578loPI    C1 9233   7.610   0.220   9.649  0.1269  0.2447 -0.0349
  578loPI    C2 9234   7.607   0.400  10.007  0.0428 -0.1039  0.1440
  578loPI    C3 9235   7.759   0.032   9.969  0.0691 -0.0626 -0.1851
  578loPI   PO4 9236   7.340   0.368   9.519  0.0611  0.0077  0.3626
  578loPI   GL1 9237   7.191   0.775   9.272 -0.0853 -0.2177  0.1819
  578loPI   GL2 9238   6.894   0.537   9.428  0.4822 -0.0971  0.1842
  578loPI   C1A 9239   6.947   0.921   9.014 -0.6502  0.0667 -0.1180
  578loPI   C2A 9240   7.061   0.898   8.560  0.2749  0.1550  0.0161
  578loPI   C3A 9241   7.063   1.103   8.264  0.3191  0.1035  0.0320
  578loPI   C4A 9242   7.203   0.967   7.944  0.2682 -0.0071 -0.1095
  578loPI   C5A 9243   7.534   0.670   7.797 -0.2283 -0.1158 -0.1096
  578loPI   C6A 9244   7.562   0.197   7.500 -0.3225  0.3560 -0.2804
  578loPI   C1B 9245   6.985   0.434   8.971  0.1860 -0.1410  0.0046
  578loPI   C2B 9246   6.813   0.507   8.500  0.1128 -0.1124  0.0226
  578loPI   C3B 9247   6.710   0.719   8.176  0.4122  0.0133 -0.1904
  578loPI   C4B 9248   6.325   0.849   7.976 -0.0508  0.0016 -0.1241
  579loPI    C1 9249  12.817  12.951  10.717 -0.1163  0.3814 -0.2767
  579loPI    C2 9250  12.440  13.081  10.755 -0.1063  0.3236  0.0539
  579loPI    C3 9251  12.676  13.056  11.077  0.1353  0.2198 -0.1279
  579loPI   PO4 9252  12.778  12.728  10.584  0.0094 -0.1320  0.1117
  579loPI   GL1 9253  12.713  12.526  10.259 -0.0602 -0.3556  0.3392
  579loPI   GL2 9254  12.412  12.325  10.224 -0.0940 -0.1245  0.1575
  579loPI   C1A 9255  12.616  12.821   9.907 -0.1308  0.1816 -0.0460
  579loPI   C2A 9256  12.558  12.873   9.465 -0.2361 -0.0322  0.2487
  579loPI   C3A 9257  12.461  12.558   9.075  0.3710 -0.2116 -0.5218
  579loPI   C4A 9258  12.149  12.383   8.862 -0.0633 -0.0867 -0.0879
  579loPI   C5A 9259  12.059  12.042   8.823 -0.1474  0.0029  0.0815
  579loPI   C6A 9260  12.150  11.745   8.386  0.3989 -0.5027 -0.1141
  579loPI   C1B 9261  12.491  12.256   9.823 -0.1149  0.0979 -0.0277
  579loPI   C2B 9262  12.517  12.143   9.342 -0.1861  0.0335  0.3231
  579loPI   C3B 9263  12.522  12.070   8.935 -0.0195  0.0528  0.0479
  579loPI   C4B 9264  12.460  12.227   8.491 -0.0823  0.0792 -0.1970
  580loPI    C1 9265  11.146   7.312   9.873 -0.2644  0.0830  0.0057
  580loPI    C2 9266  11.473   7.467  10.044 -0.2125 -0.0115 -0.0076
  580loPI    C3 9267  11.423   7.493   9.648  0.0020 -0.3958 -0.0653
  580loPI   PO4 9268  10.913   7.379  10.059  0.0805  0.1171 -0.1203
  580loPI   GL1 9269  10.663   7.429   9.788 -0.1235  0.2425  0.3023
  580loPI   GL2 9270  10.540   7.187   9.582  0.1827 -0.2035  0.0609
  580loPI   C1A 9271  10.963   7.320   9.411 -0.1036 -0.0119  0.2032
  580loPI   C2A 9272  10.928   7.427   8.980  0.0560 -0.1478  0.2528
  580loPI   C3A 9273  10.871   7.479   8.493  0.1029 -0.2863 -0.1296
  580loPI   C4A 9274  10.932   7.506   8.034 -0.2253  0.1879 -0.1709
  580loPI   C5A 9275  11.232   7.445   7.745  0.0315  0.0055 -0.2907
  580loPI   C6A 9276  11.475   7.351   7.486  0.1106 -0.1260 -0.0399
  580loPI   C1B 9277  10.488   7.206   9.157  0.0273  0.1668 -0.1636
  580loPI   C2B 9278  10.317   7.208   8.809  0.3305 -0.1677 -0.0121
  580loPI   C3B 9279  10.416   7.284   8.369  0.2089 -0.0821  0.0473
  580loPI   C4B 9280  10.456   7.220   7.948 -0.1600 -0.0084 -0.2692
  581loPI    C1 9281   5.234  16.695   9.908  0.0257 -0.1252  0.1136
  581loPI    C2 9282   5.324  16.397   9.657  0.1172  0.0021 -0.0064
  581loPI    C3 9283   5.073  16.333   9.962  0.0453 -0.1672 -0.0994
  581loPI   PO4 9284   5.220  16.870   9.737 -0.2073 -0.4011 -0.0642
  581loPI   GL1 9285   5.049  17.055   9.386  0.1310 -0.1562  0.0257
  581loPI   GL2 9286   4.763  16.974   9.347  0.1750  0.0685 -0.1054
  581loPI   C1A 9287   5.177  16.731   9.057  0.2282 -0.2303 -0.2146
  581loPI   C2A 9288   5.276  16.875   8.556  0.4139  0.2887  0.1085
  581loPI   C3A 9289   5.380  16.679   8.150  0.0054  0.2119 -0.2581
  581loPI   C4A 9290   5.617  16.536   7.804  0.0137 -0.2081  0.5186
  581loPI   C5A 9291   5.587  16.677   7.425  0.0305  0.0224 -0.0898
  581loPI   C6A 9292   5.730  16.464   7.054 -0.0085  0.3035  0.0889
  581loPI   C1B 9293   4.802  16.952   8.888  0.0156  0.1231  0.0475
  581loPI   C2B 9294   4.854  17.068   8.453  0.0659 -0.2073 -0.1537
  581loPI   C3B 9295   4.913  16.882   7.999 -0.0900 -0.0251 -0.0163
  581loPI   C4B 9296   5.190  16.793   7.691  0.1966  0.2016  0.1263
  582loPI    C1 9297   4.468  16.866   9.783 -0.2818  0.1877 -0.3560
  582loPI    C2 9298   4.457  16.711  10.152  0.0442 -0.0107 -0.4261
  582loPI    C3 9299   4.405  17.104  10.098  0.1955  0.0505 -0.1475
  582loPI   PO4 9300   4.757  16.700   9.760 -0.0284 -0.0043  0.2161
  582loPI   GL1 9301   4.833  16.461   9.429 -0.3093 -0.0821 -0.1412
  582loPI   GL2 9302   4.873  16.227   9.437 -0.0913  0.1161  0.2205
  582loPI   C1A 9303   4.814  16.403   8.952  0.0893 -0.0428  0.0215
  582loPI   C2A 9304   4.532  16.616   8.598  0.2825  0.3556 -0.2677
  582loPI   C3A 9305   4.203  16.565   8.355  0.3374  0.0178 -0.0130
  582loPI   C4A 9306   4.019  16.501   7.945  0.0430 -0.0553 -0.0207
  582loPI   C5A 9307   3.749  16.539   7.576  0.3857 -0.0802  0.1864
  582loPI   C6A 9308   3.544  16.672   7.224 -0.2002 -0.1618  0.1590
  582loPI   C1B 9309   5.186  16.071   9.146 -0.0366 -0.0993  0.1444
  582loPI   C2B 9310   5.405  15.797   8.967 -0.3736 -0.1058  0.0679
  582loPI   C3B 9311   5.433  15.909   8.585 -0.3902  0.2407  0.1558
  582loPI   C4B 9312   5.500  16.187   8.240 -0.0834 -0.1829 -0.4476
  583loPI    C1 9313   3.406  15.030   9.896  0.0088  0.0066 -0.1520
  583loPI    C2 9314   3.445  15.075  10.291 -0.0984  0.0020 -0.1407
  583loPI    C3 9315   3.468  14.710  10.129 -0.3319 -0.0303 -0.1059
  583loPI   PO4 9316   3.542  15.309   9.741 -0.0810 -0.1637 -0.4056
  583loPI   GL1 9317   3.660  15.563   9.367  0.1178  0.0077  0.0091
  583loPI   GL2 9318   3.580  15.722   9.140 -0.1136  0.3302 -0.1337
  583loPI   C1A 9319   3.634  15.206   9.106  0.0754  0.1482 -0.1174
  583loPI   C2A 9320   3.591  15.182   8.608 -0.2616 -0.1323  0.1022
  583loPI   C3A 9321   3.631  15.147   8.122  0.0503 -0.0801 -0.0239
  583loPI   C4A 9322   3.780  15.264   7.728  0.1122  0.2003  0.2934
  583loPI   C5A 9323   3.942  15.461   7.453 -0.2460  0.0915  0.0398
  583loPI   C6A 9324   4.240  15.837   7.270 -0.0626  0.2575 -0.2827
  583loPI   C1B 9325   3.585  15.755   8.720 -0.3142  0.1258  0.1508
  583loPI   C2B 9326   3.717  15.595   8.277  0.0264 -0.1753  0.0423
  583loPI   C3B 9327   3.548  15.684   7.877  0.3500  0.2584 -0.3126
  583loPI   C4B 9328   3.501  15.730   7.474 -0.0799 -0.0652 -0.0348
  584loPI    C1 9329  12.603   4.393  10.398  0.0257  0.0403  0.3159
  584loPI    C2 9330  12.572   4.093  10.660  0.2146 -0.2032  0.0657
  584loPI    C3 9331  12.929   4.191  10.509  0.0824 -0.1960 -0.2482
  584loPI   PO4 9332  12.332   4.346  10.199  0.1482  0.0314  0.0613
  584loPI   GL1 9333  12.227   4.325   9.697  0.1670 -0.0292  0.0496
  584loPI   GL2 9334  12.327   4.001   9.603  0.0361  0.0808  0.0506
  584loPI   C1A 9335  12.165   4.410   9.325  0.0893 -0.2604 -0.1528
  584loPI   C2A 9336  12.045   4.448   8.869 -0.1127 -0.1666  0.2447
  584loPI   C3A 9337  12.034   4.486   8.448 -0.2943 -0.0215  0.1794
  584loPI   C4A 9338  11.992   4.092   8.117  0.3371 -0.1259 -0.3048
  584loPI   C5A 9339  12.240   3.790   7.878  0.0277 -0.0067  0.1177
  584loPI   C6A 9340  12.309   3.780   7.422  0.1197 -0.0196 -0.1235
  584loPI   C1B 9341  12.463   3.751   9.267  0.2526 -0.0619 -0.0242
  584loPI   C2B 9342  12.408   3.719   8.819  0.1206  0.1557  0.0787
  584loPI   C3B 9343  12.560   3.722   8.330  0.0027  0.0853  0.1263
  584loPI   C4B 9344  12.709   3.759   8.025  0.1749 -0.1019  0.3464
  585loPI    C1 9345  16.707   0.802  10.676 -0.0724 -0.1764  0.1030
  585loPI    C2 9346  17.093   0.809  10.780 -0.0442  0.0287 -0.0115
  585loPI    C3 9347  16.833   1.056  10.958 -0.1240 -0.1111  0.0676
  585loPI   PO4 9348  16.645   0.770  10.376  0.1782 -0.2465  0.2823
  585loPI   GL1 9349  16.513   0.719  10.043  0.0514  0.1543 -0.1790
  585loPI   GL2 9350  16.640   0.556   9.716 -0.0516  0.0366  0.0287
  585loPI   C1A 9351  16.425   0.956   9.668 -0.0293  0.0648 -0.0031
  585loPI   C2A 9352  16.540   1.054   9.189 -0.1308  0.0122  0.2622
  585loPI   C3A 9353  16.564   0.978   8.846 -0.1783  0.1942  0.0725
  585loPI   C4A 9354  16.550   1.044   8.411  0.2208 -0.3017  0.1014
  585loPI   C5A 9355  16.499   1.066   7.967  0.0625  0.2875 -0.1561
  585loPI   C6A 9356  16.749   0.750   7.759 -0.1395 -0.1239  0.1311
  585loPI   C1B 9357  16.760   0.562   9.184 -0.0508  0.1012  0.2228
  585loPI   C2B 9358  16.752   0.518   8.784  0.0246  0.3943  0.3075
  585loPI   C3B 9359  16.658   0.475   8.349 -0.1548  0.0703 -0.0726
  585loPI   C4B 9360  16.396   0.547   8.022 -0.0751 -0.0543  0.0313
  586loPI    C1 9361  10.476  17.022  10.590 -0.0918 -0.0047  0.0192
  586loPI    C2 9362  10.131  16.838  10.676  0.0155 -0.1904  0.0596
  586loPI    C3 9363  10.437  16.818  10.932  0.0836 -0.0953 -0.0137
  586loPI   PO4 9364  10.576  17.113  10.349 -0.1673  0.1871  0.0226
  586loPI   GL1 9365  10.579  17.123   9.945  0.2218  0.1438 -0.2602
  586loPI   GL2 9366  10.907  16.989   9.750 -0.1497  0.0402 -0.1936
  586loPI   C1A 9367  10.313  16.801   9.668  0.0926  0.1431 -0.4064
  586loPI   C2A 9368  10.262  16.751   9.213 -0.2048 -0.1675 -0.2446
  586loPI   C3A 9369  10.125  16.650   8.812  0.0670 -0.0253  0.0527
  586loPI   C4A 9370   9.973  16.611   8.342  0.0143 -0.1069 -0.0521
  586loPI   C5A 9371   9.679  16.490   8.057 -0.1195 -0.4291  0.0836
  586loPI   C6A 9372   9.746  16.265   7.637  0.1079 -0.1075 -0.0013
  586loPI   C1B 9373  10.818  16.805   9.384  0.2964 -0.0648  0.1367
  586loPI   C2B 9374  10.673  16.878   8.894 -0.2997  0.2081 -0.1117
  586loPI   C3B 9375  10.873  16.946   8.456  0.3818  0.0867  0.1613
  586loPI   C4B 9376  11.138  16.919   8.049  0.0291  0.1925  0.0117
  587loPI    C1 9377  10.518   4.687  10.435  0.0321 -0.0673 -0.0381
  587loPI    C2 9378  10.915   4.645  10.450  0.0305 -0.0861 -0.0531
  587loPI    C3 9379  10.701   4.642  10.787  0.0176 -0.3235 -0.0618
  587loPI   PO4 9380  10.413   4.751  10.238  0.0468  0.0834  0.0871
  587loPI   GL1 9381  10.445   4.790   9.811  0.2461  0.0086 -0.1834
  587loPI   GL2 9382  10.751   4.683   9.847  0.1040 -0.0084 -0.1758
  587loPI   C1A 9383  10.398   4.993   9.385  0.0829  0.1599 -0.2186
  587loPI   C2A 9384  10.445   4.785   9.028  0.1384  0.0570  0.0875
  587loPI   C3A 9385  10.338   4.644   8.554 -0.0953 -0.4355  0.2081
  587loPI   C4A 9386  10.433   4.575   8.118 -0.1605  0.0348 -0.3824
  587loPI   C5A 9387  10.707   4.289   7.796  0.1199 -0.0771 -0.1754
  587loPI   C6A 9388  10.515   4.483   7.391 -0.0324 -0.0191 -0.2723
  587loPI   C1B 9389  10.835   4.726   9.357 -0.4082 -0.0544 -0.3777
  587loPI   C2B 9390  10.907   4.968   8.925  0.2428  0.0070  0.0189
  587loPI   C3B 9391  11.149   5.104   8.683  0.0374 -0.0978 -0.1440
  587loPI   C4B 9392  11.263   5.049   8.249  0.1368  0.1084  0.2652
  588loPI    C1 9393   0.002   7.669   9.954 -0.2573  0.0241  0.2772
  588loPI    C2 9394   0.338   7.520  10.111 -0.1292 -0.0961 -0.1019
  588loPI    C3 9395   0.009   7.550  10.336  0.1843  0.2083  0.3321
  588loPI   PO4 9396   0.090   7.849   9.803  0.0549 -0.1206 -0.0017
  588loPI   GL1 9397   0.173   8.145   9.533 -0.1607  0.0712 -0.0922
  588loPI   GL2 9398   0.151   8.503   9.559 -0.2119 -0.0814 -0.0643
  588loPI   C1A 9399   0.324   7.948   9.156 -0.1162  0.0372 -0.2369
  588loPI   C2A 9400   0.375   7.955   8.645 -0.1812  0.0670 -0.3025
  588loPI   C3A 9401   0.324   7.828   8.242  0.3537  0.2535 -0.4459
  588loPI   C4A 9402   0.155   7.511   8.001 -0.0882 -0.1366 -0.2623
  588loPI   C5A 9403  -0.258   7.524   8.024  0.3332 -0.1391 -0.0783
  588loPI   C6A 9404  -0.672   7.608   8.199 -0.4202  0.1555  0.1511
  588loPI   C1B 9405   0.005   8.341   9.146  0.2528 -0.2115  0.1248
  588loPI   C2B 9406  -0.024   8.297   8.625  0.1340  0.0052  0.0682
  588loPI   C3B 9407  -0.332   8.360   8.276  0.3030  0.0032  0.3134
  588loPI   C4B 9408  -0.562   8.059   7.986 -0.1396  0.2004  0.0622
  589loPI    C1 9409  10.484  15.852  10.675 -0.2421  0.0532 -0.1677
  589loPI    C2 9410  10.414  15.611  10.987 -0.2169  0.0534 -0.1619
  589loPI    C3 9411  10.357  16.006  11.022 -0.0959  0.0676 -0.1199
  589loPI   PO4 9412  10.637  15.723  10.559  0.1243 -0.1879 -0.1095
  589loPI   GL1 9413  10.731  15.293  10.261 -0.2005 -0.2700  0.1649
  589loPI   GL2 9414  10.855  14.881  10.255  0.2392 -0.2671  0.1348
  589loPI   C1A 9415  10.746  15.540   9.819 -0.3013 -0.1577  0.0786
  589loPI   C2A 9416  10.873  15.439   9.393  0.1906 -0.0516 -0.0820
  589loPI   C3A 9417  10.735  15.329   9.038 -0.3422  0.0656  0.3654
  589loPI   C4A 9418  10.697  15.289   8.546  0.5243  0.0318 -0.2211
  589loPI   C5A 9419  10.640  15.240   8.198  0.0359 -0.0185 -0.3337
  589loPI   C6A 9420  10.717  15.359   7.792 -0.1958  0.2999  0.1478
  589loPI   C1B 9421  10.726  14.909   9.846 -0.2558 -0.3013 -0.1255
  589loPI   C2B 9422  10.647  14.872   9.504 -0.1000 -0.0923  0.3621
  589loPI   C3B 9423  10.796  14.844   9.121 -0.0450  0.1099  0.0449
  589loPI   C4B 9424  10.695  14.595   8.726 -0.1864 -0.2467  0.0804
  590loPI    C1 9425   2.035   6.628  10.043 -0.2506 -0.3214  0.3417
  590loPI    C2 9426   2.251   6.906  10.233 -0.3434 -0.0584  0.0701
  590loPI    C3 9427   2.387   6.531  10.206  0.0255  0.0758  0.0034
  590loPI   PO4 9428   1.937   6.749   9.839 -0.2181  0.0403 -0.2567
  590loPI   GL1 9429   1.859   6.810   9.486  0.0131 -0.1530 -0.1038
  590loPI   GL2 9430   1.622   7.024   9.499  0.2359 -0.1770  0.0979
  590loPI   C1A 9431   1.739   6.669   9.113  0.0116  0.0307  0.3219
  590loPI   C2A 9432   1.761   6.707   8.673  0.1156  0.1094  0.6033
  590loPI   C3A 9433   1.773   6.707   8.224  0.0554 -0.2721  0.1650
  590loPI   C4A 9434   1.742   6.664   7.803  0.0669 -0.0626 -0.1165
  590loPI   C5A 9435   1.957   6.391   7.510  0.3939  0.0321  0.1686
  590loPI   C6A 9436   1.966   6.331   6.935  0.1031  0.0439 -0.0989
  590loPI   C1B 9437   1.513   7.148   9.072  0.0544 -0.1024 -0.3372
  590loPI   C2B 9438   1.497   7.192   8.518 -0.0418 -0.0694  0.0699
  590loPI   C3B 9439   1.419   7.081   8.005 -0.0952 -0.1644 -0.0350
  590loPI   C4B 9440   1.439   7.301   7.642 -0.1453 -0.0105 -0.0777
  591loPI    C1 9441   2.489  13.605  10.300  0.0845  0.2528  0.0126
  591loPI    C2 9442   2.721  13.288  10.376 -0.2214 -0.0112 -0.1305
  591loPI    C3 9443   2.486  13.438  10.664  0.0315  0.1813 -0.0206
  591loPI   PO4 9444   2.480  13.549   9.994  0.1366  0.2270 -0.2108
  591loPI   GL1 9445   2.380  13.643   9.570  0.1073  0.3090 -0.2771
  591loPI   GL2 9446   2.065  13.650   9.475  0.0351  0.0036  0.4200
  591loPI   C1A 9447   2.496  13.717   9.171  0.0659 -0.1181 -0.1643
  591loPI   C2A 9448   2.477  13.460   8.814  0.1201 -0.1953 -0.0197
  591loPI   C3A 9449   2.361  13.249   8.427  0.0893 -0.1888 -0.0177
  591loPI   C4A 9450   2.417  12.981   8.166 -0.2006  0.4599 -0.1261
  591loPI   C5A 9451   2.685  12.615   7.888  0.2860  0.1736  0.1544
  591loPI   C6A 9452   2.557  12.322   7.460 -0.1968  0.0355  0.2213
  591loPI   C1B 9453   2.064  13.469   9.075 -0.2078 -0.5976 -0.2105
  591loPI   C2B 9454   1.983  13.669   8.683  0.1431  0.0006 -0.0935
  591loPI   C3B 9455   1.980  13.521   8.255  0.0826 -0.4252  0.2692
  591loPI   C4B 9456   1.842  13.200   8.052  0.1204 -0.0521 -0.0012
  592loPI    C1 9457  16.617   5.929  10.480 -0.1715  0.3302  0.2875
  592loPI    C2 9458  16.532   5.556  10.595  0.1325  0.1724  0.0174
  592loPI    C3 9459  16.281   5.854  10.683 -0.1106 -0.0919  0.2423
  592loPI   PO4 9460  16.723   5.967  10.198 -0.0666  0.1988 -0.0335
  592loPI   GL1 9461  16.542   6.016   9.855  0.1517  0.3014  0.1784
  592loPI   GL2 9462  16.854   6.256   9.821  0.0574 -0.1645  0.0581
  592loPI   C1A 9463  16.410   5.741   9.507 -0.1878  0.2581  0.1180
  592loPI   C2A 9464  16.577   5.607   9.184 -0.0371 -0.0023  0.2503
  592loPI   C3A 9465  16.550   5.434   8.772  0.1665 -0.2599  0.0804
  592loPI   C4A 9466  16.402   5.438   8.337  0.1748  0.0209  0.1646
  592loPI   C5A 9467  16.381   5.387   7.932 -0.0100 -0.2638 -0.2291
  592loPI   C6A 9468  16.300   5.709   7.597  0.3616 -0.3344 -0.0175
  592loPI   C1B 9469  17.072   6.429   9.445 -0.0399 -0.1154 -0.0619
  592loPI   C2B 9470  17.302   6.295   9.150 -0.0433  0.2706  0.2549
  592loPI   C3B 9471  17.389   5.936   8.808  0.0629  0.1432  0.0296
  592loPI   C4B 9472  17.307   6.019   8.357 -0.0266 -0.3625  0.1950
  593loPI    C1 9473   6.524  12.135   9.902  0.1391  0.0161  0.1293
  593loPI    C2 9474   6.720  12.327   9.611  0.1088 -0.0943  0.0351
  593loPI    C3 9475   6.807  12.403   9.995  0.3245 -0.1308 -0.0052
  593loPI   PO4 9476   6.195  12.168   9.883 -0.3088 -0.0764  0.0600
  593loPI   GL1 9477   6.245  12.073   9.454  0.0310  0.0862 -0.0954
  593loPI   GL2 9478   5.877  12.039   9.433 -0.0567  0.1434  0.6286
  593loPI   C1A 9479   6.560  12.101   9.140  0.0983 -0.2044 -0.1375
  593loPI   C2A 9480   6.769  12.214   8.800 -0.0882  0.3428  0.1117
  593loPI   C3A 9481   6.714  12.075   8.420 -0.4482  0.1114 -0.0582
  593loPI   C4A 9482   6.784  11.847   8.073  0.0804 -0.4294  0.1942
  593loPI   C5A 9483   6.621  11.562   7.668  0.1671 -0.1685  0.0115
  593loPI   C6A 9484   6.491  11.239   7.536  0.1228 -0.0692 -0.2395
  593loPI   C1B 9485   6.037  12.173   9.027  0.1058 -0.0551  0.1281
  593loPI   C2B 9486   6.293  12.395   8.803 -0.1251  0.0113 -0.1877
  593loPI   C3B 9487   6.510  12.504   8.516  0.2079  0.1844  0.1342
  593loPI   C4B 9488   6.570  12.469   8.040 -0.1298  0.1609  0.0645
  594loPI    C1 9489   0.551   5.847   9.559  0.0768 -0.0250 -0.1098
  594loPI    C2 9490   0.652   6.105   9.847  0.0765 -0.0626 -0.0760
  594loPI    C3 9491   0.743   5.717   9.884  0.0948 -0.0641 -0.1360
  594loPI   PO4 9492   0.616   5.971   9.385 -0.2187  0.1651  0.0659
  594loPI   GL1 9493   0.693   6.056   9.004  0.0796 -0.1685 -0.3584
  594loPI   GL2 9494   0.619   5.707   8.985 -0.1981 -0.0884  0.2484
  594loPI   C1A 9495   0.575   6.091   8.574  0.0919  0.1941 -0.2238
  594loPI   C2A 9496   0.566   5.948   8.147 -0.3000  0.0075  0.1977
  594loPI   C3A 9497   0.447   5.652   7.769 -0.3214 -0.1912 -0.4593
  594loPI   C4A 9498   0.235   5.649   7.369  0.1511 -0.0064 -0.0688
  594loPI   C5A 9499  -0.045   5.402   7.353 -0.0721  0.1900 -0.3173
  594loPI   C6A 9500  -0.290   5.022   7.450  0.1727  0.1132 -0.0774
  594loPI   C1B 9501   0.325   5.639   8.727  0.1754 -0.2573  0.0044
  594loPI   C2B 9502   0.168   5.815   8.345  0.4811  0.1960  0.0836
  594loPI   C3B 9503   0.090   6.133   8.096  0.2772  0.0480 -0.1901
  594loPI   C4B 9504  -0.278   6.168   7.881  0.2199  0.0439 -0.3024
  595loPI    C1 9505   4.935   6.715   9.866 -0.3086  0.2683 -0.0621
  595loPI    C2 9506   4.613   6.606  10.077 -0.0898  0.0659  0.1739
  595loPI    C3 9507   4.853   6.895  10.213 -0.0541  0.0688  0.1055
  595loPI   PO4 9508   4.852   6.700   9.546  0.0807  0.0534 -0.1004
  595loPI   GL1 9509   4.895   6.930   9.198 -0.1281  0.2307 -0.2004
  595loPI   GL2 9510   5.184   6.789   9.166  0.1009 -0.0071 -0.1401
  595loPI   C1A 9511   4.972   7.047   8.733 -0.0910  0.0057 -0.0979
  595loPI   C2A 9512   5.134   6.913   8.427  0.2980 -0.0185  0.0029
  595loPI   C3A 9513   5.331   6.866   8.075  0.2090  0.1115  0.0153
  595loPI   C4A 9514   5.644   6.597   7.965  0.0535 -0.2869  0.0557
  595loPI   C5A 9515   6.145   6.605   7.794 -0.1409  0.2361  0.1098
  595loPI   C6A 9516   6.572   6.638   7.887  0.0866 -0.1126  0.1558
  595loPI   C1B 9517   5.467   7.033   8.835 -0.0080  0.0633  0.3632
  595loPI   C2B 9518   5.723   6.716   8.515  0.0001  0.0105  0.1378
  595loPI   C3B 9519   6.031   6.458   8.312  0.0329 -0.1712  0.1984
  595loPI   C4B 9520   6.412   6.238   8.139  0.0788  0.2386  0.2294
  596loPI    C1 9521   3.249  12.436   9.819 -0.1235 -0.0265  0.1234
  596loPI    C2 9522   3.286  12.684  10.130  0.0240  0.1473 -0.0301
  596loPI    C3 9523   3.320  12.825   9.757 -0.1958 -0.0513 -0.1274
  596loPI   PO4 9524   3.437  12.240   9.770  0.1300 -0.0632  0.0392
  596loPI   GL1 9525   3.739  12.142   9.435 -0.1539  0.2093  0.1719
  596loPI   GL2 9526   4.015  12.027   9.158 -0.2003  0.1341 -0.3036
  596loPI   C1A 9527   3.544  12.209   9.101  0.0389 -0.1840 -0.1871
  596loPI   C2A 9528   3.657  12.500   8.784  0.3454  0.1385  0.2791
  596loPI   C3A 9529   3.794  12.760   8.530 -0.1618 -0.1461  0.3546
  596loPI   C4A 9530   4.069  12.925   8.201 -0.3365  0.2211 -0.1961
  596loPI   C5A 9531   4.310  12.989   7.903  0.2313  0.0879 -0.0415
  596loPI   C6A 9532   4.607  12.854   7.551 -0.0443 -0.1135  0.0695
  596loPI   C1B 9533   3.832  11.865   8.833 -0.1007  0.0196 -0.1064
  596loPI   C2B 9534   3.690  11.735   8.441 -0.0665 -0.0702  0.0602
  596loPI   C3B 9535   3.524  11.804   8.051  0.1171  0.0711 -0.0313
  596loPI   C4B 9536   3.640  11.698   7.642  0.0574  0.1040 -0.3252
  597loPI    C1 9537   0.722   0.623  10.124  0.0780 -0.0188 -0.1062
  597loPI    C2 9538   0.513   0.282  10.132 -0.1274  0.1098  0.2892
  597loPI    C3 9539   0.338   0.621  10.012  0.0641  0.0888 -0.0617
  597loPI   PO4 9540   0.961   0.512  10.005 -0.0103 -0.0046 -0.1387
  597loPI   GL1 9541   0.912   0.477   9.540 -0.0314 -0.0873 -0.1358
  597loPI   GL2 9542   0.707   0.249   9.614  0.1287 -0.2609  0.2768
  597loPI   C1A 9543   0.854   0.679   9.174  0.0897 -0.0971  0.0385
  597loPI   C2A 9544   0.663   1.061   9.103  0.2006  0.0816  0.0306
  597loPI   C3A 9545   0.812   1.489   8.919  0.0232 -0.4331  0.1241
  597loPI   C4A 9546   0.938   1.478   8.501 -0.2042  0.0206 -0.4381
  597loPI   C5A 9547   0.941   1.257   8.118  0.1466  0.0365  0.0125
  597loPI   C6A 9548   0.763   1.139   7.636 -0.1999  0.0357 -0.1865
  597loPI   C1B 9549   0.693   0.212   9.176 -0.0684  0.3343  0.1202
  597loPI   C2B 9550   0.741   0.297   8.751  0.2314  0.0144  0.3054
  597loPI   C3B 9551   0.821   0.693   8.679 -0.0086  0.2945 -0.1097
  597loPI   C4B 9552   0.609   1.018   8.542  0.0358  0.0317 -0.1582
  598loPI    C1 9553   2.892   0.358  10.039  0.1820 -0.1287  0.2087
  598loPI    C2 9554   2.571   0.133  10.118 -0.0280  0.0978  0.0154
  598loPI    C3 9555   2.807   0.255  10.416 -0.2963  0.1869  0.1954
  598loPI   PO4 9556   2.821   0.229   9.676  0.2581 -0.0501 -0.2192
  598loPI   GL1 9557   3.022  -0.045   9.420  0.1533  0.1463  0.1575
  598loPI   GL2 9558   2.813   0.127   9.224  0.0578 -0.1296 -0.1795
  598loPI   C1A 9559   3.101  -0.260   9.030  0.0759 -0.3474 -0.1588
  598loPI   C2A 9560   3.168  -0.288   8.581 -0.2523 -0.1150 -0.0672
  598loPI   C3A 9561   3.217  -0.363   8.196  0.1871  0.2733 -0.2125
  598loPI   C4A 9562   3.094  -0.386   7.760 -0.0333 -0.1098  0.0677
  598loPI   C5A 9563   2.863  -0.448   7.356 -0.0975 -0.0553  0.1186
  598loPI   C6A 9564   2.419  -0.650   7.204  0.0581 -0.0920  0.1197
  598loPI   C1B 9565   2.559   0.273   8.886  0.0489  0.0683  0.2481
  598loPI   C2B 9566   2.502   0.315   8.469  0.0835  0.0682  0.2113
  598loPI   C3B 9567   2.420   0.159   8.082 -0.1657 -0.0007  0.1294
  598loPI   C4B 9568   2.395   0.338   7.629  0.2696  0.2413  0.1469
  599loPI    C1 9569   1.665  15.875   9.781 -0.2387  0.0795  0.0506
  599loPI    C2 9570   1.592  15.489   9.702  0.0690  0.0664 -0.1889
  599loPI    C3 9571   1.908  15.591   9.925 -0.0746  0.1761 -0.0333
  599loPI   PO4 9572   1.519  15.991   9.583  0.1105  0.0463 -0.0096
  599loPI   GL1 9573   1.294  16.049   9.181 -0.1903  0.0787  0.1202
  599loPI   GL2 9574   1.651  16.165   9.046  0.2063  0.0175 -0.1006
  599loPI   C1A 9575   1.235  15.966   8.725 -0.0696 -0.0990 -0.0717
  599loPI   C2A 9576   1.005  16.097   8.293  0.1782 -0.0608 -0.0479
  599loPI   C3A 9577   0.826  15.945   7.902  0.3724 -0.4038 -0.0302
  599loPI   C4A 9578   0.382  15.806   7.547  0.2220 -0.1874 -0.4153
  599loPI   C5A 9579   0.218  15.625   7.196  0.0642  0.2116  0.0204
  599loPI   C6A 9580   0.257  15.337   6.833 -0.0177  0.0847  0.3738
  599loPI   C1B 9581   1.659  16.199   8.654 -0.2377 -0.0650  0.2653
  599loPI   C2B 9582   1.534  16.184   8.231  0.1913 -0.0355 -0.0930
  599loPI   C3B 9583   1.417  16.134   7.933  0.0205 -0.1639  0.0391
  599loPI   C4B 9584   1.515  16.248   7.568 -0.0587 -0.0264 -0.2374
  600loPI    C1 9585  18.043   0.652  10.186  0.0479  0.0799 -0.3042
  600loPI    C2 9586  18.325   0.749  10.452  0.1344 -0.2002 -0.2904
  600loPI    C3 9587  18.242   0.997  10.150  0.1019  0.0763 -0.0596
  600loPI   PO4 9588  18.125   0.334  10.122  0.0375  0.1454  0.1430
  600loPI   GL1 9589  18.454   0.170   9.779  0.3810  0.1934  0.1151
  600loPI   GL2 9590  18.611  -0.092   9.747 -0.0435  0.0231 -0.2048
  600loPI   C1A 9591  18.415   0.238   9.441  0.1616  0.0869 -0.2578
  600loPI   C2A 9592  18.361   0.232   9.082  0.3568  0.0604 -0.1813
  600loPI   C3A 9593  18.248   0.248   8.633 -0.2095  0.4917 -0.2428
  600loPI   C4A 9594  18.174   0.308   8.209 -0.1307  0.0067  0.2262
  600loPI   C5A 9595  18.071   0.177   7.797 -0.0235 -0.3218 -0.1846
  600loPI   C6A 9596  18.298  -0.098   7.495 -0.0812 -0.1257 -0.2306
  600loPI   C1B 9597  18.603  -0.233   9.313 -0.1227 -0.2102  0.2036
  600loPI   C2B 9598  18.402  -0.233   8.822 -0.2843  0.2014  0.1022
  600loPI   C3B 9599  18.371  -0.219   8.428 -0.0751  0.1025  0.1952
  600loPI   C4B 9600  18.350  -0.207   8.029  0.5066 -0.2594 -0.1992
  601loPI    C1 9601   6.003  15.273  10.154  0.2506  0.0147 -0.0893
  601loPI    C2 9602   5.987  15.035  10.475  0.1831  0.1872  0.0373
  601loPI    C3 9603   5.888  14.892  10.115 -0.0502  0.0770  0.1429
  601loPI   PO4 9604   6.301  15.398  10.089  0.0967 -0.1222 -0.1363
  601loPI   GL1 9605   6.414  15.363   9.704 -0.1431 -0.0483  0.2703
  601loPI   GL2 9606   6.249  15.669   9.684 -0.2500 -0.3421 -0.0041
  601loPI   C1A 9607   6.679  15.663   9.424  0.3509 -0.0977  0.0784
  601loPI   C2A 9608   6.716  15.937   9.146 -0.1785 -0.0330 -0.1277
  601loPI   C3A 9609   6.605  16.298   8.928 -0.0058 -0.1474 -0.1247
  601loPI   C4A 9610   6.665  16.605   8.536 -0.0502  0.0456 -0.0735
  601loPI   C5A 9611   6.437  16.456   8.127 -0.2303 -0.3199  0.1228
  601loPI   C6A 9612   6.033  16.392   7.970  0.1863 -0.2270  0.0107
  601loPI   C1B 9613   6.221  15.441   9.253  0.1522  0.3300  0.0064
  601loPI   C2B 9614   6.545  15.363   9.002  0.1628  0.0481  0.1158
  601loPI   C3B 9615   6.571  15.105   8.662  0.1556  0.2224 -0.0863
  601loPI   C4B 9616   6.611  15.048   8.266 -0.0240  0.2147 -0.2829
  602loPI    C1 9617   0.390  16.394  10.103 -0.0077  0.0639 -0.0404
  602loPI    C2 9618   0.278  16.161  10.408  0.2932  0.0701  0.0785
  602loPI    C3 9619   0.545  16.453  10.467  0.0953  0.2954 -0.1195
  602loPI   PO4 9620   0.171  16.512   9.955 -0.2043 -0.2183  0.2239
  602loPI   GL1 9621   0.088  16.897   9.750 -0.2308 -0.1742 -0.0612
  602loPI   GL2 9622   0.022  16.646   9.498 -0.1515 -0.1664  0.0489
  602loPI   C1A 9623   0.074  17.142   9.409  0.1026  0.1172 -0.0066
  602loPI   C2A 9624   0.030  17.182   8.878  0.1423  0.4314  0.1610
  602loPI   C3A 9625  -0.040  17.242   8.394 -0.1272 -0.0626  0.1650
  602loPI   C4A 9626  -0.270  17.368   7.991 -0.2055 -0.1735  0.2807
  602loPI   C5A 9627  -0.238  17.260   7.500 -0.0673  0.1233 -0.1902
  602loPI   C6A 9628  -0.270  17.008   7.135  0.0410 -0.0068 -0.0894
  602loPI   C1B 9629  -0.159  16.783   9.139  0.0793 -0.1903 -0.2649
  602loPI   C2B 9630  -0.109  16.657   8.697  0.0916  0.0880 -0.0200
  602loPI   C3B 9631  -0.202  16.773   8.273 -0.2380  0.0232 -0.4387
  602loPI   C4B 9632  -0.403  16.882   7.875 -0.2552 -0.1016 -0.0674
  603loPI    C1 9633  15.248   2.042  10.241 -0.0631 -0.0757  0.0879
  603loPI    C2 9634  15.350   1.918  10.607 -0.0327  0.0869  0.1354
  603loPI    C3 9635  15.634   2.006  10.339 -0.0542  0.0473  0.0996
  603loPI   PO4 9636  15.093   1.952  10.116  0.0562 -0.0282 -0.3028
  603loPI   GL1 9637  14.783   1.924   9.806 -0.0277 -0.1551 -0.3483
  603loPI   GL2 9638  14.463   1.909   9.799 -0.3042  0.2458 -0.0835
  603loPI   C1A 9639  14.629   2.126   9.376 -0.2025  0.1193  0.0665
  603loPI   C2A 9640  14.611   2.173   8.936 -0.1205  0.0025 -0.1432
  603loPI   C3A 9641  14.565   2.097   8.491  0.2978 -0.1154  0.0651
  603loPI   C4A 9642  14.473   1.872   8.183 -0.0098 -0.2485 -0.0700
  603loPI   C5A 9643  14.492   2.173   7.911  0.0572 -0.2464  0.0668
  603loPI   C6A 9644  14.150   2.370   7.830  0.2574 -0.3251 -0.1819
  603loPI   C1B 9645  14.605   1.645   9.471 -0.1204  0.1565 -0.0299
  603loPI   C2B 9646  14.857   1.666   9.088 -0.3413  0.2131 -0.3838
  603loPI   C3B 9647  14.886   1.721   8.622  0.1725  0.3162 -0.0149
  603loPI   C4B 9648  14.933   1.433   8.207 -0.2307 -0.2018  0.1200
  604loPI    C1 9649   5.919   3.723   9.527  0.1452  0.0369  0.1581
  604loPI    C2 9650   5.905   3.331   9.449  0.1182  0.0023  0.3324
  604loPI    C3 9651   6.256   3.522   9.445  0.0854  0.0647 -0.1667
  604loPI   PO4 9652   5.798   3.800   9.353  0.0019  0.2815  0.0047
  604loPI   GL1 9653   5.774   3.687   9.010 -0.0474 -0.1123 -0.0531
  604loPI   GL2 9654   5.557   3.875   8.918 -0.2278 -0.0662 -0.0403
  604loPI   C1A 9655   5.389   3.467   8.734 -0.5951 -0.3323 -0.1494
  604loPI   C2A 9656   5.388   3.025   8.531 -0.3633  0.0749 -0.2029
  604loPI   C3A 9657   5.233   2.846   8.215 -0.3233  0.2504  0.0960
  604loPI   C4A 9658   5.334   2.845   7.834  0.0271  0.1124 -0.1383
  604loPI   C5A 9659   5.322   3.135   7.544  0.0202  0.0837 -0.0339
  604loPI   C6A 9660   5.421   3.396   7.299 -0.3721 -0.0800  0.0254
  604loPI   C1B 9661   5.636   3.890   8.551 -0.0312  0.3588  0.1520
  604loPI   C2B 9662   5.728   4.103   8.157  0.3818  0.0757 -0.0922
  604loPI   C3B 9663   5.629   4.241   7.741  0.1441 -0.2467 -0.3973
  604loPI   C4B 9664   5.514   4.476   7.413  0.2335  0.0231  0.2100
  605loPI    C1 9665   7.310  13.038  10.203 -0.1079 -0.1945 -0.0974
  605loPI    C2 9666   6.974  12.821  10.225 -0.2290  0.0126  0.1407
  605loPI    C3 9667   7.134  12.977  10.557  0.2620 -0.3181  0.0700
  605loPI   PO4 9668   7.503  12.914  10.111  0.4587  0.3482  0.2934
  605loPI   GL1 9669   7.727  12.847   9.719  0.1870  0.0883  0.0716
  605loPI   GL2 9670   7.755  13.143   9.784  0.0449  0.0858 -0.0727
  605loPI   C1A 9671   8.080  12.791   9.482 -0.1159 -0.0362 -0.1036
  605loPI   C2A 9672   8.451  12.661   9.251  0.1561  0.0132 -0.0848
  605loPI   C3A 9673   8.689  12.603   8.953  0.0922 -0.1332  0.0663
  605loPI   C4A 9674   8.613  12.745   8.657  0.2912  0.0561 -0.0685
  605loPI   C5A 9675   8.511  12.911   8.209 -0.0145 -0.1992 -0.2020
  605loPI   C6A 9676   8.567  12.802   7.748  0.0081 -0.0257 -0.3005
  605loPI   C1B 9677   7.841  13.199   9.363  0.0682 -0.0955  0.2178
  605loPI   C2B 9678   7.737  13.204   8.936  0.0322  0.3191  0.3520
  605loPI   C3B 9679   7.613  13.168   8.599  0.0412 -0.0250 -0.1585
  605loPI   C4B 9680   7.684  12.809   8.245  0.1205  0.0828 -0.0944
  606loPI    C1 9681  11.561   6.396  10.388  0.0802  0.1173 -0.3530
  606loPI    C2 9682  11.909   6.545  10.259  0.2538  0.1513  0.1359
  606loPI    C3 9683  11.807   6.580  10.645 -0.1358 -0.1650  0.0675
  606loPI   PO4 9684  11.472   6.301  10.127 -0.0004 -0.0789  0.1092
  606loPI   GL1 9685  11.717   6.499   9.742 -0.0592 -0.2339 -0.2628
  606loPI   GL2 9686  11.516   6.252   9.635 -0.1855 -0.2472 -0.1496
  606loPI   C1A 9687  11.659   6.698   9.355 -0.1415  0.1935 -0.0584
  606loPI   C2A 9688  11.710   6.769   8.886 -0.3798  0.0511 -0.2521
  606loPI   C3A 9689  11.683   6.778   8.394 -0.0497 -0.4148 -0.1632
  606loPI   C4A 9690  11.940   6.793   8.131  0.1318 -0.1312  0.2067
  606loPI   C5A 9691  12.025   6.892   7.670 -0.1203  0.2049  0.1315
  606loPI   C6A 9692  12.457   6.959   7.516  0.0253  0.0183  0.0233
  606loPI   C1B 9693  11.388   6.238   9.198  0.0517  0.0464 -0.1803
  606loPI   C2B 9694  11.290   6.132   8.784  0.2116  0.1699 -0.0027
  606loPI   C3B 9695  11.436   6.253   8.342 -0.2757  0.1102 -0.0821
  606loPI   C4B 9696  11.574   6.396   7.920  0.0523 -0.0532  0.2890
  607loPI    C1 9697  15.756  14.797  10.680  0.0973  0.0296  0.1950
  607loPI    C2 9698  15.524  15.120  10.646  0.0020 -0.0640 -0.0808
  607loPI    C3 9699  15.381  14.788  10.818  0.0413 -0.0180  0.0421
  607loPI   PO4 9700  15.978  14.772  10.763 -0.0823 -0.1588 -0.1300
  607loPI   GL1 9701  16.188  14.663  10.373 -0.2390 -0.0175  0.3599
  607loPI   GL2 9702  16.170  14.311  10.329 -0.1073  0.4594  0.0811
  607loPI   C1A 9703  16.131  14.877  10.018  0.2594  0.2998  0.0746
  607loPI   C2A 9704  15.870  15.061   9.784 -0.0646 -0.0093 -0.1244
  607loPI   C3A 9705  15.666  14.917   9.413 -0.1364 -0.0911  0.0916
  607loPI   C4A 9706  15.665  15.000   8.971 -0.0591  0.1625 -0.0744
  607loPI   C5A 9707  15.547  14.954   8.495  0.0911  0.2560  0.0899
  607loPI   C6A 9708  15.688  14.908   8.128 -0.0575 -0.1273  0.1838
  607loPI   C1B 9709  16.038  14.243  10.001  0.3150  0.1262  0.2452
  607loPI   C2B 9710  15.996  14.080   9.612 -0.0457  0.1251 -0.1492
  607loPI   C3B 9711  15.968  14.021   9.253 -0.0339 -0.1655  0.0772
  607loPI   C4B 9712  15.905  14.099   8.850 -0.1014  0.1048  0.0126
  608loPI    C1 9713  11.260  17.619  10.357  0.0843 -0.0500  0.0005
  608loPI    C2 9714  11.087  17.472  10.687 -0.1882  0.0927 -0.0755
  608loPI    C3 9715  10.868  17.539  10.359  0.0216  0.2376 -0.1886
  608loPI   PO4 9716  11.468  17.536  10.322  0.2195  0.1546 -0.0511
  608loPI   GL1 9717  11.669  17.348   9.944 -0.2215 -0.2899 -0.0228
  608loPI   GL2 9718  11.627  17.652   9.800 -0.1663 -0.0859  0.1992
  608loPI   C1A 9719  11.847  17.186   9.594 -0.0928  0.0459 -0.3908
  608loPI   C2A 9720  12.062  17.077   9.222  0.1783 -0.1780  0.0525
  608loPI   C3A 9721  12.061  17.269   8.871 -0.1189  0.0013 -0.2651
  608loPI   C4A 9722  12.231  17.531   8.585 -0.1017  0.2923 -0.3496
  608loPI   C5A 9723  12.334  17.681   8.280  0.0043  0.1274 -0.0249
  608loPI   C6A 9724  12.316  18.113   8.071  0.3401 -0.2581  0.0980
  608loPI   C1B 9725  11.418  17.726   9.367 -0.3768  0.1068 -0.0925
  608loPI   C2B 9726  11.049  17.871   9.138  0.2739 -0.0531  0.0922
  608loPI   C3B 9727  10.888  17.903   8.714  0.2118  0.2018 -0.2227
  608loPI   C4B 9728  11.126  17.739   8.351 -0.2306 -0.2607 -0.2444
  609POPI    C1 9729   1.568   5.838   9.800  0.0698 -0.0294 -0.0307
  609POPI    C2 9730   1.942   5.770   9.925  0.0584  0.1820  0.1247
  609POPI    C3 9731   1.631   5.637  10.140  0.0424 -0.2005 -0.1260
  609POPI   PO4 9732   1.610   5.869   9.553  0.0655  0.0162 -0.2464
  609POPI   GL1 9733   1.757   5.953   9.202 -0.1143 -0.3126  0.1442
  609POPI   GL2 9734   1.994   6.262   9.214  0.4844 -0.1909 -0.0996
  609POPI   C1A 9735   1.551   6.160   8.885  0.0705  0.1338 -0.2792
  609POPI   D2A 9736   1.212   6.228   8.590 -0.2893 -0.0989 -0.0655
  609POPI   C3A 9737   0.989   5.875   8.518  0.1826 -0.2450 -0.0352
  609POPI   C4A 9738   0.823   5.596   8.512  0.1247 -0.2774 -0.3737
  609POPI   C1B 9739   2.019   6.306   8.705  0.0914  0.1229  0.0735
  609POPI   C2B 9740   1.668   6.234   8.339 -0.5309  0.1987  0.1717
  609POPI   C3B 9741   1.629   6.180   7.878 -0.2834  0.0054  0.0607
  609POPI   C4B 9742   1.254   6.205   7.541  0.1208  0.0739 -0.0579
  610POPI    C1 9743   5.376  17.723  10.108 -0.2143 -0.0239  0.0137
  610POPI    C2 9744   5.247  17.618  10.472 -0.0748 -0.0075  0.0688
  610POPI    C3 9745   5.116  17.956  10.303 -0.0960  0.0139  0.1279
  610POPI   PO4 9746   5.670  17.593  10.090 -0.0049 -0.0184  0.1655
  610POPI   GL1 9747   6.002  17.684   9.730 -0.0674  0.3178 -0.1466
  610POPI   GL2 9748   5.871  17.501   9.642  0.1452 -0.0672 -0.0821
  610POPI   C1A 9749   5.969  18.061   9.468 -0.0193 -0.0311 -0.0043
  610POPI   D2A 9750   5.901  18.237   9.195  0.2657  0.1328  0.2560
  610POPI   C3A 9751   5.903  18.059   8.834  0.0686  0.1618 -0.0006
  610POPI   C4A 9752   5.970  18.302   8.371 -0.1413  0.0476 -0.1798
  610POPI   C1B 9753   5.787  17.611   9.141 -0.0032 -0.4514 -0.0617
  610POPI   C2B 9754   5.646  17.625   8.720 -0.2059  0.0822  0.0031
  610POPI   C3B 9755   5.649  17.577   8.288 -0.3411 -0.0249  0.1281
  610POPI   C4B 9756   5.649  17.602   7.944 -0.2867  0.1946  0.1424
  611POPI    C1 9757   3.926   9.646   9.884 -0.0553 -0.1640  0.1159
  611POPI    C2 9758   3.922   9.515  10.262 -0.2314 -0.0560  0.1529
  611POPI    C3 9759   4.098   9.863  10.173 -0.1878 -0.0826  0.1345
  611POPI   PO4 9760   3.766   9.386   9.821 -0.1977 -0.5059 -0.1938
  611POPI   GL1 9761   3.560   9.312   9.434 -0.1960  0.0724 -0.1431
  611POPI   GL2 9762   3.898   9.345   9.278 -0.1013 -0.0778 -0.2381
  611POPI   C1A 9763   3.551   9.649   9.059 -0.2890 -0.0786  0.0019
  611POPI   D2A 9764   3.640   9.616   8.736 -0.1506  0.0204  0.0916
  611POPI   C3A 9765   3.565   9.759   8.418  0.0906  0.2282 -0.1560
  611POPI   C4A 9766   3.677   9.752   8.003  0.1361  0.0918  0.0007
  611POPI   C1B 9767   4.155   9.556   8.958  0.0923  0.0127 -0.1912
  611POPI   C2B 9768   4.340   9.387   8.643 -0.0254 -0.1554 -0.0176
  611POPI   C3B 9769   4.536   9.364   8.251  0.1098  0.0422  0.2325
  611POPI   C4B 9770   4.540   9.487   7.857 -0.2404  0.0323 -0.3157
  612POPI    C1 9771   7.153  12.088  10.268  0.0039 -0.0519 -0.0577
  612POPI    C2 9772   7.309  11.774  10.460 -0.0149 -0.1326 -0.1731
  612POPI    C3 9773   6.998  11.971  10.617 -0.0231 -0.1910 -0.1159
  612POPI   PO4 9774   7.095  11.959   9.943  0.0271 -0.0570  0.0599
  612POPI   GL1 9775   6.862  11.723   9.689 -0.2591 -0.0986  0.0340
  612POPI   GL2 9776   7.101  11.498   9.555 -0.3194 -0.1838  0.0194
  612POPI   C1A 9777   6.539  11.613   9.427  0.3651  0.4259  0.0747
  612POPI   D2A 9778   6.217  11.715   9.080 -0.1408  0.2935 -0.0138
  612POPI   C3A 9779   6.403  11.878   8.776  0.0403 -0.4547  0.0266
  612POPI   C4A 9780   6.248  11.663   8.403  0.0020  0.2512 -0.0882
  612POPI   C1B 9781   7.044  11.402   9.129  0.6380 -0.1663  0.1118
  612POPI   C2B 9782   6.947  11.098   8.843 -0.1973  0.0268 -0.4269
  612POPI   C3B 9783   7.033  11.064   8.377  0.2278 -0.0788 -0.2595
  612POPI   C4B 9784   7.210  10.853   8.151  0.3139  0.0761 -0.1679
  613POPI    C1 9785  18.542   3.095  10.281  0.1191 -0.2187  0.1986
  613POPI    C2 9786  18.556   3.494  10.259 -0.1949 -0.2167 -0.0299
  613POPI    C3 9787  18.677   3.308  10.592 -0.2669  0.0820  0.1675
  613POPI   PO4 9788  18.269   3.109  10.140 -0.1015  0.0995  0.0546
  613POPI   GL1 9789  18.189   3.135   9.712  0.2998 -0.0969 -0.4713
  613POPI   GL2 9790  17.862   3.165   9.917  0.1952 -0.0816 -0.1854
  613POPI   C1A 9791  18.110   3.026   9.326  0.0976 -0.0683  0.1995
  613POPI   D2A 9792  18.124   2.981   8.883 -0.1892  0.0206  0.2704
  613POPI   C3A 9793  18.131   2.897   8.446  0.2625 -0.0767  0.1131
  613POPI   C4A 9794  18.009   2.950   8.027  0.0772  0.0962  0.0336
  613POPI   C1B 9795  17.662   3.008   9.595  0.2201  0.0778  0.0071
  613POPI   C2B 9796  17.590   3.132   9.217  0.4065 -0.2418 -0.1337
  613POPI   C3B 9797  17.547   3.110   8.804  0.2984  0.1876  0.0448
  613POPI   C4B 9798  17.678   3.108   8.415  0.0104 -0.1296  0.2860
  614POPI    C1 9799  10.999   1.859  10.581 -0.0243  0.0100 -0.0031
  614POPI    C2 9800  11.098   1.793  10.963 -0.1136 -0.0574  0.0087
  614POPI    C3 9801  11.330   2.024  10.733 -0.0225 -0.0732  0.0842
  614POPI   PO4 9802  10.906   1.665  10.463 -0.0856 -0.2185  0.2562
  614POPI   GL1 9803  10.747   1.469  10.113  0.0836  0.0196  0.0915
  614POPI   GL2 9804  10.573   1.317   9.908 -0.2714  0.0634  0.1005
  614POPI   C1A 9805  11.010   1.381   9.792 -0.0450 -0.1681  0.4104
  614POPI   D2A 9806  11.242   1.294   9.482 -0.0609 -0.0768  0.1027
  614POPI   C3A 9807  11.114   1.006   9.112  0.0995  0.1132 -0.2188
  614POPI   C4A 9808  11.253   0.636   8.801 -0.1032  0.0300  0.1657
  614POPI   C1B 9809  10.620   1.480   9.453 -0.1378  0.0884 -0.4519
  614POPI   C2B 9810  10.746   1.393   9.091 -0.0148 -0.1057 -0.0062
  614POPI   C3B 9811  10.887   1.350   8.638  0.0679  0.0875  0.2416
  614POPI   C4B 9812  10.984   1.354   8.183 -0.0430 -0.0366 -0.3802
  615POPI    C1 9813  15.424   1.518  10.231 -0.1310 -0.1344  0.1105
  615POPI    C2 9814  15.286   1.217  10.455 -0.2805 -0.3139 -0.2152
  615POPI    C3 9815  15.093   1.567  10.450 -0.1003 -0.2030  0.1730
  615POPI   PO4 9816  15.491   1.332  10.014 -0.0507  0.0042 -0.1095
  615POPI   GL1 9817  15.708   1.198   9.749  0.0809  0.1029  0.2473
  615POPI   GL2 9818  16.036   1.229   9.739  0.1907 -0.0075 -0.1417
  615POPI   C1A 9819  15.545   1.180   9.394 -0.0853 -0.0218  0.1224
  615POPI   D2A 9820  15.546   1.151   8.936 -0.0818  0.0202  0.1145
  615POPI   C3A 9821  15.593   1.012   8.459 -0.0822 -0.0550 -0.0907
  615POPI   C4A 9822  15.469   1.158   8.013 -0.1816  0.4424 -0.1510
  615POPI   C1B 9823  16.004   1.041   9.279 -0.3165  0.2045 -0.3497
  615POPI   C2B 9824  16.027   1.046   8.803 -0.0365 -0.0350 -0.1042
  615POPI   C3B 9825  16.073   0.995   8.319 -0.1661  0.0853 -0.0598
  615POPI   C4B 9826  15.958   0.794   7.961 -0.2383  0.0350 -0.0295
  616POPI    C1 9827   8.453  16.736  10.833  0.2055  0.0508  0.0511
  616POPI    C2 9828   8.445  16.457  11.120 -0.0424 -0.0544 -0.0553
  616POPI    C3 9829   8.129  16.695  11.063 -0.0428 -0.1146 -0.3191
  616POPI   PO4 9830   8.571  16.527  10.600 -0.0428 -0.0804 -0.2567
  616POPI   GL1 9831   8.739  16.550  10.090  0.0830 -0.1723 -0.0188
  616POPI   GL2 9832   8.557  16.640   9.848  0.1320 -0.0804 -0.1416
  616POPI   C1A 9833   9.043  16.357   9.800 -0.2341 -0.0573 -0.2746
  616POPI   D2A 9834   9.460  16.516   9.738  0.1685  0.0506 -0.0466
  616POPI   C3A 9835   9.609  16.666   9.310  0.2017  0.1006  0.2536
  616POPI   C4A 9836   9.649  16.734   8.902  0.3314  0.1189  0.2204
  616POPI   C1B 9837   8.567  16.624   9.416  0.1804  0.0287 -0.0566
  616POPI   C2B 9838   8.445  16.525   8.964 -0.1820  0.1135  0.0993
  616POPI   C3B 9839   8.528  16.545   8.512 -0.2049 -0.0805  0.0343
  616POPI   C4B 9840   8.844  16.627   8.284 -0.1938  0.0808  0.0433
  617POPI    C1 9841  10.034  18.356  10.582  0.1298 -0.1310  0.0157
  617POPI    C2 9842  10.266  18.136  10.822  0.1491  0.0955  0.2082
  617POPI    C3 9843  10.120  18.485  10.950 -0.0852  0.0789 -0.0055
  617POPI   PO4 9844   9.873  18.113  10.460 -0.1734 -0.1528 -0.0368
  617POPI   GL1 9845   9.836  18.037  10.081  0.0152  0.3698 -0.1122
  617POPI   GL2 9846  10.104  18.195   9.949  0.1890  0.2542  0.0452
  617POPI   C1A 9847   9.921  17.825   9.662  0.0777  0.0992 -0.1428
  617POPI   D2A 9848   9.845  17.509   9.327  0.0133 -0.0170  0.3504
  617POPI   C3A 9849   9.974  17.606   8.926  0.1171 -0.2821  0.2073
  617POPI   C4A 9850   9.764  17.829   8.592  0.2771 -0.2251 -0.1193
  617POPI   C1B 9851  10.148  18.317   9.556 -0.0332  0.1475  0.0973
  617POPI   C2B 9852  10.245  18.460   9.153  0.1667 -0.2169  0.0234
  617POPI   C3B 9853  10.206  18.540   8.766  0.1250  0.2832  0.1817
  617POPI   C4B 9854  10.076  18.257   8.406 -0.2221  0.1578 -0.3268
  618POPI    C1 9855   9.336  16.585  10.646 -0.0045  0.0543  0.1857
  618POPI    C2 9856   9.257  16.550  10.255  0.0463  0.1107  0.1700
  618POPI    C3 9857   9.022  16.370  10.524 -0.1248  0.2630  0.1236
  618POPI   PO4 9858   9.660  16.624  10.598  0.1808  0.1760  0.0295
  618POPI   GL1 9859   9.849  16.501  10.232 -0.2065  0.1828 -0.0586
  618POPI   GL2 9860   9.860  16.670   9.940 -0.0949 -0.0987 -0.1221
  618POPI   C1A 9861  10.114  16.244  10.049 -0.0101 -0.0344 -0.0125
  618POPI   D2A 9862  10.050  15.803   9.856  0.0288  0.0001 -0.0039
  618POPI   C3A 9863  10.339  15.817   9.625 -0.2089  0.0274 -0.0114
  618POPI   C4A 9864  10.466  15.807   9.262 -0.1064 -0.1393  0.3534
  618POPI   C1B 9865   9.989  16.444   9.580 -0.2156  0.1588 -0.0315
  618POPI   C2B 9866  10.050  16.092   9.243 -0.1535 -0.1847 -0.1294
  618POPI   C3B 9867  10.184  16.039   8.819 -0.4350  0.1867  0.0440
  618POPI   C4B 9868  10.138  16.112   8.321 -0.1101  0.4562  0.0537
  619POPI    C1 9869   2.563  13.057   9.975  0.1752  0.0852 -0.0320
  619POPI    C2 9870   2.961  13.095   9.973  0.2060 -0.2083  0.0164
  619POPI    C3 9871   2.787  12.827  10.213 -0.0272 -0.0346  0.0454
  619POPI   PO4 9872   2.514  13.162   9.635 -0.0580  0.0662 -0.0128
  619POPI   GL1 9873   2.521  13.250   9.305  0.1903  0.1194  0.0507
  619POPI   GL2 9874   2.523  12.797   9.300  0.0765  0.0361  0.2242
  619POPI   C1A 9875   2.317  13.036   8.892 -0.1168 -0.1759  0.3099
  619POPI   D2A 9876   1.920  12.962   8.713 -0.3708 -0.0159 -0.2366
  619POPI   C3A 9877   1.957  12.676   8.302 -0.0225 -0.0591  0.2059
  619POPI   C4A 9878   2.170  12.566   7.940  0.2322  0.2008  0.1789
  619POPI   C1B 9879   2.818  12.858   8.947 -0.1949 -0.2183 -0.0988
  619POPI   C2B 9880   2.796  12.979   8.549  0.2832  0.1417 -0.0554
  619POPI   C3B 9881   2.927  12.926   8.154  0.1533  0.0301 -0.3733
  619POPI   C4B 9882   2.783  13.188   7.799  0.1613  0.1356  0.0460
  620POPI    C1 9883  17.715  15.275  10.267  0.0731  0.2494  0.4917
  620POPI    C2 9884  17.868  14.976  10.485  0.1717 -0.0474  0.0296
  620POPI    C3 9885  18.112  15.229  10.294  0.0854  0.0860  0.0944
  620POPI   PO4 9886  17.573  15.212  10.074 -0.1042 -0.0363 -0.0437
  620POPI   GL1 9887  17.563  15.001   9.727 -0.2139 -0.4521  0.0280
  620POPI   GL2 9888  17.279  15.240   9.653  0.0442  0.1053 -0.4328
  620POPI   C1A 9889  17.646  15.202   9.277  0.0967  0.1193  0.0450
  620POPI   D2A 9890  17.898  15.410   9.035  0.0821  0.0409 -0.0186
  620POPI   C3A 9891  17.774  15.630   8.614 -0.3912  0.1184 -0.1741
  620POPI   C4A 9892  17.651  15.755   8.221 -0.0121  0.1014 -0.1606
  620POPI   C1B 9893  17.157  15.410   9.288  0.2306  0.1839 -0.0464
  620POPI   C2B 9894  17.152  15.462   8.941 -0.0557 -0.1042  0.0638
  620POPI   C3B 9895  17.383  15.343   8.640  0.1163 -0.2322 -0.0223
  620POPI   C4B 9896  17.379  15.307   8.195  0.1033 -0.0303  0.3073
  621POPI    C1 9897   6.804   4.523  10.005  0.1011 -0.0073  0.0006
  621POPI    C2 9898   7.146   4.358  10.132  0.0006 -0.1699  0.0625
  621POPI    C3 9899   6.801   4.159  10.170 -0.0912 -0.0384 -0.0691
  621POPI   PO4 9900   6.833   4.604   9.720  0.2144  0.0519 -0.2123
  621POPI   GL1 9901   6.900   4.706   9.356 -0.2159  0.1855 -0.4322
  621POPI   GL2 9902   7.000   4.481   9.267  0.1827  0.1498 -0.1069
  621POPI   C1A 9903   7.000   4.858   8.931 -0.4623  0.2297 -0.1486
  621POPI   D2A 9904   7.154   5.102   8.553 -0.0968  0.1353  0.1406
  621POPI   C3A 9905   7.405   4.888   8.347 -0.0080 -0.1800 -0.2457
  621POPI   C4A 9906   7.653   4.903   7.897 -0.1092  0.0645 -0.0854
  621POPI   C1B 9907   7.212   4.388   8.940 -0.0769 -0.3407  0.0269
  621POPI   C2B 9908   7.464   4.389   8.435 -0.2395  0.2442 -0.0991
  621POPI   C3B 9909   7.268   4.565   8.061  0.1608 -0.0902  0.1312
  621POPI   C4B 9910   7.136   4.983   7.867 -0.0956  0.0828  0.1237
  622POPI    C1 9911   3.361  13.717  10.025  0.0434  0.0615  0.2609
  622POPI    C2 9912   3.086  13.975  10.157 -0.2831 -0.0228 -0.2286
  622POPI    C3 9913   3.001  13.585  10.139 -0.0133 -0.0906 -0.0825
  622POPI   PO4 9914   3.369  13.880   9.742 -0.0735 -0.2177  0.3186
  622POPI   GL1 9915   3.277  13.741   9.263  0.2884 -0.0432 -0.3733
  622POPI   GL2 9916   3.116  13.459   9.141  0.3742  0.2392  0.1757
  622POPI   C1A 9917   3.547  13.927   8.919  0.2571 -0.1887  0.1237
  622POPI   D2A 9918   3.892  13.912   8.668 -0.0794  0.1316  0.0560
  622POPI   C3A 9919   4.017  13.804   8.347 -0.0419 -0.1263  0.3373
  622POPI   C4A 9920   3.919  13.795   7.931  0.0122 -0.1764 -0.0127
  622POPI   C1B 9921   2.947  13.343   8.809  0.0827 -0.2424  0.2807
  622POPI   C2B 9922   2.880  13.414   8.362  0.1045 -0.1691  0.0996
  622POPI   C3B 9923   3.032  13.612   8.026  0.0141 -0.1331  0.1409
  622POPI   C4B 9924   3.508  13.559   7.847 -0.2032  0.0235  0.0972
  623POPI    C1 9925  17.296   7.875  10.285 -0.0898 -0.1133 -0.0745
  623POPI    C2 9926  17.108   7.623  10.532 -0.0584  0.0622  0.1311
  623POPI    C3 9927  17.504   7.599  10.485 -0.0560  0.0698  0.1474
  623POPI   PO4 9928  17.125   7.911  10.065 -0.0011 -0.0077  0.0057
  623POPI   GL1 9929  17.230   7.848   9.710 -0.0511  0.0036  0.0375
  623POPI   GL2 9930  17.042   8.082   9.550  0.0354  0.2588  0.0878
  623POPI   C1A 9931  16.987   7.582   9.320 -0.1848  0.1929 -0.2537
  623POPI   D2A 9932  16.882   7.387   8.984  0.1341  0.3194  0.0941
  623POPI   C3A 9933  16.774   7.040   8.708 -0.0361  0.0169 -0.1798
  623POPI   C4A 9934  16.968   6.638   8.571 -0.0130 -0.2650  0.0688
  623POPI   C1B 9935  17.002   8.263   9.219 -0.1284  0.1065 -0.0421
  623POPI   C2B 9936  16.981   8.241   8.766  0.3452  0.1811  0.0053
  623POPI   C3B 9937  16.734   8.291   8.351  0.0859 -0.0875  0.1675
  623POPI   C4B 9938  16.766   8.284   7.839  0.0712  0.0825 -0.0437
  624POPI    C1 9939  18.350   2.619  10.391  0.1441 -0.2301 -0.1952
  624POPI    C2 9940  18.201   2.299  10.579  0.3627 -0.1197  0.1772
  624POPI    C3 9941  18.171   2.662  10.746  0.1917  0.0466 -0.2021
  624POPI   PO4 9942  18.555   2.490  10.193 -0.2203  0.3503  0.0341
  624POPI   GL1 9943  18.553   2.456   9.805  0.0584 -0.0373 -0.0895
  624POPI   GL2 9944  18.644   2.783   9.787 -0.2106  0.2058 -0.0830
  624POPI   C1A 9945  18.227   2.488   9.437  0.0611 -0.1888 -0.0457
  624POPI   D2A 9946  18.198   2.499   9.033  0.1375  0.2733 -0.0620
  624POPI   C3A 9947  18.396   2.520   8.647 -0.0206 -0.0738  0.0994
  624POPI   C4A 9948  18.324   2.434   8.235  0.2746 -0.1517 -0.0772
  624POPI   C1B 9949  18.570   2.805   9.304 -0.2427  0.1142  0.2209
  624POPI   C2B 9950  18.650   2.893   8.916  0.1487  0.0807 -0.1262
  624POPI   C3B 9951  18.688   2.904   8.471 -0.3537  0.2178  0.1508
  624POPI   C4B 9952  18.563   2.856   8.076  0.1555  0.0352 -0.1346
  625DPPI    C1 9953  15.767  15.911  10.564  0.0756 -0.1341  0.1263
  625DPPI    C2 9954  15.770  15.570  10.773  0.0127 -0.1309  0.1325
  625DPPI    C3 9955  15.534  15.873  10.887 -0.1020 -0.1681 -0.0043
  625DPPI   PO4 9956  15.708  15.874  10.347 -0.2170  0.1126  0.0096
  625DPPI   GL1 9957  15.761  15.583  10.071  0.4075  0.1620  0.3009
  625DPPI   GL2 9958  16.001  15.568   9.725  0.1937 -0.1507 -0.1037
  625DPPI   C1A 9959  15.444  15.339   9.735  0.0317 -0.1279  0.3361
  625DPPI   C2A 9960  15.324  15.281   9.292  0.0531  0.1415  0.0652
  625DPPI   C3A 9961  15.227  15.255   8.871 -0.4404  0.1367  0.0445
  625DPPI   C4A 9962  15.081  15.626   8.473  0.0324  0.0937 -0.1427
  625DPPI   C1B 9963  15.770  15.388   9.405  0.2372 -0.0333  0.2299
  625DPPI   C2B 9964  15.761  15.509   8.942  0.1131 -0.1486 -0.1645
  625DPPI   C3B 9965  15.617  15.429   8.596  0.0384 -0.1722  0.0576
  625DPPI   C4B 9966  15.401  15.323   8.156  0.1460 -0.1783  0.1624
  626DPPI    C1 9967  11.208   3.387  10.199  0.0429 -0.0812  0.3056
  626DPPI    C2 9968  11.144   2.993  10.230 -0.2403 -0.0499  0.1485
  626DPPI    C3 9969  10.953   3.247  10.474 -0.2269  0.0041  0.1029
  626DPPI   PO4 9970  11.211   3.491   9.982 -0.0226  0.0021 -0.2462
  626DPPI   GL1 9971  11.043   3.538   9.585 -0.0384 -0.3957 -0.1383
  626DPPI   GL2 9972  10.938   3.817   9.704 -0.1483  0.1051 -0.2920
  626DPPI   C1A 9973  11.125   3.335   9.225 -0.0720 -0.1268 -0.2287
  626DPPI   C2A 9974  11.298   3.298   8.829  0.0549  0.3281 -0.2377
  626DPPI   C3A 9975  11.518   3.344   8.412  0.0043 -0.0308  0.1422
  626DPPI   C4A 9976  11.751   3.013   8.085 -0.0621 -0.1831 -0.1861
  626DPPI   C1B 9977  10.764   3.888   9.243 -0.0886 -0.0333  0.0067
  626DPPI   C2B 9978  10.965   3.846   8.791  0.2628 -0.0280 -0.2044
  626DPPI   C3B 9979  11.117   3.659   8.500 -0.0282 -0.0294 -0.0418
  626DPPI   C4B 9980  11.259   3.568   8.078 -0.0188 -0.0215  0.0232
  627DPPI    C1 9981  14.303  11.055  10.678 -0.0184  0.2649  0.1138
  627DPPI    C2 9982  13.976  11.279  10.734 -0.2205 -0.0969  0.4301
  627DPPI    C3 9983  14.207  11.180  11.045  0.0036 -0.1253  0.2579
  627DPPI   PO4 9984  14.366  11.107  10.385  0.0272  0.3032 -0.0892
  627DPPI   GL1 9985  14.706  11.146  10.075 -0.0604  0.1915 -0.0014
  627DPPI   GL2 9986  15.011  11.141  10.085  0.1002 -0.0377 -0.1032
  627DPPI   C1A 9987  14.659  11.086   9.633  0.0574  0.3430 -0.1664
  627DPPI   C2A 9988  14.660  11.241   9.167 -0.1720 -0.0155  0.0503
  627DPPI   C3A 9989  14.613  11.128   8.719  0.3393  0.0533 -0.1213
  627DPPI   C4A 9990  14.674  11.315   8.322  0.1124 -0.4689 -0.1366
  627DPPI   C1B 9991  15.083  11.318   9.770  0.1764 -0.0943 -0.2451
  627DPPI   C2B 9992  15.077  11.387   9.363  0.1792  0.2201 -0.0743
  627DPPI   C3B 9993  15.141  11.449   8.969 -0.0351  0.1550  0.0178
  627DPPI   C4B 9994  15.111  11.439   8.480  0.0225 -0.1808  0.3118
  628DPPI    C1 9995  17.697   2.401  10.706 -0.0664  0.0532  0.0612
  628DPPI    C2 9996  17.840   2.074  10.888 -0.1488 -0.0929 -0.1324
  628DPPI    C3 9997  17.448   2.156  10.902 -0.1324 -0.0176 -0.1086
  628DPPI   PO4 9998  17.772   2.376  10.485  0.0462 -0.0416 -0.0369
  628DPPI   GL1 9999  18.016   2.202  10.110  0.2544 -0.2164  0.0343
  628DPPI   GL210000  17.724   2.292   9.935  0.0611 -0.0835  0.2299
  628DPPI   C1A10001  18.107   2.054   9.676  0.0336 -0.1328 -0.1008
  628DPPI   C2A10002  17.944   2.147   9.267  0.0111  0.0658  0.2149
  628DPPI   C3A10003  17.932   2.150   8.835 -0.0471  0.2011  0.1500
  628DPPI   C4A10004  17.990   2.097   8.360  0.2119  0.0158  0.1461
  628DPPI   C1B10005  17.688   2.476   9.583  0.0763  0.1941 -0.2782
  628DPPI   C2B10006  17.795   2.674   9.251 -0.1050 -0.1950  0.4234
  628DPPI   C3B10007  17.781   2.623   8.788  0.1276  0.0522 -0.1038
  628DPPI   C4B10008  17.835   2.518   8.471 -0.1297 -0.0822  0.0682
  629DPPI    C110009  15.220   0.765  10.660  0.0533 -0.0150 -0.0604
  629DPPI    C210010  14.826   0.719  10.716  0.0456 -0.2540 -0.2899
  629DPPI    C310011  15.086   0.528  10.953  0.0255 -0.0763 -0.1222
  629DPPI   PO410012  15.372   0.744  10.444 -0.0799  0.1752 -0.0696
  629DPPI   GL110013  15.291   0.461  10.060 -0.2780 -0.1057  0.2631
  629DPPI   GL210014  15.370   0.847   9.903  0.0594  0.3418 -0.2787
  629DPPI   C1A10015  15.265   0.068   9.814 -0.0724 -0.2855 -0.1059
  629DPPI   C2A10016  15.205  -0.107   9.321 -0.1232 -0.0398  0.1580
  629DPPI   C3A10017  15.214  -0.256   8.989 -0.0590  0.1529 -0.3569
  629DPPI   C4A10018  15.509  -0.293   8.609 -0.1352  0.0823 -0.0162
  629DPPI   C1B10019  15.119   0.898   9.611  0.1547  0.0807  0.2293
  629DPPI   C2B10020  14.926   1.125   9.214 -0.0703  0.0114  0.2466
  629DPPI   C3B10021  15.043   1.263   8.816 -0.0301 -0.2133 -0.4185
  629DPPI   C4B10022  15.064   0.989   8.422 -0.1109 -0.2902 -0.1394
  630DPPI    C110023   8.918  17.484  10.341 -0.0836  0.0109  0.0637
  630DPPI    C210024   8.938  17.764  10.626 -0.0808  0.0000  0.0742
  630DPPI    C310025   8.594  17.700  10.433 -0.0731  0.0326  0.0496
  630DPPI   PO410026   9.192  17.461  10.175  0.0876  0.0696 -0.0346
  630DPPI   GL110027   9.124  17.513   9.754  0.0877  0.3218  0.0223
  630DPPI   GL210028   8.988  17.425   9.576 -0.0961  0.2076 -0.2009
  630DPPI   C1A10029   9.345  17.683   9.346  0.0307 -0.0826  0.1998
  630DPPI   C2A10030   9.476  17.555   8.969  0.1338 -0.2119 -0.2982
  630DPPI   C3A10031   9.593  17.334   8.539  0.2015 -0.2107 -0.0204
  630DPPI   C4A10032   9.794  17.259   8.187 -0.0350 -0.3067  0.1306
  630DPPI   C1B10033   8.954  17.468   9.117  0.1137 -0.2898  0.0111
  630DPPI   C2B10034   8.970  17.591   8.740  0.0093 -0.1803  0.2491
  630DPPI   C3B10035   9.095  17.232   8.316  0.1841 -0.1274  0.0998
  630DPPI   C4B10036   8.848  17.060   7.996 -0.0518  0.1215  0.1206
  631DPPI    C110037  10.844   0.384   9.990  0.3669  0.0829 -0.0883
  631DPPI    C210038  10.597   0.233   9.715 -0.0181  0.1840  0.1942
  631DPPI    C310039  10.780  -0.010   9.974  0.0766  0.1209  0.0690
  631DPPI   PO410040  11.002   0.539   9.809 -0.0179  0.1049 -0.1926
  631DPPI   GL110041  11.163   0.777   9.565  0.2555  0.1531 -0.0063
  631DPPI   GL210042  10.982   0.580   9.295 -0.2172  0.1007  0.0446
  631DPPI   C1A10043  11.541   0.875   9.365 -0.1780 -0.0582 -0.0128
  631DPPI   C2A10044  11.771   0.821   8.959  0.1719  0.0472  0.1444
  631DPPI   C3A10045  11.742   0.792   8.592 -0.2882 -0.0623 -0.0582
  631DPPI   C4A10046  11.599   0.560   8.221 -0.1540 -0.0111  0.0240
  631DPPI   C1B10047  10.807   0.450   9.001 -0.1250 -0.1642 -0.0647
  631DPPI   C2B10048  10.835   0.359   8.619  0.3850  0.1890  0.1837
  631DPPI   C3B10049  10.612   0.456   8.279 -0.0859  0.0202  0.0891
  631DPPI   C4B10050  10.501   0.703   7.925  0.1199 -0.2206  0.0507
  632DPPI    C110051  12.529   9.350  10.741 -0.0980  0.1738  0.0309
  632DPPI    C210052  12.252   9.200  10.987 -0.0315 -0.0694 -0.0393
  632DPPI    C310053  12.582   9.368  11.137 -0.1926  0.1800  0.0437
  632DPPI   PO410054  12.442   9.502  10.592 -0.0478  0.0116  0.0595
  632DPPI   GL110055  12.439   9.618  10.129  0.1056  0.0269 -0.2407
  632DPPI   GL210056  12.483   9.874  10.071 -0.0821 -0.0276  0.0127
  632DPPI   C1A10057  12.397   9.490   9.759  0.0020 -0.0392 -0.0974
  632DPPI   C2A10058  12.367   9.523   9.356  0.4132 -0.0813  0.0290
  632DPPI   C3A10059  12.343   9.761   8.971 -0.0734 -0.1866  0.2404
  632DPPI   C4A10060  12.235  10.028   8.721 -0.2728 -0.1871 -0.0797
  632DPPI   C1B10061  12.522  10.124   9.740  0.3636  0.5080  0.2634
  632DPPI   C2B10062  12.708  10.496   9.521 -0.3732  0.0422 -0.1488
  632DPPI   C3B10063  13.083  10.410   9.232  0.0140 -0.1196 -0.1052
  632DPPI   C4B10064  13.376  10.582   8.955  0.1829 -0.3601  0.0729
  633DPPI    C110065   1.152   8.857  10.131 -0.0751 -0.0730  0.0150
  633DPPI    C210066   0.898   9.088  10.337 -0.0487 -0.2000  0.1926
  633DPPI    C310067   0.983   8.719  10.467  0.1391 -0.2004  0.0723
  633DPPI   PO410068   1.017   8.818   9.877  0.1131 -0.1527  0.2204
  633DPPI   GL110069   1.001   8.542   9.605  0.1625  0.1515  0.0645
  633DPPI   GL210070   1.217   8.543   9.415 -0.0599 -0.1769  0.2801
  633DPPI   C1A10071   0.674   8.447   9.311 -0.1550  0.1553  0.2995
  633DPPI   C2A10072   0.544   8.399   8.874  0.2756  0.1227  0.1502
  633DPPI   C3A10073   0.478   8.413   8.361 -0.3605  0.0116 -0.0296
  633DPPI   C4A10074   0.409   8.216   7.902  0.0632 -0.2083 -0.1547
  633DPPI   C1B10075   1.084   8.453   9.027  0.0559 -0.0641 -0.1633
  633DPPI   C2B10076   1.005   8.387   8.537 -0.0639 -0.2113 -0.2415
  633DPPI   C3B10077   0.961   8.572   8.177 -0.3765 -0.0044 -0.1972
  633DPPI   C4B10078   1.050   8.727   7.741 -0.1776  0.1797  0.1956
  634DPPI    C110079  16.236  13.039  10.693  0.0481 -0.0951  0.0164
  634DPPI    C210080  16.494  12.735  10.728 -0.0552 -0.1773  0.0707
  634DPPI    C310081  16.244  12.820  11.028 -0.0867 -0.0936  0.0211
  634DPPI   PO410082  16.270  13.068  10.451  0.2757  0.4500 -0.0662
  634DPPI   GL110083  16.377  13.303  10.086  0.1440 -0.0981 -0.3191
  634DPPI   GL210084  16.605  13.092   9.954 -0.2399 -0.1371 -0.0090
  634DPPI   C1A10085  16.226  13.318   9.639  0.1183  0.0763 -0.0636
  634DPPI   C2A10086  16.288  13.350   9.238  0.1084  0.1757 -0.2179
  634DPPI   C3A10087  16.342  13.293   8.713  0.1131 -0.0248 -0.1537
  634DPPI   C4A10088  16.462  13.266   8.229  0.3656  0.1688 -0.0878
  634DPPI   C1B10089  16.696  12.979   9.494  0.1940 -0.2341 -0.3515
  634DPPI   C2B10090  16.737  13.013   8.909 -0.2887  0.0205 -0.0629
  634DPPI   C3B10091  16.772  12.979   8.509 -0.0821 -0.0254  0.3201
  634DPPI   C4B10092  16.891  12.945   8.034 -0.2215  0.2489 -0.1526
  635PYPI    C110093  15.812   7.614  10.437 -0.1370  0.1302 -0.1360
  635PYPI    C210094  16.162   7.568  10.625 -0.2955 -0.2086  0.0859
  635PYPI    C310095  15.952   7.905  10.672 -0.1038 -0.0935  0.1269
  635PYPI   PO410096  15.930   7.655  10.189  0.0034  0.0524 -0.1612
  635PYPI   GL110097  16.297   7.566   9.896  0.1091  0.7372  0.0172
  635PYPI   GL210098  16.159   7.720   9.731  0.2610 -0.0525 -0.1216
  635PYPI   C1A10099  16.465   7.378   9.494 -0.0474  0.0200  0.1327
  635PYPI   C2A10100  16.409   7.515   9.013 -0.0439  0.0565 -0.0281
  635PYPI   D3A10101  16.481   7.482   8.614 -0.0744  0.2812 -0.0983
  635PYPI   C4A10102  16.341   7.325   8.308 -0.1993 -0.3183 -0.2836
  635PYPI   C1B10103  16.465   7.925   9.448 -0.1278 -0.4646 -0.1668
  635PYPI   C2B10104  16.694   7.907   9.100 -0.0801  0.2091  0.0154
  635PYPI   C3B10105  16.536   7.990   8.671 -0.2408  0.0554 -0.1072
  635PYPI   C4B10106  16.412   7.851   8.227 -0.0477 -0.0640  0.1582
  636PYPI    C110107  15.570   8.472  10.252 -0.0836 -0.1022 -0.3900
  636PYPI    C210108  15.744   8.112  10.255 -0.1917 -0.1592  0.1289
  636PYPI    C310109  15.364   8.151  10.373 -0.3273  0.0648 -0.3538
  636PYPI   PO410110  15.716   8.589  10.038  0.2207 -0.2540  0.2131
  636PYPI   GL110111  15.829   8.655   9.639  0.0192  0.0449 -0.0284
  636PYPI   GL210112  15.959   8.954   9.581 -0.1823  0.1075  0.0905
  636PYPI   C1A10113  15.548   8.746   9.361 -0.4038 -0.1304  0.0700
  636PYPI   C2A10114  15.459   8.612   8.859  0.1198 -0.1694  0.0617
  636PYPI   D3A10115  15.637   8.629   8.410 -0.2006  0.1483  0.1549
  636PYPI   C4A10116  15.761   8.328   8.064  0.0834 -0.3308 -0.1268
  636PYPI   C1B10117  16.112   8.792   9.243 -0.2310  0.1518 -0.3035
  636PYPI   C2B10118  16.048   8.675   8.747 -0.2727  0.1210  0.1084
  636PYPI   C3B10119  16.236   8.958   8.448  0.2142 -0.0061 -0.0802
  636PYPI   C4B10120  16.164   9.319   8.468  0.1809  0.0860  0.0321
  637PYPI    C110121  16.015  17.591  10.747  0.0631 -0.0718  0.0443
  637PYPI    C210122  15.915  17.595  11.134  0.0023  0.1246  0.0279
  637PYPI    C310123  16.179  17.860  10.994 -0.0855  0.1484 -0.0936
  637PYPI   PO410124  15.693  17.596  10.580  0.1174  0.3624 -0.1182
  637PYPI   GL110125  15.561  17.676  10.186  0.0217  0.2710  0.0726
  637PYPI   GL210126  15.581  17.775   9.971 -0.1916 -0.2571 -0.2194
  637PYPI   C1A10127  15.580  17.255   9.982  0.0226  0.0896 -0.1315
  637PYPI   C2A10128  15.698  16.937   9.655 -0.2125 -0.0004  0.1743
  637PYPI   D3A10129  15.680  16.883   9.269 -0.2280  0.0337  0.1514
  637PYPI   C4A10130  15.366  16.868   8.933 -0.1233  0.3086 -0.2994
  637PYPI   C1B10131  15.885  17.800   9.550  0.1605 -0.2626 -0.0554
  637PYPI   C2B10132  15.865  17.660   9.135 -0.1018  0.1245  0.2078
  637PYPI   C3B10133  15.804  17.750   8.669 -0.1068  0.0716 -0.0424
  637PYPI   C4B10134  15.718  18.101   8.424 -0.2533  0.1847  0.0352
  638PYPI    C110135   8.289   6.067   9.913 -0.2781 -0.0940  0.0093
  638PYPI    C210136   8.317   5.971  10.300 -0.1152  0.4292  0.1349
  638PYPI    C310137   8.020   6.208  10.173 -0.3390  0.0260 -0.1172
  638PYPI   PO410138   8.451   5.838   9.769 -0.1957 -0.1160 -0.2332
  638PYPI   GL110139   8.713   5.651   9.494 -0.2122 -0.3261 -0.0914
  638PYPI   GL210140   8.936   5.626   9.658  0.1698 -0.3190 -0.0333
  638PYPI   C1A10141   8.743   5.711   9.062 -0.1931 -0.2037  0.0194
  638PYPI   C2A10142   8.625   5.619   8.655 -0.1380 -0.0562 -0.0429
  638PYPI   D3A10143   8.690   5.549   8.158 -0.0588  0.1631  0.2609
  638PYPI   C4A10144   8.320   5.564   7.955 -0.0627 -0.0435  0.3960
  638PYPI   C1B10145   9.221   5.635   9.308 -0.1597  0.0610  0.3642
  638PYPI   C2B10146   9.173   5.597   8.845  0.1263  0.0014 -0.0537
  638PYPI   C3B10147   9.209   5.454   8.364  0.0666  0.2771  0.0783
  638PYPI   C4B10148   9.125   5.419   7.996  0.0926  0.0673  0.2113
  639PYPI    C110149   8.269  18.725   9.995  0.3355 -0.1046  0.1597
  639PYPI    C210150   8.117  18.903  10.320  0.1919  0.0177  0.0271
  639PYPI    C310151   8.453  18.688  10.348  0.0863 -0.1176  0.2908
  639PYPI   PO410152   8.252  18.887   9.807 -0.0295 -0.0409  0.0746
  639PYPI   GL110153   8.111  18.898   9.435 -0.0134 -0.0397 -0.0457
  639PYPI   GL210154   7.923  18.954   9.243  0.2028 -0.0321  0.1140
  639PYPI   C1A10155   8.416  18.809   9.161 -0.0981 -0.0504 -0.2181
  639PYPI   C2A10156   8.487  18.801   8.717 -0.1163 -0.0380 -0.2359
  639PYPI   D3A10157   8.361  19.149   8.395  0.3047 -0.3415 -0.5554
  639PYPI   C4A10158   8.101  19.440   8.468  0.4109  0.0953 -0.2652
  639PYPI   C1B10159   8.047  18.926   8.834 -0.1540  0.0826 -0.2108
  639PYPI   C2B10160   7.806  19.041   8.518 -0.1570  0.0670  0.1931
  639PYPI   C3B10161   7.573  19.053   8.184 -0.1337 -0.0323 -0.1449
  639PYPI   C4B10162   7.271  18.811   7.919 -0.0866  0.1120 -0.1626
  640PYPI    C110163  13.919   6.341  10.233 -0.3053 -0.2440 -0.1265
  640PYPI    C210164  13.986   6.723  10.332  0.0859 -0.3101 -0.1194
  640PYPI    C310165  13.829   6.471  10.601 -0.1377 -0.1658 -0.1122
  640PYPI   PO410166  13.909   6.306   9.991  0.1244 -0.0747  0.0929
  640PYPI   GL110167  13.776   6.160   9.641 -0.1668 -0.1480 -0.2427
  640PYPI   GL210168  13.628   6.391   9.647  0.0497 -0.0927  0.2113
  640PYPI   C1A10169  14.002   5.986   9.248  0.1746  0.0827  0.4872
  640PYPI   C2A10170  13.964   5.812   8.836 -0.0031  0.0513 -0.0265
  640PYPI   D3A10171  13.957   5.875   8.382 -0.0849  0.2361 -0.0149
  640PYPI   C4A10172  13.910   5.780   8.009 -0.3540  0.1372 -0.3486
  640PYPI   C1B10173  13.694   6.529   9.299  0.1119 -0.0146  0.2134
  640PYPI   C2B10174  13.915   6.352   8.949 -0.3058  0.0317 -0.1454
  640PYPI   C3B10175  13.916   6.360   8.503 -0.2216 -0.0161  0.0593
  640PYPI   C4B10176  13.836   6.266   8.062  0.2934  0.0220 -0.0368
  641ERGO   ROH10177   9.601   3.112   9.518  0.3762 -0.3457  0.0063
  641ERGO    R110178   9.642   3.018   9.254  0.1191 -0.1863 -0.0952
  641ERGO    R210179   9.438   3.001   9.069 -0.0209  0.1399  0.0192
  641ERGO    R310180   9.607   3.151   8.917  0.0185  0.1022  0.0262
  641ERGO    R410181   9.415   3.038   8.726  0.0290  0.1109  0.0131
  641ERGO    R510182   9.633   3.025   8.715  0.0276  0.0804  0.0419
  641ERGO    C110183   9.561   3.200   8.384  0.0951  0.0585  0.0161
  641ERGO    C210184   9.280   3.224   8.289  0.2524  0.0488 -0.0343
  642ERGO   ROH10185  13.381   2.508  10.065  0.0294 -0.2045  0.0034
  642ERGO    R110186  13.538   2.379   9.869 -0.0417 -0.3478  0.0376
  642ERGO    R210187  13.442   2.173   9.712 -0.2792 -0.0979 -0.1611
  642ERGO    R310188  13.525   2.333   9.508  0.1318 -0.0996 -0.0019
  642ERGO    R410189  13.461   2.076   9.380 -0.3846  0.1397 -0.2384
  642ERGO    R510190  13.649   2.186   9.365 -0.1374 -0.2491 -0.0834
  642ERGO    C110191  13.552   2.170   8.996 -0.0601  0.2765 -0.1340
  642ERGO    C210192  13.621   2.248   8.669 -0.0597 -0.0734 -0.0871
  643ERGO   ROH10193  17.289  14.178   9.532 -0.1159  0.1315  0.0275
  643ERGO    R110194  17.234  14.191   9.254  0.0028 -0.0521 -0.0071
  643ERGO    R210195  17.288  14.415   9.102 -0.1891 -0.0461 -0.0775
  643ERGO    R310196  17.426  14.238   8.949  0.1003  0.0470  0.0706
  643ERGO    R410197  17.339  14.447   8.762 -0.1734 -0.2153 -0.0912
  643ERGO    R510198  17.306  14.233   8.742  0.1472 -0.2792  0.0518
  643ERGO    C110199  17.499  14.300   8.420  0.1074 -0.2266  0.0398
  643ERGO    C210200  17.554  14.362   7.964  0.1788 -0.1684 -0.2807
  644ERGO   ROH10201   6.992  13.333   9.966  0.1924  0.1253  0.0150
  644ERGO    R110202   7.158  13.318   9.738  0.1084  0.0292 -0.0416
  644ERGO    R210203   7.311  13.095   9.679  0.1495  0.0299  0.0360
  644ERGO    R310204   7.181  13.108   9.441  0.0466 -0.1510  0.0813
  644ERGO    R410205   7.417  12.944   9.387  0.1824  0.0757  0.0251
  644ERGO    R510206   7.356  13.122   9.278 -0.0344 -0.0124  0.0110
  644ERGO    C110207   7.357  12.869   8.993  0.1051 -0.0675  0.0613
  644ERGO    C210208   7.409  12.711   8.678  0.0176  0.2293 -0.1931
  645ERGO   ROH10209   0.160   0.363   9.686 -0.0190  0.1930 -0.0939
  645ERGO    R110210   0.221   0.325   9.412 -0.0666  0.1878 -0.1046
  645ERGO    R210211   0.194   0.081   9.286  0.1274  0.1263 -0.0404
  645ERGO    R310212   0.041   0.225   9.113 -0.0665 -0.0557 -0.0238
  645ERGO    R410213   0.148   0.005   8.952  0.1544  0.0620 -0.0289
  645ERGO    R510214   0.162   0.217   8.906 -0.0957  0.0736 -0.0429
  645ERGO    C110215  -0.021   0.095   8.595 -0.0119 -0.1464 -0.0067
  645ERGO    C210216  -0.101   0.175   8.310 -0.2382 -0.0837 -0.0322
  646ERGO   ROH10217   5.952   8.335   9.133 -0.0650  0.0858  0.1297
  646ERGO    R110218   6.020   8.449   8.883 -0.2476  0.0295  0.0535
  646ERGO    R210219   6.280   8.463   8.791 -0.2757  0.3234  0.0188
  646ERGO    R310220   6.176   8.337   8.574 -0.1319  0.0539  0.1012
  646ERGO    R410221   6.434   8.442   8.482 -0.2833  0.3743  0.0111
  646ERGO    R510222   6.239   8.475   8.389 -0.3504  0.0497  0.0169
  646ERGO    C110223   6.426   8.312   8.099 -0.1528  0.1510  0.0839
  646ERGO    C210224   6.532   8.322   7.767 -0.0205 -0.1470 -0.1782
  647ERGO   ROH10225  18.172  18.302   9.768  0.0885 -0.0800  0.0548
  647ERGO    R110226  18.281  18.181   9.537  0.1521  0.2172 -0.0741
  647ERGO    R210227  18.142  17.997   9.385  0.3988 -0.0170 -0.0144
  647ERGO    R310228  18.201  18.167   9.182 -0.1088  0.1746 -0.0171
  647ERGO    R410229  18.029  17.964   9.060  0.2729 -0.2117  0.0462
  647ERGO    R510230  18.226  18.026   8.991  0.1057  0.2611 -0.0607
  647ERGO    C110231  18.019  18.105   8.680 -0.2768 -0.1450  0.0788
  647ERGO    C210232  18.042  18.161   8.330 -0.0581 -0.0863  0.3229
  648ERGO   ROH10233  18.133  11.651   9.451 -0.0327  0.1838 -0.1491
  648ERGO    R110234  18.094  11.463   9.244 -0.0192  0.0774 -0.0550
  648ERGO    R210235  17.879  11.475   9.071  0.0471  0.0455 -0.1338
  648ERGO    R310236  18.073  11.470   8.881  0.1084 -0.1268 -0.0691
  648ERGO    R410237  17.822  11.471   8.730  0.1476  0.0550 -0.1513
  648ERGO    R510238  17.985  11.328   8.709  0.0472 -0.0794 -0.0824
  648ERGO    C110239  17.972  11.463   8.353  0.2637 -0.1013 -0.1007
  648ERGO    C210240  17.906  11.460   8.027 -0.0835 -0.0398 -0.0118
  649ERGO   ROH10241  13.195  16.812   9.669  0.0866 -0.1506 -0.0462
  649ERGO    R110242  13.170  16.759   9.393  0.0299  0.1562 -0.1033
  649ERGO    R210243  13.253  16.938   9.199  0.4880  0.1577  0.0806
  649ERGO    R310244  13.396  16.725   9.109  0.0321 -0.0984 -0.0737
  649ERGO    R410245  13.364  16.899   8.874  0.7341  0.3586  0.1375
  649ERGO    R510246  13.312  16.687   8.887  0.1565  0.4540 -0.2310
  649ERGO    C110247  13.563  16.677   8.600  0.4495  0.2352  0.0257
  649ERGO    C210248  13.574  16.706   8.257 -0.2092 -0.1696  0.0501
  650ERGO   ROH10249   0.303   6.467   9.286  0.0648 -0.5281 -0.0783
  650ERGO    R110250   0.415   6.629   9.083  0.0822 -0.3692  0.0555
  650ERGO    R210251   0.673   6.593   8.990  0.0775 -0.3237  0.0206
  650ERGO    R310252   0.550   6.577   8.748  0.0706 -0.1046  0.0086
  650ERGO    R410253   0.827   6.498   8.695  0.0232 -0.2302 -0.0381
  650ERGO    R510254   0.715   6.654   8.592  0.1136 -0.1030  0.0566
  650ERGO    C110255   0.800   6.428   8.297 -0.0149  0.0299 -0.0836
  650ERGO    C210256   0.748   6.475   7.923  0.0070  0.0743 -0.0394
  651ERGO   ROH10257  11.173  14.376  10.415 -0.1405 -0.0543 -0.0897
  651ERGO    R110258  11.049  14.429  10.166 -0.0720 -0.1852 -0.1522
  651ERGO    R210259  11.148  14.614   9.988 -0.1955 -0.0540 -0.0851
  651ERGO    R310260  11.141  14.405   9.815  0.1464 -0.0541 -0.1065
  651ERGO    R410261  11.135  14.644   9.644 -0.1278 -0.0422 -0.0870
  651ERGO    R510262  10.993  14.478   9.640  0.0979 -0.2402 -0.1464
  651ERGO    C110263  11.120  14.464   9.281  0.2324 -0.0355 -0.1082
  651ERGO    C210264  11.154  14.548   8.947 -0.1582 -0.0636 -0.1671
  652ERGO   ROH10265   7.886   6.163   9.156 -0.1917 -0.2318 -0.1431
  652ERGO    R110266   8.022   6.309   8.955 -0.0129 -0.1163  0.0590
  652ERGO    R210267   8.063   6.209   8.700  0.2474  0.0129  0.0501
  652ERGO    R310268   7.944   6.442   8.626  0.2930  0.0350  0.0428
  652ERGO    R410269   8.017   6.312   8.374  0.1556 -0.0518  0.0413
  652ERGO    R510270   8.069   6.514   8.435  0.2460 -0.0511 -0.0245
  652ERGO    C110271   7.880   6.590   8.113  0.1450 -0.0688  0.0293
  652ERGO    C210272   7.961   6.477   7.714  0.2894 -0.0680 -0.2442
  653ERGO   ROH10273  13.732  14.749   9.651  0.0264  0.1687 -0.0511
  653ERGO    R110274  13.643  14.762   9.382  0.0031  0.1589 -0.0447
  653ERGO    R210275  13.752  14.937   9.198 -0.0457  0.1904 -0.0503
  653ERGO    R310276  13.788  14.710   9.053 -0.0080  0.2000 -0.0546
  653ERGO    R410277  13.786  14.926   8.854 -0.1931  0.1792 -0.0646
  653ERGO    R510278  13.662  14.747   8.853 -0.1103  0.1269  0.0002
  653ERGO    C110279  13.840  14.707   8.517 -0.2437  0.1817 -0.0769
  653ERGO    C210280  13.876  14.623   8.221  0.0298  0.0169 -0.0317
  654ERGO   ROH10281   2.341   8.218   9.477  0.1871  0.1495  0.1096
  654ERGO    R110282   2.512   8.195   9.253 -0.0022 -0.1023 -0.0129
  654ERGO    R210283   2.419   8.121   9.003 -0.2919  0.0446  0.0435
  654ERGO    R310284   2.541   8.352   8.926  0.0053 -0.1324 -0.0245
  654ERGO    R410285   2.417   8.249   8.681 -0.4222  0.1356  0.0802
  654ERGO    R510286   2.626   8.304   8.707 -0.3027 -0.2130 -0.1266
  654ERGO    C110287   2.529   8.539   8.422 -0.2190  0.0223  0.0375
  654ERGO    C210288   2.443   8.705   8.073  0.1497  0.0558 -0.0818
  655ERGO   ROH10289  10.514  14.206  10.779 -0.1904  0.0328  0.0341
  655ERGO    R110290  10.437  14.333  10.538 -0.0074  0.1247  0.0224
  655ERGO    R210291  10.621  14.433  10.357  0.1452 -0.2183 -0.0188
  655ERGO    R310292  10.486  14.275  10.182 -0.1505 -0.0230  0.0251
  655ERGO    R410293  10.623  14.474  10.014 -0.1236 -0.0634 -0.0051
  655ERGO    R510294  10.410  14.427  10.012 -0.1706  0.1235  0.1611
  655ERGO    C110295  10.497  14.349   9.649 -0.5578  0.2104  0.0441
  655ERGO    C210296  10.614  14.368   9.250 -0.2343  0.1245  0.1979
  656ERGO   ROH10297  11.647   2.250   9.774  0.0068 -0.0651 -0.0031
  656ERGO    R110298  11.790   2.334   9.545  0.0826 -0.1126  0.0282
  656ERGO    R210299  11.893   2.156   9.360 -0.1770 -0.1347 -0.0907
  656ERGO    R310300  11.751   2.307   9.184 -0.0046  0.1575  0.0146
  656ERGO    R410301  11.986   2.219   9.033 -0.2645 -0.3072 -0.1509
  656ERGO    R510302  11.918   2.424   9.058  0.1529 -0.1621 -0.0902
  656ERGO    C110303  11.907   2.396   8.678 -0.1535 -0.1333 -0.0869
  656ERGO    C210304  11.953   2.539   8.395 -0.0463 -0.1381  0.0299
  657ERGO   ROH10305  10.378   3.563   9.706 -0.0313  0.0740 -0.2212
  657ERGO    R110306  10.547   3.536   9.480 -0.0456 -0.0176 -0.2212
  657ERGO    R210307  10.564   3.301   9.335 -0.1814 -0.0253 -0.2285
  657ERGO    R310308  10.504   3.463   9.126 -0.0868  0.0170 -0.2230
  657ERGO    R410309  10.646   3.238   9.005 -0.0887  0.0139 -0.2130
  657ERGO    R510310  10.695   3.449   8.982 -0.0452  0.0077 -0.1653
  657ERGO    C110311  10.638   3.354   8.617  0.0540  0.0764 -0.1988
  657ERGO    C210312  10.536   3.225   8.321 -0.1910 -0.1194 -0.0466
  658ERGO   ROH10313  17.279   1.367   9.932  0.0651  0.1821 -0.1237
  658ERGO    R110314  17.351   1.448   9.670  0.1783 -0.0086 -0.1533
  658ERGO    R210315  17.453   1.273   9.483 -0.1262 -0.2347 -0.1127
  658ERGO    R310316  17.248   1.367   9.330  0.0115  0.0632 -0.1221
  658ERGO    R410317  17.446   1.268   9.137 -0.0970 -0.1881 -0.1143
  658ERGO    R510318  17.357   1.467   9.141  0.1707 -0.0604 -0.1009
  658ERGO    C110319  17.250   1.353   8.793  0.0495  0.1187 -0.1241
  658ERGO    C210320  17.322   1.339   8.432  0.5206  0.1544  0.0334
  659ERGO   ROH10321   0.853   4.206   9.198 -0.0976 -0.3147 -0.0065
  659ERGO    R110322   0.901   4.175   8.921  0.0209 -0.1869  0.0010
  659ERGO    R210323   0.764   3.992   8.765  0.0481 -0.0661 -0.1473
  659ERGO    R310324   0.710   4.211   8.613  0.1759  0.0185 -0.0779
  659ERGO    R410325   0.768   3.998   8.420 -0.2668 -0.0742 -0.1555
  659ERGO    R510326   0.863   4.194   8.429 -0.0018 -0.1767 -0.2272
  659ERGO    C110327   0.720   4.207   8.076 -0.3302  0.0005 -0.0950
  659ERGO    C210328   0.662   4.380   7.774 -0.0644  0.1010  0.1287
  660ERGO   ROH10329   1.610  18.676   9.060 -0.1053  0.0763 -0.2246
  660ERGO    R110330   1.462  18.738   8.827 -0.2251 -0.0312 -0.1769
  660ERGO    R210331   1.565  18.891   8.621 -0.3933  0.0192 -0.2203
  660ERGO    R310332   1.494  18.677   8.470 -0.3132 -0.0330 -0.1857
  660ERGO    R410333   1.571  18.881   8.276  0.0186 -0.1711 -0.2132
  660ERGO    R510334   1.384  18.771   8.280 -0.0435 -0.0813 -0.3745
  660ERGO    C110335   1.510  18.674   7.933  0.3336 -0.3308 -0.1765
  660ERGO    C210336   1.382  18.742   7.594  0.1448 -0.2497 -0.0752
  661ERGO   ROH10337   6.429  18.084   9.407  0.0095  0.1340 -0.0493
  661ERGO    R110338   6.379  18.145   9.135  0.1041  0.1971 -0.0529
  661ERGO    R210339   6.539  18.317   8.989  0.3174  0.0174 -0.0351
  661ERGO    R310340   6.554  18.106   8.818  0.0902 -0.0003 -0.0370
  661ERGO    R410341   6.593  18.341   8.648  0.2720 -0.0380 -0.0465
  661ERGO    R510342   6.447  18.182   8.619  0.1200  0.0952 -0.0164
  661ERGO    C110343   6.639  18.156   8.290  0.0323 -0.0867 -0.0550
  661ERGO    C210344   6.696  18.062   7.879  0.0547 -0.0791  0.0835
  662ERGO   ROH10345   2.677  18.421   9.274  0.0120 -0.2758 -0.1384
  662ERGO    R110346   2.553  18.540   9.049  0.0361 -0.1727 -0.0982
  662ERGO    R210347   2.690  18.597   8.815  0.0424 -0.1434 -0.0891
  662ERGO    R310348   2.492  18.449   8.702 -0.0055 -0.0534 -0.1222
  662ERGO    R410349   2.633  18.571   8.476 -0.0757  0.0893 -0.0884
  662ERGO    R510350   2.419  18.581   8.515 -0.0606  0.0769 -0.0093
  662ERGO    C110351   2.414  18.418   8.171 -0.1895  0.3093 -0.1193
  662ERGO    C210352   2.611  18.263   7.849  0.1702  0.1472 -0.4313
  663ERGO   ROH10353   4.400   3.343   9.248 -0.1319 -0.0802 -0.0041
  663ERGO    R110354   4.471   3.245   8.992  0.0595  0.0458 -0.0015
  663ERGO    R210355   4.284   3.173   8.803  0.1930 -0.2594 -0.0265
  663ERGO    R310356   4.421   3.347   8.646 -0.0747 -0.0186 -0.0007
  663ERGO    R410357   4.217   3.233   8.469  0.1336 -0.3442 -0.0301
  663ERGO    R510358   4.432   3.240   8.432  0.1295  0.0133 -0.0054
  663ERGO    C110359   4.308   3.432   8.127 -0.1524 -0.1677 -0.0080
  663ERGO    C210360   4.026   3.748   7.989 -0.1581 -0.0180 -0.1578
  664ERGO   ROH10361   8.090   2.787   9.356  0.0123 -0.0648  0.1463
  664ERGO    R110362   8.097   2.611   9.134  0.0631  0.0105  0.0883
  664ERGO    R210363   7.875   2.560   8.977  0.0696 -0.0325  0.0990
  664ERGO    R310364   8.040   2.636   8.775  0.0134  0.1014  0.1009
  664ERGO    R410365   7.800   2.535   8.641  0.1627 -0.2825  0.0943
  664ERGO    R510366   8.005   2.471   8.605  0.2631 -0.0276  0.1648
  664ERGO    C110367   7.912   2.591   8.256  0.1642 -0.3024  0.0933
  664ERGO    C210368   7.787   2.496   8.004  0.0490 -0.0754 -0.2625
  665ERGO   ROH10369   2.828  16.331   9.013 -0.1793  0.0760  0.0092
  665ERGO    R110370   2.746  16.231   8.761 -0.1553  0.1887 -0.0432
  665ERGO    R210371   2.723  16.392   8.537  0.2473  0.2199 -0.0682
  665ERGO    R310372   2.890  16.208   8.427  0.0486 -0.0422  0.0567
  665ERGO    R410373   2.770  16.344   8.198  0.5868  0.3050 -0.0376
  665ERGO    R510374   2.774  16.130   8.234  0.1394  0.2711 -0.1323
  665ERGO    C110375   2.954  16.143   7.898  0.5979  0.1084  0.0974
  665ERGO    C210376   2.992  15.921   7.634  0.1176  0.2172 -0.0890
  666ERGO   ROH10377  13.487   3.744  10.159  0.1997  0.0814 -0.0352
  666ERGO    R110378  13.558   3.773   9.887  0.1744  0.0219 -0.0489
  666ERGO    R210379  13.596   3.557   9.719  0.0200 -0.0145 -0.0444
  666ERGO    R310380  13.413   3.686   9.565  0.0696  0.0865 -0.0183
  666ERGO    R410381  13.589   3.549   9.374  0.0330  0.0963 -0.0469
  666ERGO    R510382  13.539   3.762   9.375  0.0981  0.1064  0.0130
  666ERGO    C110383  13.414   3.666   9.027  0.0874  0.2555 -0.0239
  666ERGO    C210384  13.365   3.458   8.710 -0.0426 -0.4401 -0.0478
  667ERGO   ROH10385   7.535  18.219   9.115  0.2138 -0.0800 -0.1216
  667ERGO    R110386   7.639  18.112   8.875  0.0792 -0.0320 -0.2014
  667ERGO    R210387   7.490  17.951   8.707 -0.0143  0.0058 -0.1481
  667ERGO    R310388   7.562  18.134   8.520 -0.1164  0.0392 -0.1570
  667ERGO    R410389   7.510  17.889   8.368  0.0696 -0.0199 -0.1395
  667ERGO    R510390   7.692  18.009   8.361 -0.0082  0.1073 -0.1280
  667ERGO    C110391   7.589  18.025   7.994  0.0226 -0.0035 -0.1429
  667ERGO    C210392   7.570  17.791   7.668  0.0827 -0.1652  0.1845
  668ERGO   ROH10393   3.678   9.144   8.893  0.0048  0.2617 -0.0903
  668ERGO    R110394   3.830   9.135   8.654  0.0024  0.1959 -0.0886
  668ERGO    R210395   3.722   9.058   8.412 -0.0017  0.1396 -0.0656
  668ERGO    R310396   3.820   9.297   8.328  0.0079  0.1142 -0.1303
  668ERGO    R410397   3.859   9.116   8.100 -0.1610  0.0933 -0.1461
  668ERGO    R510398   4.012   9.239   8.196 -0.0773  0.0627 -0.2349
  668ERGO    C110399   4.031   9.374   7.840 -0.2447  0.0423 -0.2537
  668ERGO    C210400   4.227   9.398   7.479  0.3959  0.1301  0.0150
  669ERGO   ROH10401   9.063  16.796   9.505 -0.0115 -0.2680  0.1789
  669ERGO    R110402   9.075  16.575   9.328 -0.0224 -0.1781  0.0652
  669ERGO    R210403   8.942  16.571   9.087 -0.0926 -0.0823  0.1016
  669ERGO    R310404   9.189  16.516   8.987 -0.1110  0.0123  0.0013
  669ERGO    R410405   9.009  16.492   8.757 -0.1631  0.1578  0.0274
  669ERGO    R510406   9.151  16.342   8.827 -0.1310  0.1217 -0.1136
  669ERGO    C110407   9.280  16.394   8.472 -0.2213  0.3862 -0.1099
  669ERGO    C210408   9.262  16.162   8.197 -0.1665 -0.1743 -0.0985
  670ERGO   ROH10409  18.073   7.544   9.532  0.0294  0.2108 -0.0400
  670ERGO    R110410  17.892   7.430   9.346 -0.0230  0.0583  0.1023
  670ERGO    R210411  17.622   7.485   9.350 -0.0058  0.1535  0.0610
  670ERGO    R310412  17.665   7.552   9.089 -0.0006 -0.1563 -0.0208
  670ERGO    R410413  17.408   7.408   9.089 -0.1164  0.0480  0.1814
  670ERGO    R510414  17.583   7.363   8.966 -0.1760 -0.2234  0.1933
  670ERGO    C110415  17.324   7.426   8.693 -0.1760 -0.3043  0.1747
  670ERGO    C210416  17.135   7.235   8.409  0.1128  0.1057  0.1217
  671ERGO   ROH10417   8.478   7.860   9.594 -0.2471  0.0885 -0.0597
  671ERGO    R110418   8.431   8.014   9.361 -0.1140  0.0274 -0.1283
  671ERGO    R210419   8.617   8.191   9.259 -0.0353 -0.0361 -0.0971
  671ERGO    R310420   8.581   8.047   9.031  0.0428 -0.0990 -0.0707
  671ERGO    R410421   8.716   8.292   8.944  0.0815 -0.1309 -0.0920
  671ERGO    R510422   8.530   8.212   8.865  0.1085 -0.1460 -0.1368
  671ERGO    C110423   8.739   8.217   8.547  0.2229 -0.2452 -0.0643
  671ERGO    C210424   8.808   8.422   8.374 -0.2347  0.4245  0.3269
  672ERGO   ROH10425  17.959  13.127   9.705  0.3231 -0.1167 -0.0346
  672ERGO    R110426  17.954  13.049   9.433  0.1901 -0.0420 -0.0543
  672ERGO    R210427  18.082  13.193   9.235  0.2213 -0.0720 -0.0520
  672ERGO    R310428  18.199  12.954   9.181  0.0523 -0.1342 -0.1566
  672ERGO    R410429  18.263  13.123   8.949  0.3740  0.0116  0.0232
  672ERGO    R510430  18.170  12.925   8.945  0.2003  0.0898 -0.2081
  672ERGO    C110431  18.480  12.857   8.733  0.3042  0.0022 -0.0311
  672ERGO    C210432  18.667  12.811   8.451 -0.0515  0.1088  0.1203
  673ERGO   ROH10433  13.962   6.781   9.808 -0.0919  0.1415  0.1241
  673ERGO    R110434  13.962   6.850   9.533 -0.0244 -0.0044  0.0864
  673ERGO    R210435  14.191   6.932   9.401 -0.0177  0.0537  0.1321
  673ERGO    R310436  14.125   6.730   9.231  0.1619 -0.0754  0.2132
  673ERGO    R410437  14.203   6.952   9.056 -0.1626 -0.0298  0.1211
  673ERGO    R510438  14.017   6.840   9.047 -0.0340 -0.2559  0.2180
  673ERGO    C110439  14.149   6.775   8.696 -0.0783 -0.1996  0.1910
  673ERGO    C210440  14.301   6.878   8.390 -0.0660 -0.3559  0.1980
  674PSPI    C110441   6.623  18.585   5.439  0.0995  0.0289  0.1630
  674PSPI    C210442   6.655  18.369   5.104  0.1883  0.1411  0.0983
  674PSPI    C310443   6.984  18.509   5.283  0.1282  0.2704  0.1086
  674PSPI   PO410444   6.410  18.380   5.592  0.0058  0.1775 -0.1123
  674PSPI   GL110445   5.876  18.293   5.766 -0.1210  0.1534 -0.0224
  674PSPI   GL210446   6.121  18.040   5.820  0.0685  0.0786 -0.0196
  674PSPI   C1A10447   5.567  18.420   5.969  0.0776 -0.0891  0.1738
  674PSPI   C2A10448   5.292  18.367   6.296 -0.0898  0.3104 -0.0814
  674PSPI   C3A10449   5.282  18.438   6.754  0.3527 -0.1981 -0.2999
  674PSPI   C4A10450   5.225  18.687   7.168 -0.1483 -0.0908 -0.4627
  674PSPI   C1B10451   6.163  18.194   6.300  0.2000 -0.1822 -0.2928
  674PSPI   C2B10452   6.217  18.202   6.725 -0.1207  0.0814 -0.0638
  674PSPI   C3B10453   6.111  17.977   7.062  0.0770  0.0664 -0.0569
  674PSPI   C4B10454   5.850  17.894   7.344 -0.1279  0.2813 -0.0148
  675PSPI    C110455   7.002   3.839   4.646  0.1948 -0.2236  0.0514
  675PSPI    C210456   6.651   3.805   4.457  0.0380  0.0454  0.2856
  675PSPI    C310457   6.978   3.911   4.254 -0.0137 -0.2050  0.0663
  675PSPI   PO410458   6.819   3.795   4.926 -0.0037  0.1098 -0.0933
  675PSPI   GL110459   6.571   4.012   5.333  0.0142 -0.4594  0.1722
  675PSPI   GL210460   6.883   3.939   5.389 -0.0644 -0.0245  0.1217
  675PSPI   C1A10461   6.483   3.945   5.760  0.1693 -0.2263 -0.0041
  675PSPI   C2A10462   6.653   3.944   6.194 -0.1433  0.1156  0.1038
  675PSPI   C3A10463   6.566   4.152   6.564  0.0532  0.0261  0.2037
  675PSPI   C4A10464   6.630   4.254   7.002  0.0636  0.0907 -0.0433
  675PSPI   C1B10465   6.913   3.679   5.854 -0.2205  0.0280 -0.2667
  675PSPI   C2B10466   7.230   3.610   6.133  0.3152 -0.1705 -0.2270
  675PSPI   C3B10467   7.446   3.484   6.572 -0.0865  0.0395  0.0059
  675PSPI   C4B10468   7.712   3.466   7.075  0.1773  0.3057 -0.1531
  676PSPI    C110469   8.591  12.537   5.703 -0.0192 -0.3117  0.0221
  676PSPI    C210470   8.623  12.203   5.486 -0.2492 -0.0523 -0.4254
  676PSPI    C310471   8.846  12.523   5.395 -0.1626 -0.0216 -0.1144
  676PSPI   PO410472   8.588  12.492   5.974  0.3314  0.3950 -0.0612
  676PSPI   GL110473   8.913  12.438   6.296 -0.0219  0.0436 -0.1448
  676PSPI   GL210474   8.789  12.184   6.346 -0.1660  0.3095 -0.1703
  676PSPI   C1A10475   9.019  12.315   6.782 -0.0420 -0.2372  0.2268
  676PSPI   C2A10476   9.213  12.333   7.300 -0.0387  0.3950  0.0793
  676PSPI   C3A10477   9.360  12.455   7.648 -0.0493 -0.1009  0.0029
  676PSPI   C4A10478   9.600  12.307   7.911  0.0194  0.0411  0.2843
  676PSPI   C1B10479   8.497  12.209   6.635  0.0391 -0.2669  0.0429
  676PSPI   C2B10480   8.253  12.291   6.974  0.0202  0.2909 -0.0734
  676PSPI   C3B10481   8.271  12.038   7.399  0.0723 -0.1967 -0.0970
  676PSPI   C4B10482   8.098  11.820   7.734  0.0215 -0.1536 -0.0390
  677PSPI    C110483   5.320   5.432   4.811 -0.1822  0.3435 -0.0084
  677PSPI    C210484   5.077   5.210   4.584 -0.2129  0.3681  0.0005
  677PSPI    C310485   5.422   5.346   4.434 -0.0829  0.1192  0.0676
  677PSPI   PO410486   5.284   5.343   5.029  0.0947 -0.2238 -0.2392
  677PSPI   GL110487   5.400   5.412   5.523 -0.2616 -0.2214 -0.1329
  677PSPI   GL210488   5.615   5.153   5.409 -0.0069  0.0054  0.3640
  677PSPI   C1A10489   5.430   5.179   5.923 -0.2290  0.2169 -0.0629
  677PSPI   C2A10490   5.450   5.137   6.337 -0.5310  0.1509  0.0962
  677PSPI   C3A10491   5.503   5.072   6.789 -0.3171 -0.1511 -0.0554
  677PSPI   C4A10492   5.565   5.297   7.167  0.1809  0.3051 -0.0156
  677PSPI   C1B10493   5.927   5.427   5.679 -0.1905 -0.0394  0.2102
  677PSPI   C2B10494   6.361   5.306   5.873 -0.3671 -0.0977 -0.0065
  677PSPI   C3B10495   6.438   5.190   6.272  0.2143  0.1843  0.0884
  677PSPI   C4B10496   6.578   5.171   6.620  0.2780 -0.3165 -0.0194
  678PSPI    C110497   9.126   8.685   5.373 -0.2993  0.2898 -0.0271
  678PSPI    C210498   8.802   8.472   5.277 -0.0026 -0.1955  0.0182
  678PSPI    C310499   9.162   8.361   5.142  0.1499  0.3425 -0.0398
  678PSPI   PO410500   9.144   8.631   5.718  0.1099 -0.1639  0.1276
  678PSPI   GL110501   8.953   8.587   6.128  0.0246  0.4077 -0.0013
  678PSPI   GL210502   8.819   8.268   6.428  0.2074  0.4678  0.0915
  678PSPI   C1A10503   9.144   8.765   6.420 -0.0395 -0.0614 -0.0737
  678PSPI   C2A10504   9.215   8.899   6.840 -0.0013  0.2039  0.2825
  678PSPI   C3A10505   9.209   8.832   7.180  0.2570  0.1569 -0.1548
  678PSPI   C4A10506   9.237   8.862   7.636  0.2336  0.1929  0.0112
  678PSPI   C1B10507   8.809   8.122   6.782 -0.1020  0.0382 -0.1329
  678PSPI   C2B10508   8.550   8.053   7.122 -0.0958  0.1016  0.3125
  678PSPI   C3B10509   8.370   7.980   7.506 -0.4023  0.0848  0.0780
  678PSPI   C4B10510   7.887   7.958   7.564  0.0053  0.1313  0.3160
  679PSPI    C110511   2.922  11.612   4.974 -0.1728 -0.0913  0.1245
  679PSPI    C210512   2.944  11.224   5.067 -0.0307 -0.0626  0.2142
  679PSPI    C310513   2.665  11.353   4.812  0.0548 -0.2553  0.0203
  679PSPI   PO410514   3.009  11.691   5.220  0.0551 -0.0490 -0.2033
  679PSPI   GL110515   3.213  11.879   5.590 -0.0141  0.0277  0.2552
  679PSPI   GL210516   3.084  11.553   5.745 -0.0788  0.3510 -0.4332
  679PSPI   C1A10517   3.140  11.934   6.032 -0.1126  0.3413  0.2207
  679PSPI   C2A10518   3.207  12.088   6.362  0.1895 -0.1742  0.1793
  679PSPI   C3A10519   3.112  12.064   6.907 -0.2435 -0.1961 -0.1264
  679PSPI   C4A10520   3.374  11.918   7.269  0.1826  0.0157 -0.2614
  679PSPI   C1B10521   3.298  11.342   6.032 -0.4216 -0.3995  0.0094
  679PSPI   C2B10522   3.467  11.165   6.522  0.1560 -0.3150  0.0557
  679PSPI   C3B10523   3.693  10.918   6.763 -0.3269  0.0822 -0.0239
  679PSPI   C4B10524   3.532  10.841   7.206 -0.0880  0.0242  0.1224
  680PSPI    C110525  13.700   7.678   5.604  0.0853 -0.0287  0.0634
  680PSPI    C210526  13.712   8.071   5.527 -0.1315  0.0266  0.2977
  680PSPI    C310527  13.450   7.837   5.335  0.2135 -0.0626 -0.0768
  680PSPI   PO410528  13.889   7.594   5.781 -0.0614  0.2377  0.0448
  680PSPI   GL110529  13.999   7.890   6.161 -0.0638 -0.1773 -0.0815
  680PSPI   GL210530  13.661   7.923   6.046  0.0112  0.0309  0.0664
  680PSPI   C1A10531  14.056   7.934   6.535  0.0232  0.1262  0.0647
  680PSPI   C2A10532  14.178   7.927   6.916 -0.2012 -0.0005 -0.3422
  680PSPI   C3A10533  14.380   7.990   7.276  0.1494 -0.0383 -0.0366
  680PSPI   C4A10534  14.460   8.297   7.580  0.2762  0.0285  0.0120
  680PSPI   C1B10535  13.643   7.660   6.450  0.2002 -0.0197 -0.1282
  680PSPI   C2B10536  13.696   7.634   6.947  0.1124 -0.0551  0.0065
  680PSPI   C3B10537  14.020   7.521   7.351 -0.1077 -0.1546  0.0741
  680PSPI   C4B10538  14.264   7.313   7.709  0.0008  0.2550  0.0880
  681PSPI    C110539   4.685  13.284   5.403 -0.0030 -0.1061  0.0818
  681PSPI    C210540   5.020  13.180   5.210 -0.0084  0.0220  0.0020
  681PSPI    C310541   4.868  13.547   5.163 -0.0451  0.0336  0.2011
  681PSPI   PO410542   4.749  13.271   5.670  0.0797 -0.3958  0.0884
  681PSPI   GL110543   4.638  13.352   6.129 -0.1762 -0.0205 -0.1799
  681PSPI   GL210544   4.708  13.642   6.015  0.1532  0.0440 -0.0211
  681PSPI   C1A10545   4.517  13.262   6.554 -0.0641 -0.1683 -0.0154
  681PSPI   C2A10546   4.598  13.020   6.961  0.0155 -0.1235  0.0940
  681PSPI   C3A10547   4.717  12.591   7.113  0.0301 -0.1601 -0.0957
  681PSPI   C4A10548   4.926  12.268   7.421 -0.1616  0.1570  0.0663
  681PSPI   C1B10549   4.787  13.715   6.548 -0.0759  0.2069 -0.2951
  681PSPI   C2B10550   4.698  13.527   6.920 -0.0504 -0.1435 -0.0594
  681PSPI   C3B10551   4.758  13.330   7.295  0.1441  0.0066 -0.3351
  681PSPI   C4B10552   4.970  13.266   7.648  0.1755  0.2875  0.2128
  682PSPI    C110553  16.532   3.352   5.022 -0.0123 -0.1169 -0.0635
  682PSPI    C210554  16.297   3.669   4.959  0.0057 -0.0720  0.0901
  682PSPI    C310555  16.288   3.360   4.705 -0.2020 -0.0606  0.0821
  682PSPI   PO410556  16.471   3.232   5.313  0.1052  0.1325  0.0637
  682PSPI   GL110557  16.186   3.288   5.757 -0.0280 -0.0764  0.2406
  682PSPI   GL210558  15.937   3.042   5.941  0.3740  0.0087  0.1575
  682PSPI   C1A10559  16.451   3.568   6.072  0.2326  0.3337  0.3079
  682PSPI   C2A10560  16.619   3.778   6.372  0.1406  0.0083 -0.3861
  682PSPI   C3A10561  16.634   3.753   6.805  0.0291 -0.1941  0.1924
  682PSPI   C4A10562  16.806   3.780   7.187 -0.3557  0.1899 -0.4614
  682PSPI   C1B10563  16.083   3.349   6.274  0.4843 -0.0641  0.0003
  682PSPI   C2B10564  16.227   3.446   6.690 -0.1907 -0.0241  0.0749
  682PSPI   C3B10565  16.422   3.355   7.088  0.0822  0.2576  0.1287
  682PSPI   C4B10566  16.340   3.287   7.467  0.0812  0.1570  0.0377
  683PSPI    C110567  14.083  12.080   5.433  0.0231  0.1969  0.0477
  683PSPI    C210568  13.718  12.242   5.412 -0.0244  0.0864  0.0179
  683PSPI    C310569  13.766  11.848   5.362  0.0905  0.0904  0.0933
  683PSPI   PO410570  14.172  12.218   5.687 -0.0846  0.0364 -0.2606
  683PSPI   GL110571  14.370  12.132   6.116  0.0656  0.2195  0.2004
  683PSPI   GL210572  14.477  12.374   6.073  0.0713 -0.0229  0.1516
  683PSPI   C1A10573  14.306  12.213   6.584 -0.3998 -0.1498  0.0844
  683PSPI   C2A10574  14.206  12.248   7.053  0.0732 -0.5441  0.1965
  683PSPI   C3A10575  13.901  12.279   7.347  0.0673  0.1068 -0.2636
  683PSPI   C4A10576  13.802  12.094   7.724  0.0680  0.1779 -0.1264
  683PSPI   C1B10577  14.813  12.386   6.429  0.1584 -0.0143  0.1488
  683PSPI   C2B10578  14.773  12.240   6.883 -0.2117 -0.3551 -0.1063
  683PSPI   C3B10579  14.704  12.303   7.291 -0.2346 -0.0226 -0.2775
  683PSPI   C4B10580  14.855  12.505   7.597  0.0340 -0.0660 -0.0843
  684PSPI    C110581   3.665   7.237   5.030 -0.1931 -0.1409 -0.1157
  684PSPI    C210582   3.952   6.960   5.006  0.1131  0.1707 -0.1430
  684PSPI    C310583   3.936   7.254   4.736 -0.1807  0.2074 -0.0887
  684PSPI   PO410584   3.491   7.038   5.194 -0.0400  0.3825  0.1410
  684PSPI   GL110585   3.154   7.012   5.529 -0.0514  0.0944  0.1082
  684PSPI   GL210586   3.044   7.123   5.858 -0.5042  0.0207  0.3383
  684PSPI   C1A10587   3.564   7.070   5.836  0.1479 -0.0379 -0.1938
  684PSPI   C2A10588   3.868   7.426   6.121 -0.3726  0.0619  0.2803
  684PSPI   C3A10589   3.782   7.836   6.140 -0.0256  0.2066 -0.4755
  684PSPI   C4A10590   3.518   8.035   5.817  0.1354 -0.1486  0.0203
  684PSPI   C1B10591   3.155   6.940   6.176 -0.2824  0.3385  0.1796
  684PSPI   C2B10592   3.635   6.953   6.363  0.0101 -0.1047  0.0147
  684PSPI   C3B10593   3.680   7.066   6.716  0.0647 -0.1010 -0.2604
  684PSPI   C4B10594   3.752   7.270   7.000  0.0010 -0.0844  0.1848
  685PSPI    C110595   4.376  14.853   5.323  0.0905 -0.0252 -0.0548
  685PSPI    C210596   4.334  15.217   5.484  0.1304 -0.0851  0.0932
  685PSPI    C310597   4.296  15.167   5.089  0.1983  0.0919  0.0631
  685PSPI   PO410598   4.272  14.709   5.550  0.0465 -0.2034 -0.0602
  685PSPI   GL110599   4.282  14.774   5.983 -0.0846 -0.1040 -0.0642
  685PSPI   GL210600   4.597  14.580   6.157  0.0080 -0.0850  0.0524
  685PSPI   C1A10601   4.201  14.921   6.454  0.0318  0.2332  0.1393
  685PSPI   C2A10602   4.327  14.790   6.925 -0.2280  0.1354  0.0830
  685PSPI   C3A10603   4.613  14.514   7.255 -0.1356  0.0873 -0.2876
  685PSPI   C4A10604   4.601  14.261   7.513  0.0926 -0.0603 -0.1930
  685PSPI   C1B10605   4.540  14.509   6.506 -0.0301 -0.0520  0.1375
  685PSPI   C2B10606   4.535  14.253   6.824 -0.0560  0.1170 -0.2493
  685PSPI   C3B10607   4.367  14.023   7.099  0.1002  0.1284 -0.2050
  685PSPI   C4B10608   4.480  13.741   7.513 -0.0959 -0.0026  0.1707
  686PSPI    C110609  12.317   7.468   5.386 -0.0008  0.0780 -0.2350
  686PSPI    C210610  12.304   7.161   5.130  0.0597 -0.1665  0.0498
  686PSPI    C310611  11.970   7.282   5.314  0.0159  0.0103 -0.1429
  686PSPI   PO410612  12.509   7.364   5.594 -0.2168 -0.3538  0.0343
  686PSPI   GL110613  12.516   7.233   6.019  0.1639  0.1304  0.1765
  686PSPI   GL210614  12.282   7.362   6.251 -0.5913  0.0790 -0.3133
  686PSPI   C1A10615  12.717   6.966   6.314 -0.3364  0.1174 -0.1681
  686PSPI   C2A10616  12.931   7.012   6.667  0.1623  0.2119  0.1183
  686PSPI   C3A10617  13.110   7.309   6.908 -0.0206 -0.0922 -0.1729
  686PSPI   C4A10618  13.228   7.555   7.234 -0.1209 -0.2020  0.0013
  686PSPI   C1B10619  12.302   6.982   6.593  0.3200 -0.1431  0.2431
  686PSPI   C2B10620  12.564   6.851   6.967 -0.1166  0.2638  0.0010
  686PSPI   C3B10621  12.931   6.915   7.261 -0.3481 -0.1759 -0.1887
  686PSPI   C4B10622  13.044   7.160   7.568  0.3059 -0.2588  0.2119
  687PSPI    C110623  18.301   8.311   5.300  0.0115  0.0238  0.1055
  687PSPI    C210624  17.979   8.255   5.531 -0.1038  0.2000 -0.0098
  687PSPI    C310625  17.954   8.486   5.205  0.0545 -0.0521 -0.2047
  687PSPI   PO410626  18.470   8.210   5.407  0.1238 -0.3636 -0.0228
  687PSPI   GL110627  18.586   8.129   5.785  0.2881 -0.1134 -0.1346
  687PSPI   GL210628  18.396   8.057   5.851 -0.3166 -0.0268 -0.2691
  687PSPI   C1A10629  18.584   8.567   6.141 -0.0441  0.2952  0.1288
  687PSPI   C2A10630  18.714   8.653   6.595  0.3846  0.3546  0.0469
  687PSPI   C3A10631  18.874   8.502   6.962  0.1141  0.3421  0.2943
  687PSPI   C4A10632  18.839   8.295   7.491 -0.3032  0.0370 -0.0093
  687PSPI   C1B10633  18.441   7.912   6.281  0.1728 -0.2134 -0.0687
  687PSPI   C2B10634  18.215   7.888   6.697 -0.0783  0.0742 -0.1998
  687PSPI   C3B10635  18.017   7.871   7.058 -0.1764  0.1501 -0.1528
  687PSPI   C4B10636  18.035   7.809   7.503  0.1097 -0.0159  0.2904
  688PSPI    C110637  13.262  11.711   5.853  0.0149 -0.0796  0.2729
  688PSPI    C210638  13.262  11.844   5.476 -0.0647 -0.2155  0.2243
  688PSPI    C310639  13.345  12.095   5.776 -0.0627 -0.0923  0.1218
  688PSPI   PO410640  13.013  11.551   5.997 -0.0256 -0.1719  0.1168
  688PSPI   GL110641  12.800  11.247   6.194  0.0642  0.2091  0.2374
  688PSPI   GL210642  12.577  11.508   6.307  0.1714  0.1998  0.1135
  688PSPI   C1A10643  12.861  11.182   6.577 -0.1542 -0.1057 -0.1177
  688PSPI   C2A10644  12.912  11.240   7.009 -0.2271  0.1110 -0.2337
  688PSPI   C3A10645  13.150  11.136   7.403  0.1075  0.0217 -0.2757
  688PSPI   C4A10646  13.499  10.980   7.553  0.1960 -0.1202  0.0434
  688PSPI   C1B10647  12.638  11.538   6.749  0.0262  0.2469 -0.2389
  688PSPI   C2B10648  12.555  11.534   7.257 -0.2034  0.2156  0.1925
  688PSPI   C3B10649  12.681  11.400   7.616 -0.0167 -0.2537 -0.0295
  688PSPI   C4B10650  12.687  11.389   8.043 -0.0019  0.0984  0.2718
  689PSPI    C110651  18.751  16.041   5.322 -0.0482  0.0441  0.1927
  689PSPI    C210652  18.459  15.841   5.509 -0.0369 -0.1161  0.0425
  689PSPI    C310653  18.379  16.046   5.175 -0.0701  0.2209  0.2521
  689PSPI   PO410654  18.858  16.230   5.520 -0.1382  0.3521 -0.0212
  689PSPI   GL110655  18.724  16.274   5.898  0.1229 -0.0534  0.0014
  689PSPI   GL210656  18.532  16.517   5.965  0.0849 -0.3795 -0.3445
  689PSPI   C1A10657  18.873  16.109   6.288 -0.2447 -0.0372 -0.2951
  689PSPI   C2A10658  18.862  16.000   6.633  0.1907 -0.0353 -0.0248
  689PSPI   C3A10659  19.077  16.093   7.053  0.1068  0.0313  0.1949
  689PSPI   C4A10660  19.494  16.132   7.280 -0.1743  0.2945 -0.1144
  689PSPI   C1B10661  18.447  16.499   6.265 -0.0341  0.1756  0.1533
  689PSPI   C2B10662  18.590  16.452   6.739 -0.0270  0.1672 -0.3373
  689PSPI   C3B10663  18.422  16.420   7.155  0.1805 -0.1313  0.0281
  689PSPI   C4B10664  18.318  16.582   7.523  0.2253 -0.5122 -0.0110
  690PSPI    C110665  15.962  11.346   5.748  0.0138 -0.1623  0.1178
  690PSPI    C210666  15.859  11.542   5.415 -0.0726 -0.0844  0.1897
  690PSPI    C310667  15.743  11.163   5.469  0.2130 -0.2046 -0.0131
  690PSPI   PO410668  15.944  11.573   5.918 -0.2045 -0.1603  0.1134
  690PSPI   GL110669  15.784  11.706   6.293  0.0645  0.0842 -0.1100
  690PSPI   GL210670  15.667  11.384   6.412  0.1670 -0.0521 -0.2193
  690PSPI   C1A10671  16.221  11.850   6.530 -0.0723 -0.0027  0.3566
  690PSPI   C2A10672  16.263  11.909   6.946 -0.3029  0.1912 -0.3950
  690PSPI   C3A10673  16.228  12.008   7.320 -0.0243  0.1506  0.0501
  690PSPI   C4A10674  16.248  12.321   7.659 -0.0633 -0.0648  0.4219
  690PSPI   C1B10675  15.859  11.460   6.764 -0.0967  0.0608 -0.3208
  690PSPI   C2B10676  15.934  11.472   7.164 -0.0518 -0.2077  0.3017
  690PSPI   C3B10677  15.866  11.222   7.499 -0.1177 -0.0239  0.0268
  690PSPI   C4B10678  15.612  11.017   7.767 -0.1151 -0.0849 -0.1463
  691PSPI    C110679   7.811  17.097   5.927 -0.0697  0.0213 -0.2781
  691PSPI    C210680   8.106  17.364   5.882 -0.1247  0.1421  0.0510
  691PSPI    C310681   7.755  17.420   5.698 -0.0637  0.1837 -0.0532
  691PSPI   PO410682   8.003  16.777   5.939  0.5041  0.1168 -0.2085
  691PSPI   GL110683   8.046  16.834   6.388 -0.3898  0.3718  0.0611
  691PSPI   GL210684   8.340  17.032   6.330  0.1259 -0.0612 -0.0461
  691PSPI   C1A10685   8.052  16.888   6.868 -0.0454 -0.0050  0.1276
  691PSPI   C2A10686   8.007  16.757   7.296 -0.0619 -0.1406 -0.0708
  691PSPI   C3A10687   8.147  16.880   7.663  0.2719 -0.3486  0.2087
  691PSPI   C4A10688   8.386  16.846   8.003 -0.2065  0.0162 -0.1571
  691PSPI   C1B10689   8.411  17.324   6.760  0.0684 -0.3499 -0.2540
  691PSPI   C2B10690   8.594  17.669   7.099 -0.0696 -0.0228 -0.2241
  691PSPI   C3B10691   8.687  18.109   6.844 -0.0259  0.3056  0.0124
  691PSPI   C4B10692   9.100  18.130   6.623 -0.2160 -0.0195 -0.0155
  692PSPI    C110693  11.089   3.747   5.593 -0.2198 -0.0669 -0.0726
  692PSPI    C210694  11.145   4.049   5.337 -0.3079 -0.0627 -0.0872
  692PSPI    C310695  11.271   3.682   5.243 -0.2000 -0.0307 -0.0691
  692PSPI   PO410696  11.099   3.859   5.823 -0.0238 -0.0922 -0.2877
  692PSPI   GL110697  10.817   3.785   6.100 -0.3065 -0.0252  0.2361
  692PSPI   GL210698  10.994   3.441   6.063  0.0546  0.1510  0.0385
  692PSPI   C1A10699  10.867   3.714   6.527  0.0924 -0.0660 -0.2925
  692PSPI   C2A10700  10.757   3.569   6.923 -0.2401  0.0566  0.1754
  692PSPI   C3A10701  10.517   3.449   7.307 -0.1134 -0.0858 -0.1080
  692PSPI   C4A10702  10.514   3.420   7.821 -0.0590  0.0403 -0.2032
  692PSPI   C1B10703  10.735   3.199   6.495  0.0065 -0.2787  0.2003
  692PSPI   C2B10704  10.918   3.111   6.847  0.3892 -0.2535 -0.1000
  692PSPI   C3B10705  11.146   3.172   7.201 -0.0216 -0.0150  0.1124
  692PSPI   C4B10706  11.008   3.493   7.579 -0.0801  0.1762  0.1097
  693PSPI    C110707  10.579  15.645   6.034 -0.0964 -0.0885  0.1031
  693PSPI    C210708  10.429  15.698   5.667  0.2171  0.0109 -0.0144
  693PSPI    C310709  10.713  15.424   5.728  0.1178 -0.0526  0.1693
  693PSPI   PO410710  10.567  15.893   6.104 -0.0565  0.1505 -0.1186
  693PSPI   GL110711  10.804  16.062   6.428  0.0084 -0.1542 -0.0540
  693PSPI   GL210712  10.658  15.780   6.588 -0.0668 -0.1874  0.2176
  693PSPI   C1A10713  10.705  16.274   6.706  0.0067 -0.0524  0.1043
  693PSPI   C2A10714  10.584  16.205   7.146 -0.1066 -0.0637  0.0225
  693PSPI   C3A10715  10.420  16.356   7.532 -0.0882  0.0394 -0.1153
  693PSPI   C4A10716  10.148  16.449   7.808 -0.0233 -0.1433  0.2678
  693PSPI   C1B10717  10.849  15.793   7.010  0.1554  0.0224  0.0042
  693PSPI   C2B10718  10.897  15.654   7.351 -0.0482  0.1409  0.1863
  693PSPI   C3B10719  10.685  15.938   7.728  0.1428 -0.0831 -0.0389
  693PSPI   C4B10720  10.498  16.206   8.032  0.0728 -0.3886  0.1721
  694POPI    C110721  15.756  15.219   5.693 -0.0181  0.1744 -0.0770
  694POPI    C210722  15.642  14.958   5.412 -0.1287 -0.0328  0.1557
  694POPI    C310723  15.874  15.270   5.314 -0.1053 -0.1426 -0.1495
  694POPI   PO410724  15.531  15.246   5.852  0.2173  0.3260 -0.1656
  694POPI   GL110725  15.327  15.358   6.317 -0.1587 -0.2126 -0.0276
  694POPI   GL210726  15.672  15.189   6.461  0.0415  0.4991  0.0863
  694POPI   C1A10727  15.221  15.131   6.675  0.1057  0.0710 -0.0909
  694POPI   D2A10728  15.105  14.845   6.977  0.2824  0.3581 -0.2274
  694POPI   C3A10729  15.166  14.711   7.382  0.1264 -0.2338 -0.0216
  694POPI   C4A10730  15.235  14.395   7.651 -0.1635 -0.3626  0.1309
  694POPI   C1B10731  15.657  14.945   6.860 -0.0905  0.1138  0.0707
  694POPI   C2B10732  15.728  14.848   7.344 -0.1518 -0.0120 -0.0647
  694POPI   C3B10733  15.727  14.610   7.732  0.0358 -0.0008 -0.4471
  694POPI   C4B10734  15.705  14.279   7.927 -0.1212 -0.0521  0.2551
  695POPI    C110735   9.294   0.312   5.630  0.1445  0.1592  0.2719
  695POPI    C210736   9.205   0.299   5.240 -0.1460  0.3402  0.3293
  695POPI    C310737   9.498   0.069   5.386 -0.2261  0.0576  0.0559
  695POPI   PO410738   9.293   0.549   5.688 -0.0775 -0.3582  0.2149
  695POPI   GL110739   9.389   0.735   6.141 -0.0460 -0.1539 -0.0571
  695POPI   GL210740   9.690   0.696   6.096  0.2211 -0.3385 -0.2171
  695POPI   C1A10741   9.167   0.573   6.491 -0.1706  0.1903 -0.0035
  695POPI   D2A10742   9.191   0.673   6.907  0.0521  0.2729  0.0130
  695POPI   C3A10743   8.799   0.929   7.103  0.4746  0.1691 -0.0947
  695POPI   C4A10744   8.449   1.225   7.206 -0.0870 -0.0846 -0.1592
  695POPI   C1B10745   9.663   0.835   6.541  0.2168 -0.0815 -0.0965
  695POPI   C2B10746   9.701   0.753   7.025  0.0548  0.0813  0.1295
  695POPI   C3B10747   9.713   0.399   7.311 -0.0866 -0.0517  0.3602
  695POPI   C4B10748   9.530   0.268   7.701 -0.2484  0.2246 -0.2043
  696POPI    C110749  15.999   5.608   5.330  0.1568  0.3462 -0.0999
  696POPI    C210750  15.751   5.920   5.307 -0.1198  0.1329 -0.0699
  696POPI    C310751  16.101   5.928   5.114 -0.2355  0.3580 -0.2752
  696POPI   PO410752  15.926   5.510   5.604  0.1015 -0.1483  0.0597
  696POPI   GL110753  16.276   5.480   5.940  0.0653  0.0557 -0.0770
  696POPI   GL210754  16.473   5.308   6.040 -0.0883  0.0586  0.3319
  696POPI   C1A10755  16.297   5.796   6.336  0.1553  0.0077 -0.0410
  696POPI   D2A10756  16.413   5.883   6.805 -0.1841 -0.2009  0.3361
  696POPI   C3A10757  16.268   6.138   7.152  0.0881  0.3066 -0.2775
  696POPI   C4A10758  16.176   6.542   7.196  0.1041 -0.0234  0.0130
  696POPI   C1B10759  16.416   5.351   6.408 -0.3959  0.0386  0.1148
  696POPI   C2B10760  16.194   5.406   6.722  0.0658 -0.0985  0.0854
  696POPI   C3B10761  16.077   5.605   7.074  0.0234  0.1775 -0.2161
  696POPI   C4B10762  15.777   5.731   7.400  0.2264  0.3601  0.1084
  697POPI    C110763  12.338   4.251   5.378  0.0551  0.0493 -0.0566
  697POPI    C210764  12.486   4.621   5.343  0.3806 -0.0842 -0.1257
  697POPI    C310765  12.513   4.365   5.037  0.0849 -0.1422 -0.1065
  697POPI   PO410766  12.460   4.231   5.715 -0.2785  0.2218  0.1651
  697POPI   GL110767  12.422   4.237   6.123  0.5189  0.0129  0.2666
  697POPI   GL210768  12.331   4.564   6.271 -0.0367  0.0923 -0.3226
  697POPI   C1A10769  12.769   4.427   6.431  0.0225  0.2199  0.1176
  697POPI   D2A10770  12.862   4.487   6.874 -0.1368  0.1312  0.0764
  697POPI   C3A10771  13.117   4.351   7.225 -0.0949 -0.0568 -0.2325
  697POPI   C4A10772  13.302   4.046   7.519  0.1362 -0.2388 -0.4521
  697POPI   C1B10773  12.326   4.633   6.721 -0.0308 -0.3254 -0.2742
  697POPI   C2B10774  12.330   4.701   7.150 -0.3884 -0.2887  0.0521
  697POPI   C3B10775  12.112   4.731   7.502 -0.3870  0.0376 -0.1089
  697POPI   C4B10776  11.920   5.038   7.762 -0.0124  0.1987 -0.3421
  698POPI    C110777   5.195   3.100   4.885  0.1631 -0.0556  0.0508
  698POPI    C210778   5.526   3.318   4.831  0.1969 -0.0768  0.1699
  698POPI    C310779   5.320   3.186   4.515  0.1908  0.1054  0.0966
  698POPI   PO410780   5.025   3.227   5.182  0.2373  0.1056  0.1507
  698POPI   GL110781   4.879   3.034   5.444  0.2805  0.0975  0.1088
  698POPI   GL210782   4.860   2.668   5.553  0.0666 -0.1734 -0.0924
  698POPI   C1A10783   4.688   3.410   5.697  0.0595  0.1969  0.1207
  698POPI   D2A10784   4.688   3.287   6.151 -0.0950 -0.0674 -0.3091
  698POPI   C3A10785   4.808   3.362   6.494  0.1684 -0.4010 -0.3663
  698POPI   C4A10786   4.661   3.472   6.867  0.2994  0.2371 -0.2090
  698POPI   C1B10787   5.014   2.807   6.003 -0.3127 -0.0198  0.2522
  698POPI   C2B10788   5.150   2.926   6.419 -0.1417 -0.0632  0.0860
  698POPI   C3B10789   5.168   3.119   6.856  0.5169  0.1891  0.2271
  698POPI   C4B10790   4.986   3.217   7.242  0.0020 -0.1869 -0.2356
  699POPI    C110791   2.679   6.700   5.096 -0.1789  0.1138  0.0258
  699POPI    C210792   2.450   6.382   5.015  0.1329 -0.1243  0.0576
  699POPI    C310793   2.386   6.729   4.825 -0.0366 -0.2821 -0.1786
  699POPI   PO410794   2.649   6.731   5.286 -0.1381  0.2594 -0.1787
  699POPI   GL110795   2.909   6.629   5.733  0.2063  0.1363  0.3958
  699POPI   GL210796   2.742   6.368   5.844 -0.0048  0.0738  0.1391
  699POPI   C1A10797   3.185   6.417   6.018  0.4217 -0.1382 -0.0367
  699POPI   D2A10798   3.370   6.323   6.380 -0.1955  0.0569 -0.1354
  699POPI   C3A10799   3.175   6.647   6.692 -0.2733 -0.2204 -0.1109
  699POPI   C4A10800   3.138   7.108   6.659  0.1490  0.1629  0.0122
  699POPI   C1B10801   2.764   6.516   6.241  0.0262  0.1916 -0.1850
  699POPI   C2B10802   2.787   6.275   6.597 -0.1821  0.1927  0.3526
  699POPI   C3B10803   2.809   6.354   7.002  0.1040 -0.0910  0.1451
  699POPI   C4B10804   2.832   6.614   7.326  0.1880 -0.0088 -0.1477
  700POPI    C110805  13.346  18.409   5.785 -0.0387 -0.0302 -0.2065
  700POPI    C210806  13.560  18.650   6.023 -0.0484  0.0059 -0.2343
  700POPI    C310807  13.476  18.762   5.648  0.0609 -0.0991 -0.2907
  700POPI   PO410808  13.413  18.183   5.826  0.0291 -0.2166  0.0075
  700POPI   GL110809  13.564  18.074   6.224 -0.2061  0.2183 -0.1728
  700POPI   GL210810  13.330  18.273   6.397  0.1572 -0.0015  0.0425
  700POPI   C1A10811  13.804  18.386   6.398 -0.0450  0.1814  0.0819
  700POPI   D2A10812  14.069  18.149   6.713 -0.0396 -0.0265 -0.1781
  700POPI   C3A10813  13.921  17.811   6.962 -0.1782 -0.3986 -0.3872
  700POPI   C4A10814  13.894  17.650   7.370 -0.1487  0.1083 -0.1799
  700POPI   C1B10815  13.617  18.431   6.816  0.0868 -0.0419  0.0492
  700POPI   C2B10816  13.623  18.465   7.216  0.0753  0.1624  0.0728
  700POPI   C3B10817  13.384  18.530   7.633  0.1861 -0.2008  0.4462
  700POPI   C4B10818  13.643  18.438   7.998 -0.2413 -0.1072 -0.1631
  701POPI    C110819  17.257   6.536   5.274  0.0320  0.0349  0.0513
  701POPI    C210820  17.013   6.674   4.988  0.0311 -0.1830 -0.0550
  701POPI    C310821  17.314   6.429   4.893  0.2475  0.0237  0.0857
  701POPI   PO410822  17.078   6.463   5.502 -0.0547 -0.0367 -0.1848
  701POPI   GL110823  17.061   6.224   5.917 -0.2280 -0.1872 -0.2630
  701POPI   GL210824  17.303   6.431   6.083  0.1708 -0.0738 -0.0744
  701POPI   C1A10825  16.866   6.149   6.358  0.1394  0.2089 -0.1397
  701POPI   D2A10826  16.809   6.174   6.754 -0.2880 -0.0878 -0.5024
  701POPI   C3A10827  16.884   5.888   7.068  0.2895 -0.3377 -0.0936
  701POPI   C4A10828  16.694   5.896   7.376  0.1022 -0.0194 -0.2417
  701POPI   C1B10829  17.623   6.356   6.362  0.0835 -0.2014 -0.2147
  701POPI   C2B10830  17.852   6.153   6.709  0.1326  0.1642 -0.0961
  701POPI   C3B10831  17.878   6.209   7.122 -0.1115  0.2526 -0.1202
  701POPI   C4B10832  18.120   5.943   7.438 -0.1772  0.0586  0.2722
  702POPI    C110833   5.389  15.740   5.281  0.0932 -0.0571 -0.0235
  702POPI    C210834   5.169  15.840   4.962 -0.1222 -0.0446  0.1263
  702POPI    C310835   5.395  15.510   4.954  0.2336  0.1980 -0.2041
  702POPI   PO410836   5.256  15.786   5.519 -0.0204 -0.1316  0.2253
  702POPI   GL110837   4.922  15.937   5.777 -0.1639 -0.0928 -0.3458
  702POPI   GL210838   5.110  15.790   6.031  0.1998  0.3593  0.1620
  702POPI   C1A10839   4.680  16.110   6.016 -0.2764 -0.2104  0.0930
  702POPI   D2A10840   4.777  16.042   6.464  0.0721  0.0691 -0.1189
  702POPI   C3A10841   4.426  15.998   6.755 -0.0145 -0.0561 -0.0024
  702POPI   C4A10842   4.246  16.213   6.955  0.1914  0.0133 -0.4429
  702POPI   C1B10843   5.270  16.011   6.359 -0.0167  0.2496  0.2606
  702POPI   C2B10844   5.530  16.394   6.347 -0.0011 -0.0518  0.0118
  702POPI   C3B10845   5.775  16.586   6.499 -0.0316 -0.2030  0.1668
  702POPI   C4B10846   5.825  16.892   6.752  0.0092 -0.5257 -0.2420
  703POPI    C110847   5.927   7.651   4.918  0.2562  0.0334  0.1301
  703POPI    C210848   5.905   7.264   4.822  0.3811  0.0380  0.0810
  703POPI    C310849   6.221   7.481   4.707  0.1484  0.2389 -0.1939
  703POPI   PO410850   5.668   7.717   5.198  0.0360 -0.0291  0.1935
  703POPI   GL110851   5.611   8.023   5.579 -0.0180  0.0437 -0.1416
  703POPI   GL210852   5.590   8.158   5.834  0.0576 -0.0540  0.1034
  703POPI   C1A10853   5.317   7.803   5.828 -0.1412 -0.0515 -0.0757
  703POPI   D2A10854   5.290   7.598   6.252 -0.4646 -0.1345  0.1609
  703POPI   C3A10855   5.036   7.847   6.633 -0.1285  0.1484 -0.0637
  703POPI   C4A10856   4.956   7.822   6.993 -0.4126  0.3485 -0.1484
  703POPI   C1B10857   5.820   8.189   6.212  0.2003  0.4280  0.0839
  703POPI   C2B10858   5.961   8.414   6.645 -0.1302 -0.0179  0.2914
  703POPI   C3B10859   6.015   8.628   6.905 -0.0502  0.0616  0.0498
  703POPI   C4B10860   6.233   8.597   7.302  0.0971 -0.2928  0.1029
  704POPI    C110861   1.328  12.453   5.199 -0.2398 -0.0310  0.0879
  704POPI    C210862   1.651  12.259   5.066 -0.0096  0.2366  0.2454
  704POPI    C310863   1.293  12.082   5.055  0.1097  0.0067 -0.1066
  704POPI   PO410864   1.483  12.585   5.430  0.3921  0.3693 -0.1701
  704POPI   GL110865   1.662  12.638   5.904  0.2954  0.1930 -0.1212
  704POPI   GL210866   1.969  12.650   5.909  0.0584  0.2814 -0.0884
  704POPI   C1A10867   1.506  12.546   6.276  0.0557  0.1172  0.0338
  704POPI   D2A10868   1.763  12.458   6.640  0.4288  0.1058 -0.1324
  704POPI   C3A10869   1.656  12.188   6.974  0.1081 -0.1049  0.0446
  704POPI   C4A10870   1.683  11.896   7.411 -0.0168 -0.1191  0.0973
  704POPI   C1B10871   2.035  12.418   6.229 -0.0551  0.1447  0.0263
  704POPI   C2B10872   2.148  12.107   6.549  0.2086 -0.0836  0.1055
  704POPI   C3B10873   2.034  11.797   6.846 -0.2761  0.0134 -0.2121
  704POPI   C4B10874   1.732  11.505   7.155  0.0477 -0.1057  0.0691
  705POPI    C110875  10.393  13.242   5.732 -0.2097 -0.0035  0.1565
  705POPI    C210876  10.727  13.419   5.601 -0.2359  0.2330  0.4028
  705POPI    C310877  10.374  13.507   5.433 -0.1847  0.0289  0.1836
  705POPI   PO410878  10.519  13.104   5.954  0.2818  0.1101  0.1669
  705POPI   GL110879  10.319  13.011   6.395  0.1879  0.1124 -0.0246
  705POPI   GL210880  10.415  12.667   6.338 -0.1005  0.0191  0.1478
  705POPI   C1A10881  10.447  12.994   6.816  0.0817  0.2010  0.3544
  705POPI   D2A10882  10.813  12.932   7.107  0.0190 -0.2720 -0.3087
  705POPI   C3A10883  10.735  13.111   7.518 -0.0580  0.3326 -0.2746
  705POPI   C4A10884  10.516  13.169   7.885  0.0158 -0.1169  0.0638
  705POPI   C1B10885  10.622  12.551   6.619  0.1210  0.3551 -0.3739
  705POPI   C2B10886  10.512  12.454   6.989  0.2375  0.0761 -0.2878
  705POPI   C3B10887  10.579  12.660   7.399  0.2166 -0.0195 -0.1707
  705POPI   C4B10888  10.688  12.688   7.799  0.0083 -0.0563 -0.0980
  706POPI    C110889   0.859   1.647   5.188  0.0415  0.2270  0.0737
  706POPI    C210890   1.194   1.507   5.021 -0.2509 -0.3286 -0.0695
  706POPI    C310891   0.903   1.655   4.790 -0.1472  0.0713  0.0484
  706POPI   PO410892   0.962   1.838   5.383 -0.2821  0.0068  0.0279
  706POPI   GL110893   1.066   1.918   5.766 -0.0565 -0.0316 -0.0233
  706POPI   GL210894   0.815   1.650   5.777 -0.2491 -0.0928 -0.2112
  706POPI   C1A10895   1.041   2.110   6.067  0.0305  0.0722 -0.0668
  706POPI   D2A10896   0.926   2.259   6.603 -0.0746  0.1338  0.0068
  706POPI   C3A10897   0.565   2.270   6.980 -0.1346 -0.0158 -0.0550
  706POPI   C4A10898   0.347   1.991   7.200 -0.1977  0.3378  0.0121
  706POPI   C1B10899   1.156   1.538   6.113 -0.2483 -0.3797 -0.0849
  706POPI   C2B10900   1.117   1.611   6.514  0.0989 -0.2143 -0.0141
  706POPI   C3B10901   0.876   1.854   6.894 -0.1968 -0.4933  0.0834
  706POPI   C4B10902   1.109   2.300   7.077 -0.0128  0.3277 -0.0527
  707POPI    C110903   0.460  14.563   4.955 -0.0954  0.1588 -0.0778
  707POPI    C210904   0.785  14.505   4.729 -0.0623 -0.0270  0.0154
  707POPI    C310905   0.423  14.508   4.560 -0.0415 -0.2111 -0.0353
  707POPI   PO410906   0.622  14.783   5.252 -0.0929 -0.0805 -0.0762
  707POPI   GL110907   0.739  14.706   5.667  0.1830 -0.1389 -0.0396
  707POPI   GL210908   0.474  14.546   5.765  0.2946 -0.1235  0.1144
  707POPI   C1A10909   0.580  15.012   6.062 -0.0002 -0.3556  0.0950
  707POPI   D2A10910   0.659  15.045   6.524 -0.0587 -0.0411  0.1086
  707POPI   C3A10911   0.813  14.676   6.746 -0.0255 -0.1106  0.3805
  707POPI   C4A10912   1.032  14.371   6.979  0.4016  0.0355  0.0657
  707POPI   C1B10913   0.528  14.497   6.260  0.3322 -0.1824 -0.1283
  707POPI   C2B10914   0.407  14.371   6.741 -0.2531  0.2756  0.1646
  707POPI   C3B10915   0.558  14.218   7.136  0.0808  0.0123  0.0714
  707POPI   C4B10916   0.426  13.801   7.379  0.1210  0.0280 -0.1315
  708POPI    C110917  13.094  12.602   5.981  0.0065  0.1036  0.0706
  708POPI    C210918  12.952  12.503   5.620 -0.0473  0.5636 -0.0400
  708POPI    C310919  12.729  12.443   5.946  0.0017  0.1455 -0.0790
  708POPI   PO410920  13.304  12.439   6.140  0.1542  0.3672 -0.1370
  708POPI   GL110921  13.477  12.004   6.274 -0.1625  0.1036 -0.0282
  708POPI   GL210922  13.933  12.048   6.323 -0.2542 -0.0587 -0.2909
  708POPI   C1A10923  13.614  11.627   6.286 -0.2228  0.1193  0.1995
  708POPI   D2A10924  13.692  11.424   6.610 -0.0667  0.3070 -0.2744
  708POPI   C3A10925  13.983  11.254   6.908 -0.1868 -0.1804  0.3069
  708POPI   C4A10926  14.220  11.356   7.220  0.0271  0.0645 -0.0904
  708POPI   C1B10927  13.906  11.823   6.745 -0.0866  0.2199 -0.1258
  708POPI   C2B10928  13.971  11.774   7.165 -0.2595  0.0279 -0.3968
  708POPI   C3B10929  14.010  11.686   7.588 -0.3075 -0.1869 -0.0863
  708POPI   C4B10930  14.051  11.768   7.990 -0.0086  0.0835 -0.2453
  709POPI    C110931   5.464   4.805   5.014 -0.2928 -0.2026 -0.0370
  709POPI    C210932   5.331   4.489   4.808 -0.0912 -0.2369 -0.1172
  709POPI    C310933   5.365   4.845   4.628 -0.0494 -0.2346 -0.1046
  709POPI   PO410934   5.653   4.622   5.293 -0.0865 -0.0137  0.3610
  709POPI   GL110935   5.963   4.532   5.585 -0.1044 -0.0539 -0.0731
  709POPI   GL210936   6.325   4.500   5.630 -0.2262 -0.1027 -0.1035
  709POPI   C1A10937   5.955   4.909   5.818  0.2651 -0.1576 -0.1243
  709POPI   D2A10938   5.900   5.167   6.133 -0.0972 -0.0889 -0.2477
  709POPI   C3A10939   5.932   5.114   6.544 -0.0866  0.1279 -0.4275
  709POPI   C4A10940   6.191   5.163   6.852  0.2103  0.2747 -0.2492
  709POPI   C1B10941   6.134   4.519   6.106  0.0805 -0.0412 -0.1511
  709POPI   C2B10942   6.256   4.753   6.387  0.1392 -0.2111 -0.0107
  709POPI   C3B10943   6.442   4.716   6.809  0.0858  0.1148 -0.1191
  709POPI   C4B10944   6.613   4.766   7.261 -0.3609  0.2629  0.3060
  710POPI    C110945  16.821   5.553   5.201  0.1822  0.2574 -0.1001
  710POPI    C210946  16.443   5.467   5.100  0.0990  0.2696  0.1930
  710POPI    C310947  16.596   5.827   5.015  0.0565  0.2526  0.0427
  710POPI   PO410948  16.758   5.357   5.439  0.0141 -0.1410 -0.4551
  710POPI   GL110949  16.828   4.996   5.728  0.0860  0.1151 -0.1430
  710POPI   GL210950  17.027   4.750   5.911  0.0398 -0.0348  0.2079
  710POPI   C1A10951  16.915   5.152   6.174  0.0021  0.3764 -0.4034
  710POPI   D2A10952  17.106   5.130   6.584 -0.0058 -0.2111  0.2148
  710POPI   C3A10953  17.499   5.076   6.694 -0.1789  0.0899  0.4649
  710POPI   C4A10954  17.576   5.297   6.985 -0.1332  0.1003  0.1591
  710POPI   C1B10955  17.054   4.585   6.270 -0.0866 -0.0708  0.1277
  710POPI   C2B10956  17.039   4.579   6.723 -0.4914 -0.3771 -0.2349
  710POPI   C3B10957  17.300   4.797   7.072  0.0976  0.1527 -0.0966
  710POPI   C4B10958  17.437   4.888   7.439  0.1425 -0.0336  0.0000
  711POPI    C110959  18.191   5.879   5.062 -0.0968  0.0369 -0.0679
  711POPI    C210960  18.535   6.061   4.971  0.0483 -0.0951  0.2031
  711POPI    C310961  18.262   5.997   4.687  0.1387  0.2364  0.0361
  711POPI   PO410962  18.079   5.951   5.301  0.0077  0.1960 -0.0097
  711POPI   GL110963  18.214   5.803   5.710 -0.0221  0.1195 -0.0151
  711POPI   GL210964  18.399   5.525   5.703  0.0892  0.2767 -0.1485
  711POPI   C1A10965  18.315   6.133   6.018 -0.1981 -0.3013 -0.1354
  711POPI   D2A10966  18.200   6.370   6.391  0.0584 -0.1720  0.0859
  711POPI   C3A10967  18.352   6.367   6.898  0.3264 -0.0859 -0.1035
  711POPI   C4A10968  18.311   6.355   7.314 -0.2670 -0.3361  0.1552
  711POPI   C1B10969  18.561   5.583   6.163 -0.0059 -0.1356  0.1449
  711POPI   C2B10970  18.726   5.498   6.520  0.4095  0.0191  0.4428
  711POPI   C3B10971  18.823   5.706   6.910 -0.0603  0.0499 -0.0063
  711POPI   C4B10972  18.860   6.075   6.934  0.1639 -0.2163 -0.1062
  712POPI    C110973   2.625   9.425   5.128  0.1917  0.1485  0.1717
  712POPI    C210974   3.005   9.352   5.026  0.0882 -0.0605 -0.0766
  712POPI    C310975   2.712   9.120   4.883 -0.1551  0.2353 -0.0674
  712POPI   PO410976   2.739   9.455   5.482  0.1264  0.2399  0.1321
  712POPI   GL110977   2.979   9.335   5.803 -0.1884  0.1498 -0.1589
  712POPI   GL210978   3.254   9.271   5.974 -0.2248 -0.1128  0.0244
  712POPI   C1A10979   2.825   9.333   6.172 -0.1177 -0.1224 -0.4314
  712POPI   D2A10980   2.790   9.336   6.607  0.3565  0.1951 -0.0654
  712POPI   C3A10981   2.649   9.251   6.974 -0.1396 -0.0709  0.0901
  712POPI   C4A10982   2.795   9.118   7.364  0.0651  0.0075 -0.1938
  712POPI   C1B10983   3.205   9.667   6.191  0.3561 -0.0865 -0.2466
  712POPI   C2B10984   3.075   9.717   6.629  0.0208 -0.0437 -0.3525
  712POPI   C3B10985   2.804   9.704   6.992 -0.3096 -0.2347  0.4194
  712POPI   C4B10986   2.771   9.692   7.402  0.1548 -0.2751  0.1084
  713POPI    C110987   0.710   6.035   5.007 -0.0503  0.0061 -0.0137
  713POPI    C210988   0.801   5.848   4.666 -0.2663  0.0856 -0.1170
  713POPI    C310989   0.665   6.224   4.657  0.1857  0.2608  0.0899
  713POPI   PO410990   0.788   5.954   5.249  0.0599 -0.3818 -0.1415
  713POPI   GL110991   0.633   5.783   5.554  0.0047  0.0039  0.0855
  713POPI   GL210992   0.559   5.520   5.737  0.0997 -0.0253 -0.3131
  713POPI   C1A10993   0.758   5.961   5.981  0.0818  0.2398 -0.0362
  713POPI   D2A10994   0.831   5.922   6.398  0.2045  0.2506 -0.1063
  713POPI   C3A10995   1.241   5.930   6.628  0.3228  0.0369 -0.2512
  713POPI   C4A10996   1.557   5.541   6.824  0.0625  0.2285  0.0649
  713POPI   C1B10997   0.711   5.428   6.063 -0.1701  0.3241  0.1808
  713POPI   C2B10998   0.726   5.459   6.489 -0.0098  0.0303 -0.2301
  713POPI   C3B10999   0.967   5.467   6.769 -0.1228  0.3034 -0.0902
  713POPI   C4B11000   1.269   5.656   7.193  0.1665  0.1365 -0.2561
  714POPI    C111001   7.509  11.113   5.400  0.0581  0.1220  0.1294
  714POPI    C211002   7.286  11.424   5.284  0.0494 -0.0024 -0.1982
  714POPI    C311003   7.581  11.291   5.049  0.0264 -0.2682 -0.0809
  714POPI   PO411004   7.490  11.192   5.708 -0.2002 -0.0575  0.0197
  714POPI   GL111005   7.404  10.996   6.161 -0.2083  0.1993 -0.0964
  714POPI   GL211006   7.239  11.368   6.254  0.0174 -0.0062 -0.3966
  714POPI   C1A11007   7.327  10.733   6.522  0.1717 -0.1686  0.1654
  714POPI   D2A11008   7.017  10.368   6.589 -0.0194  0.3274  0.1336
  714POPI   C3A11009   6.916  10.061   6.982 -0.2294  0.0608 -0.3974
  714POPI   C4A11010   6.682   9.676   7.050 -0.1400 -0.1227 -0.0615
  714POPI   C1B11011   7.125  11.212   6.679 -0.0195 -0.1725  0.1888
  714POPI   C2B11012   7.029  11.304   7.112  0.0760 -0.1407 -0.2566
  714POPI   C3B11013   7.384  11.163   7.416  0.1927 -0.0008 -0.0033
  714POPI   C4B11014   7.553  11.091   7.898  0.0088  0.2265  0.1313
  715POPI    C111015  13.241  16.259   5.762  0.1126 -0.0844  0.0846
  715POPI    C211016  12.893  16.332   5.578  0.0945 -0.0139  0.1463
  715POPI    C311017  13.148  16.065   5.424 -0.0854 -0.2317  0.2212
  715POPI   PO411018  13.119  16.378   6.000  0.2108  0.1072 -0.2534
  715POPI   GL111019  12.970  16.025   6.285 -0.0159  0.0908  0.0288
  715POPI   GL211020  13.322  16.181   6.394  0.1495  0.2221  0.2509
  715POPI   C1A11021  12.906  16.058   6.705 -0.2510 -0.2984 -0.0281
  715POPI   D2A11022  12.894  15.994   7.109  0.2629  0.0123 -0.0914
  715POPI   C3A11023  12.736  16.000   7.443 -0.1962 -0.1155 -0.0126
  715POPI   C4A11024  12.604  15.853   7.833 -0.2098  0.1195  0.0222
  715POPI   C1B11025  13.241  16.342   6.887  0.1520  0.1852  0.1144
  715POPI   C2B11026  13.234  16.366   7.342 -0.1736 -0.2339 -0.1235
  715POPI   C3B11027  13.148  16.174   7.606  0.1443  0.2475  0.2281
  715POPI   C4B11028  13.116  15.738   7.746 -0.4203  0.3745 -0.1419
  716POPI    C111029   5.712   6.935   5.148  0.1763  0.0403 -0.0598
  716POPI    C211030   6.100   6.878   5.225  0.1589 -0.1235 -0.0899
  716POPI    C311031   5.882   6.583   5.066 -0.0151 -0.0856  0.0751
  716POPI   PO411032   5.574   7.056   5.342  0.2610 -0.0720  0.0272
  716POPI   GL111033   5.443   7.395   5.563 -0.4054  0.3782  0.0990
  716POPI   GL211034   5.752   7.422   5.653  0.3195 -0.1207  0.0329
  716POPI   C1A11035   5.414   7.134   5.990 -0.2467  0.1160 -0.1089
  716POPI   D2A11036   5.346   7.050   6.443 -0.2773  0.0469 -0.0462
  716POPI   C3A11037   5.272   7.370   6.740  0.0948  0.2467 -0.1372
  716POPI   C4A11038   5.030   7.301   7.150  0.1398  0.1145 -0.1040
  716POPI   C1B11039   5.777   7.681   6.136  0.0282 -0.1986  0.0525
  716POPI   C2B11040   5.664   7.434   6.509 -0.2341  0.2601 -0.0018
  716POPI   C3B11041   5.732   7.323   6.946 -0.4172  0.0575 -0.0324
  716POPI   C4B11042   5.950   7.194   7.316  0.3594  0.2542 -0.2006
  717POPI    C111043  15.792  17.078   5.666  0.1172  0.3146 -0.0517
  717POPI    C211044  15.528  17.210   5.396 -0.1035  0.0313  0.0211
  717POPI    C311045  15.878  17.057   5.276 -0.1848 -0.0583 -0.1042
  717POPI   PO411046  15.902  17.226   5.867  0.2446 -0.3505  0.0372
  717POPI   GL111047  15.963  17.671   6.044  0.0461  0.0373 -0.0946
  717POPI   GL211048  16.208  17.509   6.163 -0.0646 -0.2713 -0.1910
  717POPI   C1A11049  16.015  17.855   6.495 -0.2070  0.0022 -0.1900
  717POPI   D2A11050  16.138  17.833   6.931 -0.1881 -0.0038  0.2726
  717POPI   C3A11051  16.590  17.876   6.839 -0.1895 -0.0234 -0.1556
  717POPI   C4A11052  16.926  18.150   7.031 -0.0910  0.1469 -0.1285
  717POPI   C1B11053  16.661  17.745   6.307  0.1510 -0.1449  0.0101
  717POPI   C2B11054  17.112  17.946   6.108  0.0331 -0.0055  0.2420
  717POPI   C3B11055  17.496  17.883   6.194  0.0101 -0.0843 -0.0528
  717POPI   C4B11056  17.761  17.839   6.546 -0.0808 -0.0961  0.2125
  718POPI    C111057  11.188  16.226   5.914  0.0949 -0.1651  0.1834
  718POPI    C211058  11.034  16.527   5.701  0.0112 -0.0211  0.4422
  718POPI    C311059  11.355  16.330   5.566  0.0293  0.1423  0.2409
  718POPI   PO411060  11.226  16.327   6.157 -0.0636  0.3784  0.2107
  718POPI   GL111061  11.327  15.960   6.320 -0.0842 -0.0192 -0.0409
  718POPI   GL211062  11.572  16.248   6.477 -0.1708  0.0124  0.3813
  718POPI   C1A11063  11.215  15.878   6.707 -0.2222  0.0400 -0.1899
  718POPI   D2A11064  11.392  15.746   7.068  0.3423  0.0822 -0.0081
  718POPI   C3A11065  11.294  15.303   7.237 -0.0055 -0.0150  0.4914
  718POPI   C4A11066  11.162  14.886   7.034  0.2128 -0.1777 -0.0144
  718POPI   C1B11067  11.668  16.651   6.780 -0.0340  0.0696 -0.0410
  718POPI   C2B11068  11.609  16.603   7.289 -0.1018  0.1691  0.0690
  718POPI   C3B11069  11.415  16.595   7.738  0.1094  0.0968  0.2417
  718POPI   C4B11070  10.946  16.522   7.803  0.0055  0.0299  0.0132
  719POPI    C111071   6.570   4.892   4.894 -0.0936  0.1055  0.2144
  719POPI    C211072   6.323   4.621   4.735 -0.0133  0.0887  0.1172
  719POPI    C311073   6.222   5.008   4.737  0.0740  0.1149 -0.1599
  719POPI   PO411074   6.618   4.730   5.142 -0.0147  0.0711 -0.0041
  719POPI   GL111075   6.827   4.463   5.435 -0.0450 -0.0908 -0.0140
  719POPI   GL211076   7.095   4.706   5.598  0.0523 -0.4709  0.1295
  719POPI   C1A11077   7.006   4.157   5.818  0.0547  0.1686  0.3703
  719POPI   D2A11078   7.162   4.202   6.256  0.2209  0.0190 -0.0774
  719POPI   C3A11079   7.414   4.002   6.446 -0.2231  0.0578 -0.4219
  719POPI   C4A11080   7.583   3.911   6.853 -0.2639  0.1253 -0.0286
  719POPI   C1B11081   7.313   4.717   5.974 -0.0868  0.2024  0.1070
  719POPI   C2B11082   7.339   4.637   6.423 -0.1340 -0.0083  0.0830
  719POPI   C3B11083   7.375   4.378   6.814 -0.1097  0.2618  0.1071
  719POPI   C4B11084   7.693   4.456   7.218  0.2138  0.0825 -0.0634
  720POPI    C111085  11.665  11.467   5.758  0.0576  0.3155  0.1678
  720POPI    C211086  11.334  11.652   5.629  0.0582 -0.0416 -0.3802
  720POPI    C311087  11.691  11.829   5.590 -0.0128  0.1332 -0.2488
  720POPI   PO411088  11.568  11.291   6.092 -0.0763 -0.0396  0.0603
  720POPI   GL111089  11.192  11.266   6.377  0.3822 -0.0487  0.1096
  720POPI   GL211090  11.340  10.995   6.466  0.1009 -0.1240  0.3789
  720POPI   C1A11091  11.086  11.182   6.853  0.1455 -0.1404 -0.1965
  720POPI   D2A11092  10.965  10.928   7.153 -0.0368  0.2956  0.3676
  720POPI   C3A11093  10.878  11.051   7.561 -0.2543 -0.1438  0.2521
  720POPI   C4A11094  10.751  11.067   7.936 -0.2373 -0.0527 -0.0282
  720POPI   C1B11095  11.426  10.689   6.778  0.0717 -0.1189  0.0092
  720POPI   C2B11096  11.310  10.586   7.165 -0.2348  0.5941 -0.0269
  720POPI   C3B11097  11.218  10.652   7.545 -0.0333 -0.1996 -0.0673
  720POPI   C4B11098  11.143  10.661   7.941  0.2616  0.2091  0.1559
  721POPI    C111099  15.141   1.802   5.678  0.1723  0.0048 -0.1052
  721POPI    C211100  15.371   1.479   5.726 -0.0998 -0.1697  0.0496
  721POPI    C311101  15.028   1.451   5.523 -0.0708  0.0485 -0.0311
  721POPI   PO411102  15.082   1.928   5.976 -0.1822  0.1377 -0.0070
  721POPI   GL111103  14.738   1.899   6.297  0.3844 -0.0082  0.0070
  721POPI   GL211104  14.446   1.853   6.096 -0.2057 -0.1471 -0.1048
  721POPI   C1A11105  14.810   2.024   6.717  0.1290  0.0764 -0.1701
  721POPI   D2A11106  14.972   2.044   7.161 -0.0596 -0.1528  0.3812
  721POPI   C3A11107  15.320   2.338   7.379  0.0634 -0.1564  0.0638
  721POPI   C4A11108  15.280   2.635   7.887  0.0099 -0.0185 -0.0945
  721POPI   C1B11109  14.294   2.094   6.410  0.0671 -0.1162  0.2177
  721POPI   C2B11110  14.314   2.213   6.809 -0.0245  0.0160  0.0085
  721POPI   C3B11111  14.525   2.226   7.316  0.0016 -0.1662  0.1258
  721POPI   C4B11112  14.925   2.305   7.698 -0.1717 -0.2163  0.2579
  722POPI    C111113  18.575   4.865   5.176 -0.0027 -0.0594 -0.1105
  722POPI    C211114  18.684   4.764   4.804  0.0639  0.1624 -0.1526
  722POPI    C311115  18.405   5.045   4.862 -0.3224 -0.2322 -0.0407
  722POPI   PO411116  18.501   4.658   5.348 -0.0430  0.1985 -0.0919
  722POPI   GL111117  18.207   4.602   5.636  0.1738 -0.0883 -0.1055
  722POPI   GL211118  17.907   4.501   5.487 -0.1514 -0.0504 -0.2491
  722POPI   C1A11119  18.384   4.765   5.944  0.0052 -0.2284  0.0101
  722POPI   D2A11120  18.417   5.065   6.209  0.0291  0.0969  0.0609
  722POPI   C3A11121  18.519   5.059   6.598 -0.2709  0.3299  0.1252
  722POPI   C4A11122  18.506   5.268   6.927 -0.1019  0.0793 -0.1507
  722POPI   C1B11123  17.857   4.507   5.947  0.0024 -0.2318 -0.3747
  722POPI   C2B11124  17.927   4.713   6.260  0.1503 -0.1955 -0.3241
  722POPI   C3B11125  17.918   5.192   6.208 -0.1423 -0.3381 -0.1159
  722POPI   C4B11126  17.771   5.473   5.860  0.3264 -0.0900 -0.0246
  723POPI    C111127  16.793   0.548   5.385  0.3959 -0.1980 -0.0754
  723POPI    C211128  16.904   0.926   5.453  0.0856 -0.1125 -0.0293
  723POPI    C311129  17.043   0.731   5.133  0.1384  0.0870 -0.1297
  723POPI   PO411130  16.808   0.477   5.649 -0.2855 -0.1550 -0.3898
  723POPI   GL111131  16.974   0.630   6.055  0.0111  0.1958  0.3125
  723POPI   GL211132  16.760   0.369   6.088 -0.2170  0.5352 -0.0989
  723POPI   C1A11133  17.189   0.511   6.516 -0.1217  0.0354 -0.0326
  723POPI   D2A11134  17.149   0.332   6.936 -0.3939 -0.1494 -0.1641
  723POPI   C3A11135  17.465   0.184   7.144  0.3304 -0.0483 -0.0107
  723POPI   C4A11136  17.740   0.071   7.413 -0.0736  0.3098 -0.1156
  723POPI   C1B11137  16.636   0.613   6.433  0.1565  0.0255 -0.1217
  723POPI   C2B11138  16.727   0.579   6.838  0.2372  0.0928 -0.4473
  723POPI   C3B11139  16.690   0.399   7.279  0.1938 -0.1834  0.1743
  723POPI   C4B11140  16.588   0.310   7.676  0.1546 -0.1523 -0.1516
  724POPI    C111141  17.439  16.882   5.390 -0.0219  0.0109 -0.1272
  724POPI    C211142  17.608  17.217   5.252  0.1811 -0.0456 -0.0199
  724POPI    C311143  17.210  17.190   5.279  0.1535  0.0932 -0.2648
  724POPI   PO411144  17.457  16.805   5.620 -0.2816 -0.1594  0.2023
  724POPI   GL111145  17.510  16.920   6.021  0.0999  0.2832 -0.0432
  724POPI   GL211146  17.228  16.814   6.065 -0.2077  0.0790 -0.1581
  724POPI   C1A11147  17.598  17.306   6.336 -0.2153  0.2719 -0.1433
  724POPI   D2A11148  17.426  17.377   6.781  0.0921  0.1856 -0.2257
  724POPI   C3A11149  17.717  17.324   7.161  0.0276 -0.0012  0.0263
  724POPI   C4A11150  17.590  17.260   7.587  0.1629  0.0280  0.2527
  724POPI   C1B11151  17.138  17.069   6.411 -0.3227  0.3313  0.0509
  724POPI   C2B11152  17.047  17.032   6.850 -0.4236  0.2114  0.1850
  724POPI   C3B11153  17.123  17.175   7.228  0.2057  0.2964  0.2938
  724POPI   C4B11154  17.155  17.051   7.568 -0.2586 -0.1363 -0.1968
  725POPI    C111155  12.189  16.645   5.943 -0.0444  0.1409  0.1959
  725POPI    C211156  12.187  17.006   5.771 -0.0685  0.0725  0.0509
  725POPI    C311157  11.963  16.711   5.620  0.0693 -0.0464  0.0763
  725POPI   PO411158  12.197  16.765   6.207  0.0204  0.0416  0.2237
  725POPI   GL111159  12.364  16.787   6.597  0.0961  0.2297 -0.1046
  725POPI   GL211160  12.584  17.010   6.432  0.4982 -0.1051  0.1792
  725POPI   C1A11161  12.246  16.704   7.090 -0.2391  0.2922 -0.0558
  725POPI   D2A11162  12.254  16.526   7.417 -0.1541  0.0280  0.0798
  725POPI   C3A11163  11.912  16.437   7.658 -0.0941  0.3338  0.0123
  725POPI   C4A11164  11.597  16.143   7.766 -0.0829  0.0770 -0.2428
  725POPI   C1B11165  12.445  17.169   6.877 -0.4503  0.0556 -0.1809
  725POPI   C2B11166  12.368  17.195   7.246  0.0834 -0.1596  0.0906
  725POPI   C3B11167  12.435  16.937   7.639 -0.0822  0.1494  0.1625
  725POPI   C4B11168  12.154  16.720   7.946  0.0796 -0.2142 -0.0093
  726POPI    C111169   1.261  11.579   4.925  0.0833  0.0847  0.1316
  726POPI    C211170   0.915  11.742   5.043 -0.0556 -0.0925 -0.0238
  726POPI    C311171   1.008  11.731   4.654  0.1224 -0.0535  0.0167
  726POPI   PO411172   1.271  11.517   5.240 -0.5110  0.1223 -0.1205
  726POPI   GL111173   1.477  11.776   5.613 -0.0513  0.1317  0.0376
  726POPI   GL211174   1.598  12.109   5.622  0.0870  0.1514  0.0114
  726POPI   C1A11175   1.525  11.496   5.901  0.0780  0.4307  0.2859
  726POPI   D2A11176   1.438  11.418   6.288  0.0539 -0.0896 -0.0174
  726POPI   C3A11177   1.603  10.984   6.500  0.6582 -0.0636  0.3424
  726POPI   C4A11178   1.887  10.772   6.714 -0.0011 -0.0815  0.0314
  726POPI   C1B11179   1.471  12.028   6.054  0.2518 -0.1594  0.2994
  726POPI   C2B11180   1.386  12.083   6.403 -0.0818 -0.0189 -0.0171
  726POPI   C3B11181   1.182  12.048   6.844  0.1068 -0.2490  0.2277
  726POPI   C4B11182   1.299  11.757   7.142  0.2171 -0.1549 -0.0369
  727POPI    C111183   4.908  15.415   5.618 -0.1370  0.1869  0.1899
  727POPI    C211184   4.747  15.274   5.280  0.0476 -0.0258  0.1884
  727POPI    C311185   4.815  15.666   5.320 -0.0543  0.0109  0.0135
  727POPI   PO411186   4.768  15.405   5.774  0.0473 -0.1221  0.1358
  727POPI   GL111187   4.776  15.238   6.128 -0.0821  0.3208  0.1476
  727POPI   GL211188   4.617  15.055   6.325 -0.2657 -0.2939 -0.2243
  727POPI   C1A11189   4.945  15.473   6.407 -0.0578 -0.2623 -0.0695
  727POPI   D2A11190   4.886  15.702   6.787  0.0149  0.0968 -0.1507
  727POPI   C3A11191   5.088  15.981   6.873 -0.2693  0.0085 -0.0155
  727POPI   C4A11192   5.346  16.279   6.804  0.1444 -0.2471 -0.1047
  727POPI   C1B11193   4.731  15.144   6.811 -0.2095  0.2272  0.1257
  727POPI   C2B11194   4.924  15.319   7.140  0.0283  0.0075  0.4536
  727POPI   C3B11195   4.727  15.637   7.311 -0.0076  0.0785 -0.3063
  727POPI   C4B11196   4.685  16.144   7.238 -0.0967 -0.0773 -0.1812
  728POPI    C111197  12.715  14.217   5.758 -0.0740 -0.0011  0.3567
  728POPI    C211198  12.679  13.932   5.480  0.1515  0.1573  0.1616
  728POPI    C311199  12.775  13.834   5.856  0.2920 -0.0191  0.0815
  728POPI   PO411200  12.868  14.370   5.710 -0.0840  0.0407 -0.1074
  728POPI   GL111201  13.141  14.510   6.118 -0.1573  0.0111  0.1147
  728POPI   GL211202  12.843  14.551   6.234 -0.1886 -0.1142  0.3045
  728POPI   C1A11203  13.245  14.453   6.477 -0.2048  0.1307  0.0911
  728POPI   D2A11204  13.230  14.396   6.884  0.0658 -0.0511  0.1579
  728POPI   C3A11205  13.122  14.855   7.079 -0.3379 -0.1028  0.2683
  728POPI   C4A11206  12.801  15.143   7.111 -0.1357 -0.1332 -0.1013
  728POPI   C1B11207  12.644  14.298   6.459 -0.0839  0.3069  0.0812
  728POPI   C2B11208  12.645  14.257   6.949 -0.0632 -0.1443  0.0635
  728POPI   C3B11209  12.762  14.437   7.342 -0.0507  0.1640  0.1013
  728POPI   C4B11210  12.545  14.853   7.538  0.0425 -0.0139  0.0343
  729POPI    C111211   0.276   3.148   4.995 -0.1705 -0.1826  0.0721
  729POPI    C211212   0.472   2.855   4.806  0.0942 -0.1737  0.3245
  729POPI    C311213   0.125   2.777   4.989 -0.0498 -0.2318  0.0335
  729POPI   PO411214   0.440   3.316   5.064  0.0401  0.1147 -0.2171
  729POPI   GL111215   0.454   3.575   5.424 -0.2023  0.1440 -0.1209
  729POPI   GL211216   0.604   3.284   5.563 -0.0891  0.0427  0.0271
  729POPI   C1A11217   0.313   3.754   5.828 -0.3351  0.0154  0.0499
  729POPI   D2A11218   0.497   3.713   6.230  0.1004 -0.2045  0.0200
  729POPI   C3A11219   0.414   3.560   6.593 -0.0743 -0.0852 -0.0958
  729POPI   C4A11220   0.576   3.744   6.954  0.1893  0.1299 -0.1451
  729POPI   C1B11221   0.724   3.381   5.973 -0.0293  0.0474  0.2030
  729POPI   C2B11222   0.778   3.243   6.388  0.0397 -0.0148 -0.4215
  729POPI   C3B11223   0.657   3.153   6.829  0.0429 -0.0717 -0.3618
  729POPI   C4B11224   0.695   3.327   7.212  0.2573  0.1588 -0.0491
  730POPI    C111225  11.462  10.410   5.589  0.3817  0.1669  0.0281
  730POPI    C211226  11.755  10.360   5.322  0.1962  0.2257 -0.1900
  730POPI    C311227  11.437  10.118   5.316  0.2247  0.1812  0.0260
  730POPI   PO411228  11.695  10.477   5.870  0.1942  0.0530 -0.1235
  730POPI   GL111229  11.902  10.672   6.255 -0.0817  0.1743 -0.3887
  730POPI   GL211230  11.859  10.933   6.414 -0.2154  0.1653 -0.0617
  730POPI   C1A11231  12.114  10.279   6.513  0.2605 -0.2685 -0.0235
  730POPI   D2A11232  12.235   9.955   6.613 -0.3214 -0.2414 -0.1956
  730POPI   C3A11233  12.569   9.888   6.951  0.1368 -0.2142  0.0815
  730POPI   C4A11234  12.935   9.652   7.236  0.0229 -0.0473 -0.2339
  730POPI   C1B11235  12.038  10.744   6.736  0.1124  0.1266  0.0140
  730POPI   C2B11236  12.091  10.864   7.137  0.5608  0.0593  0.2037
  730POPI   C3B11237  12.022  10.914   7.644  0.2341  0.5952  0.0801
  730POPI   C4B11238  11.857  11.009   7.968 -0.0273 -0.0374  0.1283
  731POPI    C111239  12.438   3.113   5.513 -0.0228 -0.1072 -0.0584
  731POPI    C211240  12.504   3.378   5.806 -0.0841 -0.0576 -0.0895
  731POPI    C311241  12.643   3.448   5.437  0.2513 -0.2600 -0.0056
  731POPI   PO411242  12.233   2.946   5.806  0.0036 -0.0296 -0.2954
  731POPI   GL111243  12.205   2.943   6.286  0.1185  0.1614  0.2585
  731POPI   GL211244  12.518   2.829   6.487  0.1629 -0.0830 -0.1771
  731POPI   C1A11245  11.990   2.664   6.567 -0.4045 -0.2403 -0.1351
  731POPI   D2A11246  11.838   2.265   6.708 -0.2573 -0.0927  0.0263
  731POPI   C3A11247  11.806   2.021   7.041 -0.0098 -0.2489 -0.0348
  731POPI   C4A11248  12.136   1.908   7.270  0.0189  0.1941 -0.1496
  731POPI   C1B11249  12.296   3.001   6.856  0.2548 -0.3574  0.2153
  731POPI   C2B11250  11.953   2.920   7.101 -0.1435 -0.2266  0.0194
  731POPI   C3B11251  11.749   2.520   7.170 -0.0163 -0.1073 -0.0785
  731POPI   C4B11252  11.562   2.511   7.629  0.1922  0.1856  0.1245
  732POPI    C111253   7.260   2.474   5.294  0.0025  0.1379 -0.1403
  732POPI    C211254   7.163   2.136   5.485  0.2223  0.0840 -0.1211
  732POPI    C311255   6.993   2.224   5.133 -0.1174  0.1398  0.0526
  732POPI   PO411256   7.215   2.645   5.428 -0.2908  0.2040 -0.0173
  732POPI   GL111257   7.041   2.788   5.740 -0.0955  0.0829  0.2470
  732POPI   GL211258   6.882   2.471   5.845  0.2125 -0.0803  0.1512
  732POPI   C1A11259   7.036   2.820   6.171 -0.1001  0.0062 -0.3640
  732POPI   D2A11260   7.210   2.682   6.507  0.0164  0.0964  0.0674
  732POPI   C3A11261   7.028   2.799   6.912  0.0919  0.1422 -0.0702
  732POPI   C4A11262   6.824   3.023   7.102 -0.0621 -0.2096 -0.0508
  732POPI   C1B11263   6.597   2.609   6.217 -0.0407  0.0629 -0.0488
  732POPI   C2B11264   6.708   2.931   6.533  0.0849 -0.1007 -0.0047
  732POPI   C3B11265   6.999   3.217   6.610 -0.2695 -0.0143 -0.1180
  732POPI   C4B11266   7.123   3.449   6.934 -0.3348  0.1800  0.0677
  733POPI    C111267  17.538   7.391   5.486 -0.0723  0.2794 -0.0311
  733POPI    C211268  17.787   7.484   5.187 -0.0384 -0.1970 -0.1594
  733POPI    C311269  17.932   7.341   5.531 -0.0934  0.1436  0.0091
  733POPI   PO411270  17.294   7.597   5.570  0.1631  0.1287 -0.0621
  733POPI   GL111271  17.227   7.741   6.026 -0.2068  0.1464 -0.0399
  733POPI   GL211272  17.379   7.664   6.320 -0.0130 -0.1407  0.0017
  733POPI   C1A11273  16.962   8.000   6.206 -0.0546  0.0280  0.0200
  733POPI   D2A11274  16.553   8.075   6.537 -0.0352  0.0743  0.2452
  733POPI   C3A11275  16.635   8.312   6.957  0.0429  0.1654  0.3945
  733POPI   C4A11276  16.663   8.223   7.368 -0.2006  0.1784 -0.0473
  733POPI   C1B11277  17.115   7.769   6.668 -0.0104 -0.1414  0.1588
  733POPI   C2B11278  16.837   7.838   6.971  0.3472 -0.0601 -0.2002
  733POPI   C3B11279  17.064   7.935   7.360  0.2698 -0.1756  0.3571
  733POPI   C4B11280  17.149   8.006   7.658  0.1392  0.0368 -0.0456
  734POPI    C111281  11.921   6.355   5.405  0.1632  0.0043 -0.0695
  734POPI    C211282  11.542   6.396   5.283  0.1394  0.1576  0.0539
  734POPI    C311283  11.748   6.068   5.186 -0.0588  0.0252  0.0748
  734POPI   PO411284  11.937   6.349   5.648  0.2104 -0.1048 -0.3355
  734POPI   GL111285  11.573   6.221   5.983 -0.2008  0.0520  0.0518
  734POPI   GL211286  11.658   6.474   6.134  0.1928  0.2343 -0.0515
  734POPI   C1A11287  11.431   6.042   6.340 -0.0506  0.1986  0.0886
  734POPI   D2A11288  11.405   6.024   6.841 -0.1200 -0.0237  0.0219
  734POPI   C3A11289  11.291   6.418   7.108 -0.0902 -0.1874  0.1473
  734POPI   C4A11290  11.217   6.351   7.576 -0.3794  0.0730 -0.0324
  734POPI   C1B11291  11.769   6.423   6.632 -0.0362 -0.0039 -0.3773
  734POPI   C2B11292  11.994   6.719   6.878 -0.3947  0.0301  0.1398
  734POPI   C3B11293  12.182   6.717   7.190  0.0044 -0.1501  0.0921
  734POPI   C4B11294  12.414   6.424   7.325 -0.1019 -0.0502  0.0337
  735POPI    C111295   9.733   2.314   5.458  0.1360  0.1871  0.0822
  735POPI    C211296   9.473   2.456   5.727 -0.0013  0.3031 -0.1090
  735POPI    C311297   9.340   2.294   5.387  0.1655 -0.0003 -0.0338
  735POPI   PO411298   9.970   2.244   5.635 -0.4740 -0.1540  0.2453
  735POPI   GL111299  10.049   2.283   6.088  0.2263  0.4401 -0.0575
  735POPI   GL211300   9.770   2.390   6.132  0.0253 -0.0319 -0.0029
  735POPI   C1A11301  10.063   2.462   6.604  0.1460  0.2865 -0.2288
  735POPI   D2A11302  10.086   2.666   7.057 -0.0853 -0.1197  0.3765
  735POPI   C3A11303   9.835   2.983   7.412  0.0928 -0.0473  0.0512
  735POPI   C4A11304   9.584   3.167   7.322  0.0149  0.0108  0.4406
  735POPI   C1B11305   9.613   2.306   6.568  0.0992 -0.1851 -0.0193
  735POPI   C2B11306   9.802   2.268   6.995  0.1792  0.0596 -0.0997
  735POPI   C3B11307   9.786   2.477   7.460  0.2065  0.0440  0.0908
  735POPI   C4B11308   9.665   2.334   7.871  0.0302  0.1647  0.1997
  736POPI    C111309  18.151  15.351   5.283  0.0413  0.1341 -0.0739
  736POPI    C211310  17.963  15.696   5.208 -0.0611  0.0730 -0.0994
  736POPI    C311311  17.867  15.366   5.003 -0.0889 -0.0115  0.0486
  736POPI   PO411312  18.169  15.356   5.575 -0.0568 -0.1251 -0.1759
  736POPI   GL111313  18.303  15.501   5.963  0.0303  0.2920  0.0365
  736POPI   GL211314  18.494  15.774   6.001 -0.1054  0.1637  0.2691
  736POPI   C1A11315  18.079  15.642   6.354  0.2981 -0.1085 -0.1255
  736POPI   D2A11316  17.951  15.515   6.770 -0.2886 -0.3341  0.1405
  736POPI   C3A11317  18.144  15.261   6.641  0.1338  0.1424 -0.1506
  736POPI   C4A11318  18.530  15.109   6.695 -0.1509 -0.0366  0.2356
  736POPI   C1B11319  18.540  15.562   6.401 -0.3571  0.0229  0.2130
  736POPI   C2B11320  18.505  15.597   6.781 -0.2431  0.3602 -0.1777
  736POPI   C3B11321  18.544  15.813   7.103 -0.0541  0.0815 -0.0232
  736POPI   C4B11322  18.739  16.087   7.403 -0.1067 -0.3495  0.1008
  737POPI    C111323   1.457   1.032   5.208  0.0384 -0.0400  0.0562
  737POPI    C211324   1.151   0.779   5.163  0.0783 -0.1144  0.1994
  737POPI    C311325   1.430   0.808   4.878 -0.0920 -0.0040  0.0419
  737POPI   PO411326   1.471   1.005   5.543  0.0647  0.1390 -0.1098
  737POPI   GL111327   1.634   0.795   5.838 -0.5769 -0.1594  0.2843
  737POPI   GL211328   1.948   0.581   5.791 -0.0468 -0.1344 -0.1148
  737POPI   C1A11329   1.672   0.818   6.282 -0.0496  0.0676  0.0619
  737POPI   D2A11330   1.750   0.730   6.693 -0.0398  0.0928 -0.1360
  737POPI   C3A11331   1.644   1.023   6.981  0.0733  0.0756  0.1732
  737POPI   C4A11332   1.689   1.011   7.519  0.0358 -0.0347 -0.2186
  737POPI   C1B11333   2.135   0.678   6.114 -0.0848  0.1496 -0.0333
  737POPI   C2B11334   2.423   0.349   6.324  0.0397  0.2526  0.0594
  737POPI   C3B11335   2.795   0.199   6.533 -0.0175  0.0433 -0.1944
  737POPI   C4B11336   2.745   0.339   6.909 -0.2896 -0.0252  0.0342
  738POPI    C111337   3.367   0.494   5.124 -0.2051  0.0225  0.4296
  738POPI    C211338   3.120   0.202   5.007  0.1341 -0.0955 -0.0234
  738POPI    C311339   2.983   0.575   5.052 -0.1364 -0.1693 -0.2140
  738POPI   PO411340   3.525   0.542   5.536  0.1203  0.1337 -0.0622
  738POPI   GL111341   3.840   0.570   5.868 -0.0655 -0.1774  0.5602
  738POPI   GL211342   3.844   0.303   5.782 -0.3257 -0.2639  0.0121
  738POPI   C1A11343   4.131   0.554   6.195 -0.1526 -0.2085  0.1388
  738POPI   D2A11344   4.224   0.291   6.435 -0.1605  0.0638 -0.0388
  738POPI   C3A11345   3.993   0.161   6.671 -0.2075  0.1741  0.0436
  738POPI   C4A11346   3.764   0.127   7.072 -0.1981 -0.2719  0.0846
  738POPI   C1B11347   3.836   0.109   6.181 -0.3158  0.0906  0.0486
  738POPI   C2B11348   3.626  -0.209   6.339  0.1515 -0.0004 -0.1212
  738POPI   C3B11349   3.720  -0.406   6.760 -0.2688  0.0724 -0.2330
  738POPI   C4B11350   4.018  -0.451   7.050 -0.1363  0.1052  0.0269
  739POPI    C111351  16.538  16.834   5.824  0.0063 -0.1012  0.2652
  739POPI    C211352  16.173  16.671   5.820  0.0031 -0.0920  0.1274
  739POPI    C311353  16.279  16.929   5.534  0.1353 -0.1340  0.1378
  739POPI   PO411354  16.679  16.674   5.946 -0.1633  0.0579  0.0647
  739POPI   GL111355  16.853  16.706   6.376  0.0799 -0.2778 -0.1108
  739POPI   GL211356  17.006  16.458   6.297  0.1049  0.2239 -0.2554
  739POPI   C1A11357  16.915  16.487   6.792  0.0834  0.2431  0.3782
  739POPI   D2A11358  17.125  16.629   7.059 -0.0027 -0.0174 -0.1361
  739POPI   C3A11359  17.317  16.581   7.504  0.0632 -0.0130 -0.3196
  739POPI   C4A11360  17.777  16.607   7.673  0.0785 -0.1331 -0.2078
  739POPI   C1B11361  17.270  16.578   6.513  0.0835  0.3954  0.0092
  739POPI   C2B11362  17.526  16.393   6.797  0.2218  0.0721 -0.0714
  739POPI   C3B11363  17.568  16.221   7.206 -0.3713  0.3323  0.3194
  739POPI   C4B11364  17.788  16.098   7.454 -0.2577  0.1080 -0.1576
  740POPI    C111365  18.474  13.766   5.385 -0.1455 -0.0023 -0.1491
  740POPI    C211366  18.173  13.983   5.535  0.0038  0.0271  0.1127
  740POPI    C311367  18.131  13.801   5.181 -0.1809  0.3506 -0.0356
  740POPI   PO411368  18.484  13.473   5.473 -0.0873 -0.0690  0.0371
  740POPI   GL111369  18.460  13.242   5.749 -0.1067  0.0753  0.0349
  740POPI   GL211370  18.428  13.476   6.003  0.0295 -0.0145 -0.0958
  740POPI   C1A11371  18.463  12.923   6.154  0.0685  0.0938  0.2438
  740POPI   D2A11372  18.403  13.042   6.541 -0.0139  0.2857  0.0369
  740POPI   C3A11373  18.413  13.426   6.481  0.3024  0.2696  0.2854
  740POPI   C4A11374  18.403  13.773   6.701 -0.1653 -0.2158  0.1497
  740POPI   C1B11375  18.078  13.278   6.184  0.2897 -0.0476  0.1073
  740POPI   C2B11376  17.870  12.986   6.472 -0.0084  0.2617  0.0684
  740POPI   C3B11377  17.559  13.007   6.827 -0.2974 -0.1176  0.0073
  740POPI   C4B11378  17.342  13.082   7.066 -0.3628  0.2250 -0.0390
  741POPS   CNO11379   1.560   1.312   4.739 -0.1391  0.0089  0.0109
  741POPS   PO411380   1.752   1.396   5.149 -0.0884 -0.1506  0.0744
  741POPS   GL111381   1.877   1.523   5.548  0.0319  0.3007  0.0357
  741POPS   GL211382   1.553   1.522   5.732  0.2087  0.0155  0.0536
  741POPS   C1A11383   1.993   1.615   5.967  0.0759 -0.0116  0.1226
  741POPS   D2A11384   1.788   1.793   6.470 -0.1985 -0.0120  0.1312
  741POPS   C3A11385   1.819   1.643   6.914  0.0457 -0.0206 -0.3930
  741POPS   C4A11386   1.940   1.352   7.234  0.2057 -0.2076  0.0643
  741POPS   C1B11387   1.623   1.381   6.153 -0.1311 -0.3902 -0.0113
  741POPS   C2B11388   1.573   1.351   6.595  0.0741 -0.1948  0.0631
  741POPS   C3B11389   1.317   1.398   6.928  0.0686  0.0896 -0.0156
  741POPS   C4B11390   1.310   1.375   7.372 -0.1585 -0.0504 -0.0240
  742POPS   CNO11391  13.448  10.914   5.075 -0.3871 -0.4928 -0.1029
  742POPS   PO411392  13.884  11.002   5.399 -0.1140 -0.1305  0.0434
  742POPS   GL111393  13.803  10.770   5.765 -0.0178 -0.0841 -0.0093
  742POPS   GL211394  13.980  10.441   5.791  0.0384  0.1029  0.0143
  742POPS   C1A11395  13.492  10.591   6.050 -0.1502  0.1914 -0.1699
  742POPS   D2A11396  13.471  10.546   6.546  0.3613  0.0858  0.1304
  742POPS   C3A11397  13.329  10.296   6.796  0.3229  0.0666  0.0901
  742POPS   C4A11398  12.923  10.291   6.982  0.0248  0.1217 -0.3526
  742POPS   C1B11399  14.009  10.447   6.320  0.2336 -0.1044 -0.2653
  742POPS   C2B11400  13.778  10.118   6.598  0.1407 -0.0531  0.3389
  742POPS   C3B11401  13.634   9.835   6.940 -0.2622  0.2926 -0.0364
  742POPS   C4B11402  13.429   9.935   7.260 -0.0434  0.1814 -0.0437
  743POPS   CNO11403   6.101   2.685   4.898  0.1162  0.1468  0.2113
  743POPS   PO411404   5.642   2.854   4.874  0.0766  0.0808 -0.0476
  743POPS   GL111405   5.558   2.972   5.244  0.0917 -0.0546  0.1955
  743POPS   GL211406   5.343   2.798   5.313 -0.1606  0.0890  0.0627
  743POPS   C1A11407   5.320   3.122   5.760  0.2131 -0.0892  0.1184
  743POPS   D2A11408   5.405   3.229   6.154 -0.1124 -0.1600  0.2243
  743POPS   C3A11409   5.369   3.412   6.519  0.1107 -0.0472 -0.0032
  743POPS   C4A11410   5.542   3.615   6.859  0.1717 -0.1064  0.2661
  743POPS   C1B11411   5.694   2.808   5.661  0.0719  0.4052 -0.0274
  743POPS   C2B11412   5.629   2.768   6.104  0.1730  0.1354  0.4216
  743POPS   C3B11413   5.762   3.046   6.449 -0.2035  0.1558  0.1619
  743POPS   C4B11414   5.807   3.477   6.295 -0.0521 -0.0482 -0.0139
  744POPS   CNO11415  11.054  10.404   5.905 -0.2562 -0.1719  0.1811
  744POPS   PO411416  10.705  10.571   5.743 -0.2006  0.1026 -0.0157
  744POPS   GL111417  10.429  10.555   6.119 -0.2581  0.1615  0.2260
  744POPS   GL211418  10.265  10.318   6.054 -0.1108  0.1282  0.1646
  744POPS   C1A11419  10.436  10.577   6.497 -0.2069  0.3803  0.0033
  744POPS   D2A11420  10.102  10.620   6.790 -0.0385  0.1926  0.3562
  744POPS   C3A11421  10.315  10.448   7.210  0.2099 -0.0743  0.0296
  744POPS   C4A11422  10.076  10.329   7.617  0.1043 -0.1100  0.1096
  744POPS   C1B11423  10.050   9.831   6.123  0.0978 -0.2504 -0.0818
  744POPS   C2B11424  10.244   9.591   6.525 -0.3082  0.4575 -0.1193
  744POPS   C3B11425  10.297   9.426   6.923  0.3048 -0.0416  0.2185
  744POPS   C4B11426  10.361   9.313   7.281  0.0098  0.2652  0.1523
  745POPS   CNO11427   9.629   4.942   5.531  0.1188 -0.0518 -0.0435
  745POPS   PO411428   9.528   4.711   5.261  0.1801  0.0744  0.3392
  745POPS   GL111429   9.716   4.499   5.577 -0.2523  0.2524  0.0304
  745POPS   GL211430   9.994   4.666   5.752  0.0837  0.0442 -0.1065
  745POPS   C1A11431   9.544   4.279   6.046 -0.0319 -0.0273  0.1627
  745POPS   D2A11432   9.669   4.257   6.480  0.0361  0.0574 -0.0646
  745POPS   C3A11433   9.714   4.570   6.763 -0.0855 -0.2248  0.1560
  745POPS   C4A11434   9.713   4.959   6.940  0.0472 -0.1803 -0.0034
  745POPS   C1B11435   9.878   4.629   6.196 -0.1546 -0.0083  0.0144
  745POPS   C2B11436   9.406   4.711   6.420  0.2636 -0.1047  0.1309
  745POPS   C3B11437   9.239   4.788   6.855 -0.3027 -0.0055 -0.0164
  745POPS   C4B11438   9.263   5.072   7.141 -0.1120  0.1944 -0.2676
  746POPS   CNO11439  15.274   2.682   5.237 -0.0684 -0.2844  0.1009
  746POPS   PO411440  15.581   2.688   5.651  0.2231 -0.0701  0.0125
  746POPS   GL111441  15.663   2.528   5.998  0.2587  0.1490 -0.0324
  746POPS   GL211442  15.945   2.282   6.072  0.1147  0.0139 -0.0800
  746POPS   C1A11443  15.466   2.382   6.391 -0.3692  0.0190  0.1579
  746POPS   D2A11444  15.080   2.230   6.333 -0.2695  0.0989  0.0543
  746POPS   C3A11445  14.703   2.360   6.331 -0.0196 -0.2010  0.0868
  746POPS   C4A11446  14.406   2.546   6.404  0.2257  0.1932 -0.0931
  746POPS   C1B11447  15.918   2.522   6.467  0.0096  0.0271 -0.0412
  746POPS   C2B11448  15.775   2.527   6.842 -0.3148 -0.1091 -0.0882
  746POPS   C3B11449  15.814   2.438   7.205 -0.0180  0.1007 -0.0934
  746POPS   C4B11450  15.882   2.201   7.516 -0.1541 -0.0411 -0.0690
  747POPS   CNO11451   0.146  15.090   5.126  0.1514  0.0157 -0.2553
  747POPS   PO411452  -0.324  14.938   5.277  0.0287 -0.0359 -0.2364
  747POPS   GL111453  -0.427  14.955   5.799 -0.3121 -0.0036  0.0147
  747POPS   GL211454  -0.164  14.718   6.080 -0.2964 -0.0016  0.0351
  747POPS   C1A11455  -0.627  15.011   6.251 -0.2760 -0.3056 -0.1501
  747POPS   D2A11456  -0.695  14.730   6.603  0.2838  0.0325  0.1498
  747POPS   C3A11457  -0.573  14.721   6.920  0.2981 -0.2095 -0.1159
  747POPS   C4A11458  -0.366  14.549   7.334 -0.2107 -0.3221 -0.6122
  747POPS   C1B11459  -0.206  14.673   6.467  0.2053 -0.0274  0.0665
  747POPS   C2B11460  -0.150  14.417   6.829 -0.1216 -0.1073  0.3502
  747POPS   C3B11461  -0.044  14.168   7.208 -0.1945 -0.1381  0.3093
  747POPS   C4B11462  -0.165  13.775   7.240 -0.1020 -0.2561  0.2508
  748POPS   CNO11463   7.977  13.216   5.459  0.0661 -0.0832 -0.4868
  748POPS   PO411464   7.799  13.533   5.696 -0.2357 -0.1293  0.0916
  748POPS   GL111465   7.787  13.752   6.096  0.1791  0.3990 -0.0440
  748POPS   GL211466   8.018  13.674   6.256  0.0519  0.0171 -0.2998
  748POPS   C1A11467   7.612  13.906   6.463  0.1937  0.2494 -0.0681
  748POPS   D2A11468   7.252  13.813   6.786  0.0012 -0.4571 -0.0050
  748POPS   C3A11469   7.115  14.211   6.947 -0.3739 -0.2946 -0.2606
  748POPS   C4A11470   7.127  14.356   7.343  0.2352  0.0930  0.0483
  748POPS   C1B11471   8.089  13.874   6.528  0.0825 -0.0537  0.2521
  748POPS   C2B11472   7.928  14.097   6.896 -0.4017  0.1150  0.2272
  748POPS   C3B11473   7.605  14.022   7.199 -0.0279 -0.0460 -0.1425
  748POPS   C4B11474   7.146  13.772   7.241 -0.0053 -0.1320  0.0998
  749POPS   CNO11475   7.977   2.157   4.963  0.4155  0.3640  0.0433
  749POPS   PO411476   8.123   2.444   5.317  0.0692 -0.1483 -0.1336
  749POPS   GL111477   8.016   2.544   5.637  0.2205  0.1411 -0.0780
  749POPS   GL211478   7.697   2.626   5.684 -0.1331 -0.2228  0.0776
  749POPS   C1A11479   7.924   2.270   5.995 -0.1649 -0.1685 -0.2287
  749POPS   D2A11480   8.168   2.254   6.315  0.4630  0.1245  0.0950
  749POPS   C3A11481   8.462   2.423   6.608 -0.0611  0.0654  0.0716
  749POPS   C4A11482   8.651   2.222   7.044 -0.2885 -0.1477  0.0467
  749POPS   C1B11483   7.945   3.083   5.775 -0.0105  0.0683 -0.0826
  749POPS   C2B11484   7.977   3.259   6.260 -0.1729 -0.0684  0.0031
  749POPS   C3B11485   7.935   3.231   6.713 -0.0821  0.0394 -0.1094
  749POPS   C4B11486   8.079   3.185   7.187  0.1757  0.1754  0.4131
  750POPS   CNO11487   1.459  13.823   5.663 -0.0896  0.0638  0.0160
  750POPS   PO411488   1.384  13.452   5.497  0.4479  0.0552 -0.2275
  750POPS   GL111489   1.536  13.385   5.957 -0.0416 -0.0107 -0.2544
  750POPS   GL211490   1.584  13.042   6.184 -0.0989 -0.2046  0.1009
  750POPS   C1A11491   1.744  13.494   6.350 -0.0386 -0.3741 -0.1924
  750POPS   D2A11492   1.766  13.542   6.838  0.0065  0.2305 -0.0517
  750POPS   C3A11493   1.992  13.433   7.127 -0.0740  0.0834  0.0773
  750POPS   C4A11494   2.240  13.597   7.461  0.3687  0.1995 -0.3520
  750POPS   C1B11495   1.888  12.954   6.378 -0.1890 -0.0375 -0.1932
  750POPS   C2B11496   2.002  12.918   6.881 -0.0202 -0.2016 -0.0830
  750POPS   C3B11497   2.017  12.992   7.345 -0.1226  0.0728  0.1038
  750POPS   C4B11498   2.264  12.983   7.713 -0.2745 -0.2535  0.2003
  751POPS   CNO11499  10.054   2.900   4.820 -0.2687  0.0919 -0.2051
  751POPS   PO411500   9.824   3.051   5.252  0.1921  0.0986 -0.2009
  751POPS   GL111501   9.867   2.834   5.707  0.0327  0.0539 -0.2160
  751POPS   GL211502   9.567   2.883   5.966 -0.1499  0.0327 -0.1394
  751POPS   C1A11503  10.111   2.741   6.108 -0.1842 -0.1326 -0.1694
  751POPS   D2A11504  10.280   2.948   6.517  0.0022 -0.3120  0.0523
  751POPS   C3A11505  10.610   2.772   6.643  0.2243  0.0505 -0.0792
  751POPS   C4A11506  10.999   2.586   6.805  0.1222  0.0614  0.0032
  751POPS   C1B11507   9.339   2.685   6.248 -0.2266  0.0616  0.0729
  751POPS   C2B11508   9.443   2.767   6.700 -0.0180  0.0003  0.2597
  751POPS   C3B11509   9.472   2.689   7.118 -0.1942  0.0482  0.1183
  751POPS   C4B11510   9.393   2.749   7.574 -0.2507  0.2154  0.0876
  752POPS   CNO11511   5.279   9.551   5.109  0.2878 -0.0465 -0.1917
  752POPS   PO411512   5.460   9.238   5.137  0.2529  0.0632 -0.1291
  752POPS   GL111513   5.779   9.371   5.389 -0.0080 -0.1831 -0.1154
  752POPS   GL211514   5.556   9.469   5.644  0.0069 -0.2922 -0.1347
  752POPS   C1A11515   6.000   9.572   5.718  0.1087  0.1738  0.1352
  752POPS   D2A11516   6.146   9.631   6.131  0.0244  0.1621  0.3429
  752POPS   C3A11517   6.372   9.869   6.433 -0.1208 -0.0347 -0.0589
  752POPS   C4A11518   6.405  10.081   6.809  0.1525 -0.0497 -0.4653
  752POPS   C1B11519   5.604   9.724   6.025 -0.3202  0.0834 -0.2662
  752POPS   C2B11520   5.494   9.976   6.397 -0.0272 -0.0107 -0.4235
  752POPS   C3B11521   5.513   9.878   6.820 -0.0427 -0.1719 -0.0842
  752POPS   C4B11522   5.627   9.459   7.030 -0.0372  0.1530  0.3973
  753POPS   CNO11523  17.532  10.366   5.369  0.2097  0.1385 -0.1723
  753POPS   PO411524  17.403  10.705   5.712 -0.1876 -0.2875  0.0561
  753POPS   GL111525  17.430  10.568   6.075  0.2637  0.2675 -0.1584
  753POPS   GL211526  17.428  10.934   6.293  0.0887  0.1783  0.1227
  753POPS   C1A11527  17.612  10.302   6.398  0.3580  0.3093  0.1284
  753POPS   D2A11528  17.572  10.245   6.864 -0.1206 -0.0632  0.0804
  753POPS   C3A11529  17.904  10.289   7.256  0.1128  0.2173 -0.2304
  753POPS   C4A11530  18.334  10.189   7.188 -0.1920 -0.0915  0.0575
  753POPS   C1B11531  17.684  10.735   6.628  0.1646 -0.0097  0.0972
  753POPS   C2B11532  17.637  10.719   7.082  0.0111  0.2423 -0.1826
  753POPS   C3B11533  17.219  10.775   7.241 -0.0872 -0.1512 -0.1193
  753POPS   C4B11534  17.114  10.956   7.672  0.0059 -0.2441  0.1533
  754POPS   CNO11535  13.183   2.960   5.992  0.0941 -0.0628 -0.1947
  754POPS   PO411536  12.971   3.407   5.824 -0.1505  0.2294 -0.1877
  754POPS   GL111537  12.944   3.292   6.330  0.2912 -0.2610  0.1522
  754POPS   GL211538  13.018   2.982   6.478  0.3895  0.0302  0.1148
  754POPS   C1A11539  12.665   3.287   6.687 -0.0772  0.0624  0.0094
  754POPS   D2A11540  12.562   3.603   6.972  0.2301  0.1048  0.0580
  754POPS   C3A11541  12.128   3.483   7.034  0.0090 -0.1061  0.2781
  754POPS   C4A11542  11.904   3.377   7.398 -0.2732 -0.1062  0.1031
  754POPS   C1B11543  13.097   3.135   6.884  0.1964 -0.1486  0.1436
  754POPS   C2B11544  13.385   3.003   7.260  0.0759 -0.1001 -0.1218
  754POPS   C3B11545  13.138   2.601   7.432 -0.0003  0.2062  0.0903
  754POPS   C4B11546  12.757   2.492   7.658  0.1711 -0.0506  0.0193
  755POPS   CNO11547   7.145   6.502   5.508 -0.1875 -0.1732  0.1848
  755POPS   PO411548   6.851   6.259   5.457  0.0575 -0.3014 -0.1351
  755POPS   GL111549   6.947   6.151   5.960 -0.0219  0.1693  0.1354
  755POPS   GL211550   6.856   6.473   5.972  0.0066 -0.0999  0.0222
  755POPS   C1A11551   6.773   6.182   6.436  0.1599 -0.1754  0.2859
  755POPS   D2A11552   6.761   6.142   6.858 -0.1403 -0.3402 -0.0698
  755POPS   C3A11553   6.722   6.414   7.190 -0.0952  0.0116  0.2870
  755POPS   C4A11554   6.453   6.604   7.369  0.2163 -0.1398 -0.0749
  755POPS   C1B11555   7.094   6.626   6.410  0.0470  0.0178  0.2279
  755POPS   C2B11556   6.902   6.719   6.792 -0.0613  0.1182  0.1096
  755POPS   C3B11557   6.880   6.944   7.157 -0.0412 -0.1853 -0.1447
  755POPS   C4B11558   6.932   6.872   7.626 -0.1759  0.1726  0.4266
  756POPS   CNO11559  14.823   9.965   5.491  0.1389  0.0046  0.0210
  756POPS   PO411560  14.513  10.306   5.665  0.3354  0.1746 -0.2249
  756POPS   GL111561  14.488  10.380   6.120 -0.0361  0.1727  0.0452
  756POPS   GL211562  14.442  10.870   6.148  0.0045  0.0153 -0.1384
  756POPS   C1A11563  14.530  10.491   6.528 -0.1063  0.0601 -0.2185
  756POPS   D2A11564  14.588  10.473   6.947  0.1232 -0.0877 -0.0800
  756POPS   C3A11565  14.235  10.620   7.091  0.2508 -0.1348  0.0526
  756POPS   C4A11566  13.897  10.861   7.266  0.0034 -0.4020  0.1916
  756POPS   C1B11567  14.255  11.021   6.481  0.0275  0.0836  0.3693
  756POPS   C2B11568  14.427  11.009   6.831  0.2237 -0.1850 -0.1798
  756POPS   C3B11569  14.480  10.966   7.345 -0.2299 -0.1749  0.0950
  756POPS   C4B11570  14.531  10.919   7.829  0.0263 -0.1337 -0.2853
  757POPS   CNO11571  14.202  16.182   6.105 -0.1310  0.0049 -0.1262
  757POPS   PO411572  14.064  16.590   6.090  0.0214  0.1497  0.0151
  757POPS   GL111573  14.233  16.797   6.463  0.0043 -0.3889 -0.3486
  757POPS   GL211574  14.436  17.031   6.505 -0.2908  0.1206 -0.2010
  757POPS   C1A11575  14.278  16.796   6.953  0.0955 -0.0296  0.0605
  757POPS   D2A11576  14.438  16.721   7.355 -0.2119 -0.0550  0.2182
  757POPS   C3A11577  14.189  16.818   7.600 -0.0219 -0.0759  0.3684
  757POPS   C4A11578  13.935  16.749   7.839  0.0577 -0.1365  0.2443
  757POPS   C1B11579  14.632  17.176   6.829  0.1970 -0.3500  0.1166
  757POPS   C2B11580  14.746  17.180   7.294  0.2918 -0.1082 -0.1337
  757POPS   C3B11581  15.140  17.151   7.480 -0.2007 -0.0076  0.0601
  757POPS   C4B11582  15.345  17.085   7.817  0.0424  0.1797  0.0537
  758POPS   CNO11583   9.471  12.405   6.016  0.3065  0.0116  0.1321
  758POPS   PO411584   9.666  12.812   6.031  0.0104 -0.1079 -0.2093
  758POPS   GL111585   9.867  12.765   6.355  0.1647 -0.1040 -0.0913
  758POPS   GL211586   9.717  13.029   6.518 -0.1961 -0.0457  0.1121
  758POPS   C1A11587  10.098  12.580   6.738  0.0556  0.0583 -0.1287
  758POPS   D2A11588  10.155  12.854   7.203 -0.3436 -0.2066  0.1031
  758POPS   C3A11589  10.186  12.893   7.656 -0.0513  0.3631 -0.0292
  758POPS   C4A11590  10.218  12.877   8.141  0.0564  0.1581  0.1669
  758POPS   C1B11591   9.928  13.108   6.859  0.0275 -0.2331 -0.0793
  758POPS   C2B11592   9.809  13.408   7.238  0.2519 -0.2862  0.0824
  758POPS   C3B11593   9.676  13.475   7.695  0.0341  0.0295 -0.1771
  758POPS   C4B11594   9.345  13.561   7.865 -0.1315 -0.2032 -0.1233
  759POPS   CNO11595   0.364   1.576   5.180 -0.0202  0.0385  0.2248
  759POPS   PO411596   0.464   1.405   5.540 -0.0483 -0.1826  0.2102
  759POPS   GL111597   0.485   1.268   5.814  0.0930 -0.1039 -0.0366
  759POPS   GL211598   0.735   1.198   5.947 -0.2257 -0.0226  0.0931
  759POPS   C1A11599   0.190   1.282   6.272 -0.1729 -0.0685  0.1072
  759POPS   D2A11600   0.062   1.152   6.766  0.1460 -0.0746  0.0028
  759POPS   C3A11601  -0.202   1.165   7.111 -0.2505 -0.0729  0.0232
  759POPS   C4A11602  -0.374   1.086   7.561 -0.1227 -0.2725  0.3885
  759POPS   C1B11603   0.696   1.224   6.441  0.0655  0.0472  0.0920
  759POPS   C2B11604   0.764   1.380   6.808  0.0448 -0.0504 -0.2165
  759POPS   C3B11605   0.838   1.492   7.252  0.2759  0.0319 -0.3050
  759POPS   C4B11606   1.038   1.549   7.738  0.1247  0.0173  0.0868
  760POPS   CNO11607  12.066   0.985   5.829  0.0728 -0.3481 -0.2603
  760POPS   PO411608  11.689   1.188   5.862 -0.0890 -0.1316  0.0283
  760POPS   GL111609  11.591   1.216   6.293 -0.1616  0.1543  0.1175
  760POPS   GL211610  11.402   1.424   6.288 -0.1237 -0.2175 -0.1391
  760POPS   C1A11611  11.403   1.083   6.638 -0.0573  0.0591 -0.0652
  760POPS   D2A11612  11.048   1.051   6.935  0.0969  0.2399  0.3647
  760POPS   C3A11613  11.075   1.278   7.413 -0.3278  0.2693  0.2481
  760POPS   C4A11614  11.032   1.566   7.668 -0.1534  0.0447 -0.0554
  760POPS   C1B11615  11.353   1.903   6.496  0.4135  0.0935  0.1039
  760POPS   C2B11616  11.356   2.203   6.876 -0.1852  0.0068 -0.2409
  760POPS   C3B11617  11.242   2.479   7.179  0.0816  0.1224 -0.0298
  760POPS   C4B11618  11.071   2.623   7.504 -0.1486  0.0717  0.2656
  761POPS   CNO11619  17.103   4.169   5.181  0.1634 -0.3501 -0.0487
  761POPS   PO411620  16.904   4.590   5.456 -0.0185 -0.0367  0.2085
  761POPS   GL111621  16.835   4.310   5.816 -0.3161  0.0950  0.2542
  761POPS   GL211622  17.151   4.201   5.751 -0.1060 -0.2198 -0.3406
  761POPS   C1A11623  16.957   4.102   6.195  0.0188 -0.0003 -0.0854
  761POPS   D2A11624  16.904   4.126   6.660 -0.0322  0.0144  0.1914
  761POPS   C3A11625  16.608   4.296   6.960 -0.2123 -0.0294  0.0762
  761POPS   C4A11626  16.580   4.443   7.303  0.0706 -0.1619  0.0854
  761POPS   C1B11627  17.444   4.333   6.105  0.1663  0.1725 -0.0112
  761POPS   C2B11628  17.407   4.084   6.452 -0.0943 -0.0232 -0.0161
  761POPS   C3B11629  17.658   3.667   6.480 -0.0180  0.1745  0.1929
  761POPS   C4B11630  17.677   3.584   6.894 -0.0443  0.2276 -0.0502
  762POPS   CNO11631  12.055  18.413   6.030  0.0735  0.1301 -0.1361
  762POPS   PO411632  11.681  18.604   5.744  0.2051  0.0782 -0.2741
  762POPS   GL111633  11.549  18.476   6.212 -0.2544  0.1571  0.1656
  762POPS   GL211634  11.735  18.325   6.397 -0.0788  0.1035 -0.1134
  762POPS   C1A11635  11.390  18.622   6.676 -0.1138  0.1613 -0.1172
  762POPS   D2A11636  11.185  18.717   7.083 -0.1804  0.0204  0.2952
  762POPS   C3A11637  10.967  18.474   7.366 -0.0232  0.1512  0.2293
  762POPS   C4A11638  11.155  18.451   7.720  0.0913 -0.1266  0.2411
  762POPS   C1B11639  11.915  18.017   6.629  0.1042 -0.0773  0.0396
  762POPS   C2B11640  11.998  18.039   7.069  0.0684 -0.1984  0.0417
  762POPS   C3B11641  11.833  17.914   7.432 -0.4382  0.1390 -0.0398
  762POPS   C4B11642  11.849  17.979   7.831 -0.3267 -0.1935  0.2711
  763POPS   CNO11643  10.906   8.675   5.395  0.0260  0.2095 -0.1513
  763POPS   PO411644  10.965   8.413   5.708  0.0212  0.2937  0.0168
  763POPS   GL111645  10.936   8.525   6.094  0.2966 -0.1677  0.1597
  763POPS   GL211646  10.635   8.459   6.367 -0.0188  0.1471 -0.0762
  763POPS   C1A11647  11.043   8.416   6.576  0.2343 -0.0847  0.0902
  763POPS   D2A11648  11.158   8.368   6.900 -0.1898 -0.0643 -0.1568
  763POPS   C3A11649  11.068   8.352   7.244  0.0625  0.0964  0.0394
  763POPS   C4A11650  11.095   8.610   7.517 -0.1190  0.0549 -0.2012
  763POPS   C1B11651  10.409   8.577   6.750 -0.0263 -0.2362  0.0202
  763POPS   C2B11652  10.295   8.918   7.001  0.3734  0.0336  0.0491
  763POPS   C3B11653   9.815   9.113   7.119 -0.1327  0.2360 -0.1184
  763POPS   C4B11654   9.530   9.193   7.315  0.3373  0.1986 -0.0382
  764POPS   CNO11655  15.736  18.216   6.206 -0.0614 -0.0402 -0.2511
  764POPS   PO411656  15.495  18.033   5.884 -0.1724 -0.3198 -0.0261
  764POPS   GL111657  15.161  18.085   6.210  0.0023 -0.2300 -0.1089
  764POPS   GL211658  15.035  17.865   6.491 -0.0693  0.0262 -0.2334
  764POPS   C1A11659  14.838  18.279   6.294 -0.0572  0.1145  0.1448
  764POPS   D2A11660  14.475  18.083   6.302 -0.1446  0.3162 -0.0183
  764POPS   C3A11661  14.148  18.038   6.117 -0.0300 -0.1482 -0.0294
  764POPS   C4A11662  13.878  17.782   6.430 -0.1182 -0.1632 -0.4204
  764POPS   C1B11663  14.936  18.127   6.828  0.1011 -0.0090 -0.2238
  764POPS   C2B11664  15.210  18.282   7.223  0.0745  0.0070  0.2321
  764POPS   C3B11665  15.367  18.511   7.493 -0.1466  0.0725  0.2958
  764POPS   C4B11666  15.302  18.909   7.761 -0.1617 -0.3052 -0.0204
  765POPS   CNO11667  15.735   9.810   5.531 -0.1732  0.1986 -0.1087
  765POPS   PO411668  15.641   9.445   5.765 -0.2249 -0.3384  0.0454
  765POPS   GL111669  15.384   9.406   6.064 -0.0903 -0.2883  0.0735
  765POPS   GL211670  15.012   9.453   6.121 -0.1851  0.1904 -0.1214
  765POPS   C1A11671  15.408   9.233   6.463  0.0232 -0.2481  0.0055
  765POPS   D2A11672  15.786   9.090   6.702  0.1599  0.0491 -0.0931
  765POPS   C3A11673  16.049   9.085   7.014 -0.0285 -0.3160 -0.2090
  765POPS   C4A11674  16.323   9.056   7.371 -0.2001  0.0835  0.1302
  765POPS   C1B11675  14.873   9.373   6.525  0.0813  0.0694  0.2806
  765POPS   C2B11676  14.820   9.328   6.914 -0.0635 -0.0789  0.0098
  765POPS   C3B11677  14.791   9.550   7.287 -0.0737 -0.2909 -0.0304
  765POPS   C4B11678  14.838   9.754   7.688  0.0572 -0.0010 -0.1544
  766POPS   CNO11679   1.222   4.442   4.885 -0.0931 -0.0462  0.1162
  766POPS   PO411680   1.504   4.706   5.115 -0.0245  0.3616  0.2911
  766POPS   GL111681   1.469   4.509   5.495  0.0352  0.0993  0.0729
  766POPS   GL211682   1.225   4.427   5.482 -0.4226 -0.3213  0.0567
  766POPS   C1A11683   1.450   4.596   5.972 -0.1070 -0.0362  0.1677
  766POPS   D2A11684   1.552   4.664   6.419  0.1139  0.1213  0.2870
  766POPS   C3A11685   1.494   4.590   6.866  0.1065  0.1967  0.0321
  766POPS   C4A11686   1.621   4.341   7.191 -0.1208 -0.2433  0.0057
  766POPS   C1B11687   1.008   4.168   5.716 -0.0325 -0.2509 -0.3362
  766POPS   C2B11688   0.872   3.939   5.948  0.1565  0.0615 -0.2452
  766POPS   C3B11689   0.816   4.117   6.329  0.1455 -0.1300 -0.2595
  766POPS   C4B11690   0.661   4.177   6.726 -0.0580 -0.0361  0.0267
  767POPS   CNO11691   2.708   5.472   5.435  0.2499  0.0473  0.4170
  767POPS   PO411692   2.466   5.803   5.231  0.0324  0.1148 -0.0882
  767POPS   GL111693   2.518   5.875   5.671  0.3594 -0.1028 -0.1406
  767POPS   GL211694   2.315   6.037   5.878 -0.0907  0.0803 -0.0694
  767POPS   C1A11695   2.756   5.882   6.091 -0.1758  0.2046 -0.1303
  767POPS   D2A11696   3.089   5.909   6.466 -0.1577  0.1300  0.2594
  767POPS   C3A11697   3.314   6.075   6.847  0.0751 -0.0385 -0.0255
  767POPS   C4A11698   3.343   6.404   7.158 -0.0630 -0.1149  0.2259
  767POPS   C1B11699   2.292   6.038   6.397  0.2610 -0.1104  0.1582
  767POPS   C2B11700   2.399   6.052   6.755 -0.3330 -0.1311  0.0587
  767POPS   C3B11701   2.383   5.943   7.174  0.1384  0.2290 -0.1388
  767POPS   C4B11702   2.596   5.665   7.307  0.0413 -0.3133 -0.0483
  768POPS   CNO11703  16.115  10.891   5.658  0.6760 -0.3592  0.0017
  768POPS   PO411704  16.345  10.618   5.766  0.0994 -0.0715  0.1720
  768POPS   GL111705  16.438  10.625   6.130 -0.0546  0.1768 -0.1089
  768POPS   GL211706  16.591  10.353   6.145  0.1422  0.0323 -0.2074
  768POPS   C1A11707  16.626  10.716   6.580  0.1222  0.0233 -0.0932
  768POPS   D2A11708  16.731  11.039   6.925 -0.0195 -0.0322  0.2307
  768POPS   C3A11709  16.941  11.198   7.215 -0.2519  0.1795  0.1615
  768POPS   C4A11710  17.249  11.342   7.389  0.0115  0.2459  0.1485
  768POPS   C1B11711  16.641  10.207   6.480 -0.2912 -0.0066  0.0333
  768POPS   C2B11712  16.807  10.341   6.905 -0.0074 -0.0165  0.0802
  768POPS   C3B11713  16.730  10.583   7.205 -0.2407  0.1535 -0.0352
  768POPS   C4B11714  16.631  10.806   7.629 -0.0931 -0.0942  0.1347
  769POPS   CNO11715   2.351   7.692   5.157  0.1541 -0.0836 -0.0317
  769POPS   PO411716   2.274   8.110   5.208 -0.1424 -0.0812  0.2519
  769POPS   GL111717   2.161   8.087   5.671  0.2304 -0.0076 -0.4961
  769POPS   GL211718   2.170   8.408   5.848  0.2580  0.0106  0.0320
  769POPS   C1A11719   2.174   7.766   6.023  0.1223 -0.0552 -0.0706
  769POPS   D2A11720   2.197   7.377   6.298 -0.1946 -0.2226 -0.0179
  769POPS   C3A11721   2.269   7.407   6.670  0.1045  0.1240 -0.1592
  769POPS   C4A11722   2.185   7.068   6.982  0.1958 -0.0274 -0.0494
  769POPS   C1B11723   1.990   8.329   6.300  0.0374  0.1190  0.3033
  769POPS   C2B11724   2.129   8.648   6.559  0.1550  0.1608 -0.3383
  769POPS   C3B11725   2.265   8.958   6.837  0.1407 -0.1883  0.0503
  769POPS   C4B11726   2.197   9.080   7.219  0.0392 -0.0367 -0.1454
  770POPS   CNO11727  18.624   2.364   5.256  0.0289  0.1668 -0.5190
  770POPS   PO411728  18.846   2.007   5.155 -0.2097 -0.1022  0.1591
  770POPS   GL111729  18.847   2.064   5.650  0.1828 -0.0813  0.1479
  770POPS   GL211730  19.019   2.329   5.721  0.0665 -0.0137 -0.0494
  770POPS   C1A11731  18.600   1.978   6.069 -0.4720  0.0508  0.3358
  770POPS   D2A11732  18.280   1.846   6.272  0.0588  0.0551  0.0651
  770POPS   C3A11733  18.305   1.786   6.700 -0.0241 -0.0366  0.1490
  770POPS   C4A11734  18.427   2.118   6.974  0.0932 -0.2946 -0.0588
  770POPS   C1B11735  19.007   2.620   5.994 -0.1353  0.0516  0.0052
  770POPS   C2B11736  18.787   2.645   6.367  0.3660 -0.1577 -0.1612
  770POPS   C3B11737  18.608   2.724   6.672 -0.1111  0.2380 -0.0169
  770POPS   C4B11738  18.507   2.953   7.025 -0.0634  0.1417  0.0718
  771POPS   CNO11739   6.249   3.719   4.928 -0.0090 -0.1659 -0.1517
  771POPS   PO411740   5.889   3.769   4.878  0.1595  0.0804  0.2136
  771POPS   GL111741   5.737   3.579   5.255 -0.1078 -0.1288  0.1927
  771POPS   GL211742   5.384   3.547   5.273 -0.2510 -0.0202 -0.0632
  771POPS   C1A11743   5.879   3.274   5.478 -0.1646 -0.0630 -0.0672
  771POPS   D2A11744   5.846   3.186   5.896 -0.1682  0.1360  0.2069
  771POPS   C3A11745   6.179   3.210   6.270 -0.0847  0.0265  0.0805
  771POPS   C4A11746   6.214   2.885   6.611 -0.1169 -0.4662 -0.1075
  771POPS   C1B11747   5.098   3.623   5.683 -0.1266 -0.0731  0.1183
  771POPS   C2B11748   5.083   3.598   6.093  0.0937 -0.0640  0.1630
  771POPS   C3B11749   5.024   3.832   6.441 -0.0109  0.2403  0.1066
  771POPS   C4B11750   4.702   3.938   6.655 -0.2552 -0.3180 -0.2109
  772POPS   CNO11751  15.914   0.919   5.298 -0.1729 -0.0153  0.0356
  772POPS   PO411752  16.122   0.853   5.596 -0.5509 -0.1865 -0.0340
  772POPS   GL111753  16.072   1.058   5.952  0.1526 -0.1856 -0.4094
  772POPS   GL211754  16.268   1.289   6.080 -0.0058 -0.1071 -0.0371
  772POPS   C1A11755  16.225   0.915   6.351  0.1383  0.0164 -0.4686
  772POPS   D2A11756  16.221   0.557   6.754  0.2694 -0.0856 -0.1336
  772POPS   C3A11757  15.758   0.342   6.837  0.3866 -0.0649 -0.1801
  772POPS   C4A11758  15.405   0.137   6.608 -0.0301  0.0023  0.0826
  772POPS   C1B11759  16.619   1.357   6.275 -0.0182 -0.0284  0.0590
  772POPS   C2B11760  16.885   1.514   6.607 -0.0342  0.2810  0.0008
  772POPS   C3B11761  17.059   1.672   6.965  0.0550 -0.0173  0.2457
  772POPS   C4B11762  17.441   1.663   7.246  0.0836 -0.0875 -0.0167
  773POPS   CNO11763   7.230   0.024   5.774 -0.0193 -0.0960  0.0199
  773POPS   PO411764   6.968  -0.253   5.803 -0.1580  0.1975  0.2358
  773POPS   GL111765   6.606  -0.048   5.935  0.0673  0.1168 -0.0709
  773POPS   GL211766   6.588  -0.307   6.160 -0.1217  0.1450 -0.1777
  773POPS   C1A11767   6.424   0.320   6.157  0.0813 -0.0267 -0.0153
  773POPS   D2A11768   6.163   0.392   6.592  0.1010 -0.0375 -0.2609
  773POPS   C3A11769   6.019   0.431   6.956  0.1491 -0.0595 -0.0409
  773POPS   C4A11770   6.031   0.755   7.238  0.2020 -0.0502  0.1133
  773POPS   C1B11771   6.334  -0.134   6.486  0.0684 -0.0090  0.1502
  773POPS   C2B11772   6.280  -0.064   6.933  0.2581 -0.5639 -0.0308
  773POPS   C3B11773   6.292   0.190   7.318  0.0577 -0.1428  0.0731
  773POPS   C4B11774   6.156   0.479   7.674  0.2721 -0.1526  0.0234
  774POPS   CNO11775   4.532   1.566   5.226  0.1785  0.2262 -0.0514
  774POPS   PO411776   4.228   1.900   5.217  0.0783  0.2661 -0.3240
  774POPS   GL111777   4.286   1.783   5.705 -0.0286  0.0362  0.3239
  774POPS   GL211778   4.083   1.586   5.862  0.1423  0.1837  0.0962
  774POPS   C1A11779   4.493   1.911   6.103  0.2697  0.1422  0.0344
  774POPS   D2A11780   4.323   1.684   6.533 -0.1444 -0.0332 -0.0929
  774POPS   C3A11781   3.989   1.792   6.715 -0.0757  0.1352  0.1558
  774POPS   C4A11782   3.997   2.205   7.006 -0.0446  0.1685  0.2289
  774POPS   C1B11783   4.423   1.367   6.072  0.2174 -0.2158 -0.0851
  774POPS   C2B11784   4.617   1.284   6.423  0.0752 -0.0028 -0.2563
  774POPS   C3B11785   4.571   1.415   6.901  0.0757  0.1328  0.2006
  774POPS   C4B11786   4.278   1.640   7.069 -0.1980  0.4513 -0.1112
  775POPS   CNO11787   8.348  15.573   5.599  0.0140 -0.2076  0.1585
  775POPS   PO411788   7.953  15.561   5.815  0.1426 -0.3895  0.0506
  775POPS   GL111789   7.914  15.518   6.253 -0.0512  0.0096  0.1281
  775POPS   GL211790   7.673  15.748   6.355 -0.0527 -0.0527 -0.0698
  775POPS   C1A11791   7.645  15.351   6.655  0.1106  0.3462 -0.0719
  775POPS   D2A11792   7.553  15.503   7.087 -0.1043 -0.1638  0.0126
  775POPS   C3A11793   7.526  15.411   7.511  0.0355  0.1141  0.2392
  775POPS   C4A11794   7.660  15.546   7.965  0.2554  0.1624  0.3083
  775POPS   C1B11795   7.824  15.845   6.762 -0.3516  0.1506 -0.0858
  775POPS   C2B11796   8.112  15.920   6.951 -0.0710  0.2474 -0.3337
  775POPS   C3B11797   8.342  15.716   7.236  0.0306 -0.2103 -0.3090
  775POPS   C4B11798   8.611  15.486   7.529  0.0496  0.0230  0.2311
  776POPS   CNO11799   3.343  10.380   4.871  0.3166  0.1574  0.1522
  776POPS   PO411800   3.285  10.793   5.156 -0.0558  0.1152 -0.0913
  776POPS   GL111801   3.148  10.697   5.560 -0.3362  0.0614 -0.0479
  776POPS   GL211802   3.041  11.002   5.576 -0.2918 -0.2065  0.0396
  776POPS   C1A11803   3.095  10.268   5.810  0.1996 -0.1729  0.1223
  776POPS   D2A11804   3.012  10.127   6.195 -0.1505  0.1174 -0.0150
  776POPS   C3A11805   3.352  10.050   6.440 -0.0204  0.1507  0.1716
  776POPS   C4A11806   3.536  10.328   6.687 -0.0874 -0.0749  0.0313
  776POPS   C1B11807   2.845  11.128   5.965 -0.1684  0.2436  0.1290
  776POPS   C2B11808   3.000  11.134   6.374 -0.0495 -0.0122 -0.1744
  776POPS   C3B11809   2.882  10.938   6.717  0.3648  0.0355 -0.1322
  776POPS   C4B11810   3.021  10.709   7.069 -0.1904  0.3489  0.0047
  777POPS   CNO11811   7.094  10.920   5.205  0.1723  0.0478  0.1163
  777POPS   PO411812   6.804  10.670   5.514 -0.0567 -0.1956 -0.0221
  777POPS   GL111813   6.771  10.671   5.857 -0.0816  0.1386 -0.1419
  777POPS   GL211814   6.657  10.417   5.965 -0.0419 -0.2048 -0.0622
  777POPS   C1A11815   7.133  10.538   6.128 -0.1306  0.0828 -0.2036
  777POPS   D2A11816   7.526  10.322   6.301 -0.2938  0.1454 -0.3492
  777POPS   C3A11817   7.335   9.914   6.333 -0.0861 -0.2160 -0.1582
  777POPS   C4A11818   7.185   9.495   6.274  0.0417  0.1318  0.0868
  777POPS   C1B11819   6.476  10.409   6.383  0.1423  0.5627  0.1441
  777POPS   C2B11820   6.127  10.467   6.637  0.2019  0.0146 -0.0807
  777POPS   C3B11821   5.559  10.410   6.725  0.0968 -0.0433  0.1585
  777POPS   C4B11822   5.185  10.408   6.809  0.1849  0.1013  0.0229
  778POPS   CNO11823  14.751  16.803   5.733 -0.2892 -0.1272  0.6062
  778POPS   PO411824  14.874  16.994   6.138 -0.2409 -0.2093  0.2324
  778POPS   GL111825  15.111  16.904   6.524 -0.0443 -0.2584 -0.1137
  778POPS   GL211826  15.361  16.734   6.510 -0.0286 -0.2912 -0.1065
  778POPS   C1A11827  15.099  17.060   6.918  0.1916 -0.0812 -0.3146
  778POPS   D2A11828  15.366  17.406   7.084 -0.0035 -0.4143  0.0740
  778POPS   C3A11829  15.435  17.556   7.499 -0.1722  0.0801  0.1201
  778POPS   C4A11830  15.566  17.580   7.848  0.1369  0.0594 -0.0910
  778POPS   C1B11831  15.512  16.443   6.725  0.1162  0.0679 -0.1077
  778POPS   C2B11832  15.449  16.443   7.126  0.2733  0.0208 -0.1816
  778POPS   C3B11833  15.410  16.298   7.504  0.1473  0.0701 -0.2052
  778POPS   C4B11834  15.534  16.166   7.926  0.0406  0.1679  0.0928
  779POPS   CNO11835   1.995   3.933   4.646  0.0233  0.2298 -0.1304
  779POPS   PO411836   1.950   3.776   5.043 -0.2826  0.1590  0.0050
  779POPS   GL111837   1.891   3.975   5.417 -0.0594  0.0027 -0.1382
  779POPS   GL211838   2.124   3.932   5.506 -0.4979 -0.0158 -0.1972
  779POPS   C1A11839   1.915   4.312   5.806  0.1025  0.0648  0.1182
  779POPS   D2A11840   1.901   4.460   6.139  0.2041 -0.1954  0.1583
  779POPS   C3A11841   2.221   4.704   6.316  0.2618 -0.2650  0.1137
  779POPS   C4A11842   2.352   5.107   6.430  0.1713 -0.2289  0.1580
  779POPS   C1B11843   1.994   3.857   5.895  0.2138  0.0756  0.2793
  779POPS   C2B11844   1.932   3.983   6.300 -0.3369  0.2355 -0.1292
  779POPS   C3B11845   1.845   4.339   6.620 -0.4716 -0.2622 -0.0229
  779POPS   C4B11846   2.024   4.758   6.781 -0.0505  0.2055  0.3278
  780POPS   CNO11847  12.532  11.584   5.858  0.2676 -0.2442 -0.0341
  780POPS   PO411848  12.444  12.034   6.100 -0.3214 -0.2899 -0.2313
  780POPS   GL111849  12.422  11.965   6.481 -0.0097  0.1280 -0.5115
  780POPS   GL211850  12.156  11.748   6.479  0.2448 -0.0333  0.0127
  780POPS   C1A11851  12.232  11.768   6.961 -0.0482  0.1282 -0.3819
  780POPS   D2A11852  12.116  11.351   7.099  0.2205 -0.1398 -0.1689
  780POPS   C3A11853  12.181  11.312   7.525  0.2820 -0.1393 -0.0041
  780POPS   C4A11854  12.199  11.415   7.937  0.1120 -0.0555 -0.0221
  780POPS   C1B11855  12.216  11.310   6.603 -0.3045  0.1536 -0.1579
  780POPS   C2B11856  12.514  11.016   6.885  0.1821 -0.2197 -0.3247
  780POPS   C3B11857  12.545  10.998   7.351  0.0547  0.0354 -0.1034
  780POPS   C4B11858  12.583  10.952   7.824 -0.0234  0.1632  0.0016
  781POPS   CNO11859   8.491   1.078   5.400 -0.0749  0.1453  0.1322
  781POPS   PO411860   8.300   1.391   5.566 -0.1047  0.2717 -0.1875
  781POPS   GL111861   8.181   1.571   5.972 -0.2146  0.0064  0.1026
  781POPS   GL211862   7.979   1.308   6.059  0.3442 -0.1435 -0.4207
  781POPS   C1A11863   8.100   1.752   6.316  0.2591 -0.1515  0.1874
  781POPS   D2A11864   7.928   1.967   6.636  0.1068  0.1130 -0.0351
  781POPS   C3A11865   8.106   2.188   6.902  0.2394  0.0229 -0.1475
  781POPS   C4A11866   8.290   2.158   7.358 -0.1601 -0.0676 -0.1159
  781POPS   C1B11867   7.762   1.481   6.529 -0.1790  0.1034  0.3059
  781POPS   C2B11868   7.585   1.644   6.932 -0.0241 -0.1157 -0.2440
  781POPS   C3B11869   7.602   2.026   7.069 -0.0888  0.0563  0.0128
  781POPS   C4B11870   7.697   2.402   7.263 -0.2109  0.1112 -0.1474
  782POPS   CNO11871   5.361  13.609   5.283  0.0107  0.1348 -0.0232
  782POPS   PO411872   5.447  13.924   5.552  0.0894  0.0284 -0.1408
  782POPS   GL111873   5.509  13.633   5.887  0.1399  0.0342 -0.0986
  782POPS   GL211874   5.219  13.527   6.076  0.1478 -0.2425  0.1351
  782POPS   C1A11875   5.604  13.308   6.307  0.0755  0.0314  0.2364
  782POPS   D2A11876   5.630  13.340   6.721 -0.4155 -0.1329 -0.1160
  782POPS   C3A11877   5.722  13.720   6.920 -0.4480 -0.2091  0.1189
  782POPS   C4A11878   5.489  14.093   6.728 -0.1138 -0.3617 -0.0241
  782POPS   C1B11879   5.244  13.717   6.436 -0.1575  0.0192 -0.0919
  782POPS   C2B11880   5.196  13.672   6.892 -0.2101 -0.0266 -0.0039
  782POPS   C3B11881   5.343  13.899   7.217 -0.1980  0.1509  0.0358
  782POPS   C4B11882   5.370  13.736   7.666  0.1067 -0.2531 -0.0778
  783POPS   CNO11883   2.651   1.088   5.141 -0.3493  0.1377  0.1788
  783POPS   PO411884   2.307   1.286   5.192  0.0563 -0.1658 -0.0862
  783POPS   GL111885   2.456   1.182   5.585  0.0249  0.1271  0.1985
  783POPS   GL211886   2.327   0.853   5.592 -0.2347 -0.2663  0.1058
  783POPS   C1A11887   2.602   1.419   6.011 -0.0911  0.3410  0.3844
  783POPS   D2A11888   2.605   1.341   6.445 -0.1574  0.0046  0.0860
  783POPS   C3A11889   2.859   1.313   6.788  0.0624 -0.2681  0.0629
  783POPS   C4A11890   3.241   1.127   7.120 -0.1057  0.1257  0.1715
  783POPS   C1B11891   2.588   0.700   6.013 -0.2073  0.2030  0.0976
  783POPS   C2B11892   2.639   0.761   6.452  0.0435  0.0502 -0.2145
  783POPS   C3B11893   2.746   0.834   6.863  0.2531 -0.1055 -0.0839
  783POPS   C4B11894   2.638   1.111   7.248 -0.1587  0.0855 -0.2544
  784POPS   CNO11895   5.107  10.811   4.651 -0.0355 -0.0946 -0.0387
  784POPS   PO411896   4.958  10.693   5.109  0.0350  0.1376 -0.0424
  784POPS   GL111897   4.766  10.644   5.490 -0.1308 -0.3528  0.3100
  784POPS   GL211898   4.833  10.869   5.620 -0.0715 -0.1131  0.0454
  784POPS   C1A11899   4.647  10.431   5.829  0.3582  0.0308  0.0046
  784POPS   D2A11900   4.844  10.235   6.164  0.0933 -0.0259  0.0493
  784POPS   C3A11901   5.186  10.355   6.271 -0.1183  0.2706 -0.0678
  784POPS   C4A11902   5.528  10.515   6.232  0.3492 -0.2300  0.0172
  784POPS   C1B11903   4.778  11.245   5.932 -0.0825 -0.1628 -0.0684
  784POPS   C2B11904   4.962  11.499   6.162  0.0559 -0.0943  0.0025
  784POPS   C3B11905   4.949  11.594   6.620  0.1087  0.1769 -0.1085
  784POPS   C4B11906   4.833  11.409   6.948  0.0399 -0.1675 -0.0506
  785POPS   CNO11907   4.575   0.513   5.177 -0.0386  0.2727  0.0286
  785POPS   PO411908   4.878   0.749   5.474  0.0404 -0.0112  0.0619
  785POPS   GL111909   4.780   0.890   5.865 -0.1477 -0.4402 -0.0555
  785POPS   GL211910   4.559   0.795   6.040  0.2663  0.0768  0.1935
  785POPS   C1A11911   5.009   1.012   6.271  0.0437  0.1347 -0.1330
  785POPS   D2A11912   5.216   0.890   6.597  0.1770  0.0761 -0.0441
  785POPS   C3A11913   5.107   0.770   7.022  0.1609  0.1775 -0.1243
  785POPS   C4A11914   4.816   0.549   7.141  0.0391 -0.1262 -0.0395
  785POPS   C1B11915   4.600   0.794   6.465 -0.0225 -0.1905  0.1907
  785POPS   C2B11916   4.680   0.867   6.805 -0.1569 -0.2464 -0.2983
  785POPS   C3B11917   4.396   0.880   7.134 -0.0280 -0.0628 -0.3107
  785POPS   C4B11918   4.236   1.197   7.317 -0.0477  0.0659 -0.5906
  786POPS   CNO11919   9.948   7.651   5.133 -0.1095 -0.0232  0.1024
  786POPS   PO411920   9.840   7.720   5.538  0.6030  0.3047 -0.1195
  786POPS   GL111921   9.676   7.889   5.812 -0.0141 -0.1009 -0.1703
  786POPS   GL211922   9.365   8.032   5.947 -0.0956  0.1369  0.3306
  786POPS   C1A11923   9.699   7.857   6.256  0.0034 -0.0685 -0.2651
  786POPS   D2A11924   9.784   7.730   6.683  0.0879  0.3131  0.3525
  786POPS   C3A11925   9.747   7.873   7.087 -0.3418 -0.0677  0.2209
  786POPS   C4A11926  10.016   7.921   7.464  0.1822 -0.1912 -0.3123
  786POPS   C1B11927   9.292   8.263   6.313  0.1234 -0.0883 -0.0844
  786POPS   C2B11928   9.209   8.404   6.746 -0.2869  0.1728  0.0132
  786POPS   C3B11929   9.454   8.436   7.063  0.1369 -0.2628  0.1589
  786POPS   C4B11930   9.672   8.686   7.348 -0.0122 -0.3638 -0.3419
  787POPS   CNO11931   6.683  15.684   5.697  0.0655  0.1653  0.1504
  787POPS   PO411932   7.049  15.549   5.864 -0.0895 -0.0869 -0.1645
  787POPS   GL111933   7.166  15.677   6.229  0.2442 -0.0495 -0.0807
  787POPS   GL211934   7.164  15.446   6.503 -0.1212 -0.2599  0.0972
  787POPS   C1A11935   7.225  15.887   6.609  0.3092 -0.0242  0.1158
  787POPS   D2A11936   7.152  15.900   7.046 -0.0205  0.0389  0.0722
  787POPS   C3A11937   7.455  15.926   7.319 -0.0322  0.1341  0.0874
  787POPS   C4A11938   7.675  15.969   7.716 -0.1853 -0.0825  0.0142
  787POPS   C1B11939   6.990  15.149   6.677  0.2592 -0.0474 -0.2711
  787POPS   C2B11940   6.855  14.955   7.048  0.2783  0.0588  0.1174
  787POPS   C3B11941   6.940  14.816   7.420 -0.2207 -0.0777 -0.0949
  787POPS   C4B11942   7.034  14.456   7.796  0.0034  0.4336  0.1142
  788POPS   CNO11943   0.388  17.894   5.027 -0.0304 -0.3232 -0.0121
  788POPS   PO411944   0.587  17.645   5.193 -0.1160 -0.0136 -0.0096
  788POPS   GL111945   0.653  17.764   5.541 -0.1270 -0.2222 -0.1282
  788POPS   GL211946   0.728  18.156   5.611 -0.1926  0.0502  0.1271
  788POPS   C1A11947   1.040  17.853   5.801  0.0563  0.0065 -0.0434
  788POPS   D2A11948   1.022  17.800   6.239 -0.1325 -0.1463  0.0078
  788POPS   C3A11949   1.258  17.759   6.724 -0.1633  0.1762  0.0390
  788POPS   C4A11950   1.564  17.700   7.023 -0.2669 -0.2387  0.2658
  788POPS   C1B11951   0.885  18.231   6.128 -0.2274  0.1865  0.0270
  788POPS   C2B11952   0.976  18.178   6.582 -0.0120 -0.2230 -0.0299
  788POPS   C3B11953   0.897  18.090   7.044  0.1693  0.0220  0.3055
  788POPS   C4B11954   0.883  18.315   7.382 -0.1741  0.0197 -0.1810
  789POPS   CNO11955  11.320   5.810   5.337  0.1672 -0.3947 -0.0921
  789POPS   PO411956  11.536   5.414   5.552  0.0950  0.0286  0.0144
  789POPS   GL111957  11.722   5.495   5.970 -0.2214  0.1734 -0.2416
  789POPS   GL211958  11.561   5.210   6.129 -0.0102  0.0033 -0.0086
  789POPS   C1A11959  11.798   5.487   6.522  0.1090  0.0830  0.1777
  789POPS   D2A11960  11.534   5.492   6.925 -0.0034  0.0584  0.1246
  789POPS   C3A11961  11.751   5.777   7.216 -0.2252  0.1861  0.2358
  789POPS   C4A11962  11.716   6.026   7.603 -0.0804  0.0404  0.1239
  789POPS   C1B11963  11.536   5.073   6.601 -0.3528 -0.2359  0.0017
  789POPS   C2B11964  11.542   4.931   6.999  0.2568  0.0400  0.1003
  789POPS   C3B11965  11.511   4.851   7.381  0.0943  0.1821  0.0856
  789POPS   C4B11966  11.355   4.875   7.755  0.2194 -0.1819  0.0807
  790POPS   CNO11967  16.285  14.471   5.653 -0.0850  0.3247 -0.0017
  790POPS   PO411968  16.165  14.584   6.093  0.2032 -0.1375  0.4940
  790POPS   GL111969  16.526  14.535   6.434 -0.1225 -0.3609 -0.0595
  790POPS   GL211970  16.833  14.360   6.408 -0.2250 -0.0179  0.0405
  790POPS   C1A11971  16.634  14.658   6.822 -0.2070 -0.2802  0.1175
  790POPS   D2A11972  16.779  14.721   7.338  0.2052  0.3013  0.2403
  790POPS   C3A11973  16.998  14.533   7.594 -0.1011  0.1113  0.0199
  790POPS   C4A11974  17.072  14.280   7.893  0.0804 -0.0715 -0.2173
  790POPS   C1B11975  17.112  14.339   6.676  0.0963  0.1985 -0.0545
  790POPS   C2B11976  17.269  14.430   7.060 -0.2029 -0.0925 -0.2246
  790POPS   C3B11977  17.158  14.084   7.350 -0.1941  0.2339 -0.1748
  790POPS   C4B11978  17.408  13.846   7.603 -0.3130  0.3440  0.0029
  791POPS   CNO11979  11.080  11.667   6.055  0.1805  0.2167  0.1506
  791POPS   PO411980  11.159  12.047   5.877  0.1074  0.1278  0.0234
  791POPS   GL111981  11.169  12.062   6.376  0.4486  0.2025  0.2683
  791POPS   GL211982  11.249  11.798   6.528 -0.2210  0.1582 -0.0406
  791POPS   C1A11983  10.841  12.092   6.690 -0.1023 -0.3173 -0.1055
  791POPS   D2A11984  10.765  11.878   7.104  0.1198 -0.1785 -0.0968
  791POPS   C3A11985  10.402  12.022   7.344 -0.2121  0.2157  0.0466
  791POPS   C4A11986  10.013  11.977   7.564 -0.0885 -0.0159  0.2586
  791POPS   C1B11987  11.184  11.733   6.859  0.1306  0.1511 -0.3113
  791POPS   C2B11988  11.185  11.547   7.161  0.0232 -0.1872 -0.0220
  791POPS   C3B11989  11.133  11.491   7.415  0.1980 -0.1303  0.1539
  791POPS   C4B11990  11.115  11.573   7.783 -0.1109 -0.0827  0.0070
  792POPS   CNO11991  17.603  15.721   4.766  0.1811  0.0745 -0.1568
  792POPS   PO411992  17.486  15.855   5.256 -0.1408 -0.0050  0.3102
  792POPS   GL111993  17.503  15.914   5.737 -0.0585 -0.1652  0.2629
  792POPS   GL211994  17.305  16.084   5.837 -0.0840 -0.1040 -0.0755
  792POPS   C1A11995  17.648  15.856   6.172  0.1697  0.0844  0.1891
  792POPS   D2A11996  17.614  15.935   6.619 -0.2544 -0.0727 -0.1071
  792POPS   C3A11997  17.570  15.750   7.020  0.1428  0.2350  0.2811
  792POPS   C4A11998  17.611  15.376   7.179  0.1163  0.0792 -0.3377
  792POPS   C1B11999  17.581  16.310   6.069 -0.0351  0.0649 -0.0238
  792POPS   C2B12000  17.795  16.325   6.389  0.0449 -0.0737  0.0494
  792POPS   C3B12001  18.102  16.459   6.718 -0.1858  0.1088 -0.1395
  792POPS   C4B12002  17.917  16.556   7.121  0.2495 -0.1275 -0.0590
  793POPS   CNO12003   2.953  13.439   5.081  0.0931  0.1133 -0.0276
  793POPS   PO412004   2.689  13.463   5.361  0.0169  0.0311 -0.0733
  793POPS   GL112005   2.485  13.515   5.748  0.2837  0.0654 -0.0535
  793POPS   GL212006   2.599  13.560   6.062  0.2029 -0.1880 -0.0528
  793POPS   C1A12007   2.160  13.772   6.055 -0.1044  0.0871 -0.0475
  793POPS   D2A12008   2.038  14.123   6.389  0.3380 -0.2993  0.1557
  793POPS   C3A12009   1.710  14.420   6.295  0.1695  0.2867  0.1834
  793POPS   C4A12010   1.586  14.692   6.176  0.0780 -0.1634 -0.0092
  793POPS   C1B12011   2.540  13.741   6.406  0.3349 -0.1440 -0.0595
  793POPS   C2B12012   2.192  13.878   6.807 -0.3278  0.1984  0.1002
  793POPS   C3B12013   2.019  14.134   7.092 -0.0574 -0.0177  0.1701
  793POPS   C4B12014   1.958  14.074   7.525 -0.0350  0.3907 -0.0242
  794POPS   CNO12015  17.925   3.778   5.135  0.0558 -0.2977  0.0716
  794POPS   PO412016  18.347   3.666   5.334  0.1134  0.2964 -0.1103
  794POPS   GL112017  18.440   3.512   5.717  0.0879  0.0280 -0.0410
  794POPS   GL212018  18.220   3.303   5.897 -0.0999  0.0087 -0.2050
  794POPS   C1A12019  18.698   3.481   6.059 -0.2597 -0.0854  0.0783
  794POPS   D2A12020  18.746   3.627   6.401 -0.1315 -0.2359 -0.1256
  794POPS   C3A12021  18.434   4.043   6.663 -0.2088  0.0398  0.2601
  794POPS   C4A12022  18.260   4.220   6.950  0.0656 -0.3944  0.0642
  794POPS   C1B12023  18.234   3.592   6.224 -0.1108 -0.2828  0.3577
  794POPS   C2B12024  18.102   3.641   6.637 -0.1429  0.0898  0.2115
  794POPS   C3B12025  18.141   3.719   7.068  0.0668 -0.0421  0.1027
  794POPS   C4B12026  17.892   3.942   7.313 -0.2564 -0.0153 -0.1974
  795POPS   CNO12027  12.892  18.088   6.078  0.0104 -0.0384 -0.0156
  795POPS   PO412028  12.633  18.444   5.899 -0.2347 -0.1907 -0.0906
  795POPS   GL112029  12.444  18.189   6.254 -0.1189  0.0329  0.0112
  795POPS   GL212030  12.233  18.380   6.464 -0.1288  0.0762  0.0570
  795POPS   C1A12031  12.419  18.095   6.786 -0.0147  0.0304 -0.2704
  795POPS   D2A12032  12.369  18.302   7.134  0.2153  0.0703 -0.0081
  795POPS   C3A12033  12.055  18.458   7.345 -0.1393 -0.0467  0.2283
  795POPS   C4A12034  11.886  18.861   7.550 -0.2386 -0.1177  0.0505
  795POPS   C1B12035  11.937  18.554   6.786 -0.2813  0.3354 -0.0472
  795POPS   C2B12036  11.661  18.710   7.082 -0.1234  0.0661  0.2328
  795POPS   C3B12037  11.402  19.056   7.367  0.0792  0.2280  0.3423
  795POPS   C4B12038  11.333  19.244   7.600 -0.0157 -0.3423 -0.0515
  796POPS   CNO12039   6.112  17.674   5.041  0.0518 -0.1407  0.1663
  796POPS   PO412040   6.348  17.373   5.347  0.0880  0.2143 -0.0414
  796POPS   GL112041   6.283  17.448   5.782 -0.2097  0.0688 -0.3067
  796POPS   GL212042   6.245  17.191   5.980 -0.1665  0.2424 -0.1904
  796POPS   C1A12043   6.207  17.672   6.167 -0.0572  0.1884 -0.1866
  796POPS   D2A12044   6.215  17.681   6.563  0.1966  0.0143  0.0568
  796POPS   C3A12045   5.820  17.660   6.863 -0.0405 -0.0963  0.0697
  796POPS   C4A12046   5.498  17.694   6.959 -0.2187  0.0643  0.1329
  796POPS   C1B12047   5.983  17.110   6.289  0.4800  0.0759 -0.1195
  796POPS   C2B12048   5.657  17.297   6.573  0.1951 -0.1315 -0.0680
  796POPS   C3B12049   5.589  17.223   7.015 -0.0064 -0.2961  0.2202
  796POPS   C4B12050   5.818  17.130   7.303  0.0912  0.0571 -0.0248
  797POPS   CNO12051  16.534  17.345   5.764  0.3117  0.0368  0.1262
  797POPS   PO412052  16.926  17.500   5.573  0.2666  0.0679 -0.2466
  797POPS   GL112053  16.991  17.405   5.994  0.1890 -0.1599  0.1121
  797POPS   GL212054  16.761  17.170   6.154 -0.1483 -0.1063  0.1053
  797POPS   C1A12055  17.153  17.556   6.414 -0.0398  0.1050 -0.0361
  797POPS   D2A12056  17.093  17.862   6.674 -0.0774 -0.0531 -0.0754
  797POPS   C3A12057  16.895  18.146   6.457  0.1458 -0.4114  0.0706
  797POPS   C4A12058  16.961  18.494   6.278  0.0433  0.3238 -0.0135
  797POPS   C1B12059  16.765  17.341   6.605 -0.0001  0.1112 -0.2329
  797POPS   C2B12060  16.561  17.336   6.992 -0.0350 -0.1195 -0.1145
  797POPS   C3B12061  16.252  17.282   7.162 -0.0300  0.0308 -0.1084
  797POPS   C4B12062  16.006  16.911   7.168 -0.1610  0.0783 -0.0653
  798POPS   CNO12063   4.159  14.123   5.010 -0.2128  0.0608  0.3132
  798POPS   PO412064   3.961  13.865   5.351  0.2099  0.2765 -0.0213
  798POPS   GL112065   4.036  13.951   5.790 -0.1601  0.2002 -0.3303
  798POPS   GL212066   4.073  14.298   5.962 -0.1353 -0.0199 -0.1503
  798POPS   C1A12067   3.841  13.968   6.262  0.1357 -0.2101 -0.1076
  798POPS   D2A12068   3.638  13.866   6.657 -0.2358  0.1267 -0.0628
  798POPS   C3A12069   3.693  14.005   6.996  0.2157 -0.0994  0.4292
  798POPS   C4A12070   3.719  13.777   7.449 -0.0986 -0.1565 -0.2123
  798POPS   C1B12071   3.962  14.483   6.275 -0.0084 -0.1160  0.4468
  798POPS   C2B12072   4.025  14.333   6.646 -0.2438 -0.2577 -0.0498
  798POPS   C3B12073   3.964  14.388   7.128  0.2418 -0.1570  0.2272
  798POPS   C4B12074   4.084  14.134   7.476  0.2288 -0.3478  0.1810
  799POPS   CNO12075  17.952   2.652   5.867  0.1827 -0.0365  0.1376
  799POPS   PO412076  18.143   2.656   5.500  0.0571 -0.0556 -0.0611
  799POPS   GL112077  18.441   2.588   5.696 -0.0986  0.0158  0.1240
  799POPS   GL212078  18.520   2.950   5.739  0.0908 -0.5603  0.2600
  799POPS   C1A12079  18.358   2.491   6.114 -0.2731 -0.0994 -0.0097
  799POPS   D2A12080  18.109   2.701   6.501  0.2732  0.1253 -0.0979
  799POPS   C3A12081  18.197   2.618   6.967 -0.2017  0.2046  0.1339
  799POPS   C4A12082  18.139   2.409   7.280  0.1538 -0.1633 -0.1308
  799POPS   C1B12083  18.552   3.057   6.146 -0.0332 -0.1072  0.3019
  799POPS   C2B12084  18.435   3.154   6.533  0.1342  0.1343 -0.0204
  799POPS   C3B12085  18.608   3.435   6.832 -0.1647 -0.3910  0.2312
  799POPS   C4B12086  18.871   3.614   6.938  0.0379  0.0299 -0.0946
  800POPS   CNO12087   7.263  16.614   5.336 -0.0105 -0.3407  0.0496
  800POPS   PO412088   7.376  16.228   5.679  0.0802  0.0157 -0.3329
  800POPS   GL112089   7.330  16.346   6.128  0.1489  0.0419 -0.0402
  800POPS   GL212090   7.595  16.225   6.355 -0.1237 -0.2332  0.1787
  800POPS   C1A12091   7.091  16.461   6.504 -0.0803 -0.1270  0.0074
  800POPS   D2A12092   6.977  16.347   6.924  0.0238  0.0364  0.2892
  800POPS   C3A12093   7.264  16.398   7.246  0.0145 -0.2417  0.0610
  800POPS   C4A12094   7.604  16.510   7.562  0.3558  0.2507 -0.0010
  800POPS   C1B12095   7.480  16.318   6.779 -0.0129  0.1735  0.0354
  800POPS   C2B12096   7.793  16.381   7.003 -0.1199  0.2110 -0.2938
  800POPS   C3B12097   8.026  16.222   7.376 -0.2348  0.0961  0.1515
  800POPS   C4B12098   8.220  15.974   7.748 -0.1971 -0.0483 -0.1219
  801POPS   CNO12099   2.413  17.830   4.988 -0.3337  0.3990 -0.0405
  801POPS   PO412100   2.141  17.739   5.294 -0.0184  0.2457 -0.1065
  801POPS   GL112101   2.280  17.587   5.626  0.3265  0.0612 -0.0279
  801POPS   GL212102   2.510  17.915   5.695 -0.0407  0.2393  0.0335
  801POPS   C1A12103   2.350  17.312   5.946  0.1484  0.0301  0.3350
  801POPS   D2A12104   2.551  17.022   6.239  0.1417 -0.2101 -0.0048
  801POPS   C3A12105   2.397  16.887   6.583  0.2853  0.0428 -0.2521
  801POPS   C4A12106   2.169  16.882   6.975 -0.0753  0.3943  0.0844
  801POPS   C1B12107   2.575  17.750   6.122  0.2285  0.1611  0.0014
  801POPS   C2B12108   2.696  17.476   6.304 -0.0483  0.3103  0.0957
  801POPS   C3B12109   2.554  17.484   6.661 -0.1679 -0.1105 -0.2910
  801POPS   C4B12110   2.269  17.484   7.069 -0.2994 -0.2460  0.2097
  802POPS   CNO12111  10.228  12.222   5.561 -0.2560 -0.1241  0.0007
  802POPS   PO412112  10.050  11.901   5.689 -0.0997  0.0899 -0.0853
  802POPS   GL112113  10.305  11.778   6.075 -0.0538 -0.0994 -0.2451
  802POPS   GL212114  10.656  11.811   6.279 -0.1914 -0.1134 -0.0092
  802POPS   C1A12115  10.254  11.700   6.593 -0.2303  0.0336 -0.1573
  802POPS   D2A12116  10.301  11.660   6.995  0.2059  0.0485  0.2030
  802POPS   C3A12117  10.015  11.523   7.292 -0.0043 -0.0633  0.3678
  802POPS   C4A12118  10.137  11.298   7.789  0.1907 -0.0201  0.0389
  802POPS   C1B12119  10.719  11.519   6.744 -0.0696 -0.0050  0.0568
  802POPS   C2B12120  10.716  11.351   7.157 -0.0168 -0.2402 -0.0908
  802POPS   C3B12121  10.540  11.526   7.470 -0.0225 -0.2429  0.0428
  802POPS   C4B12122  10.416  11.878   7.827 -0.0691  0.2340 -0.1181
  803POPS   CNO12123   8.396  18.776   5.391  0.0760 -0.0346  0.2186
  803POPS   PO412124   8.008  18.546   5.655 -0.2069  0.3492 -0.3847
  803POPS   GL112125   7.767  18.567   6.038 -0.1653 -0.0951  0.1540
  803POPS   GL212126   7.372  18.538   6.123  0.1410  0.1070 -0.1572
  803POPS   C1A12127   7.643  18.828   6.404  0.1559  0.2525  0.3704
  803POPS   D2A12128   7.363  18.851   6.733  0.0319 -0.1005 -0.0490
  803POPS   C3A12129   7.299  19.154   7.052  0.3719  0.1706 -0.0372
  803POPS   C4A12130   7.105  19.427   7.257  0.0435  0.0938 -0.0888
  803POPS   C1B12131   7.162  18.478   6.436 -0.0299  0.2875  0.3834
  803POPS   C2B12132   6.739  18.396   6.635  0.2164 -0.3885 -0.0762
  803POPS   C3B12133   6.574  18.264   7.029  0.1476 -0.1152 -0.1964
  803POPS   C4B12134   6.787  18.163   7.371  0.2762 -0.0421 -0.1248
  804POPS   CNO12135   3.471   9.589   5.003 -0.2249  0.3416  0.3142
  804POPS   PO412136   3.747   9.684   5.276  0.3613 -0.2269  0.0371
  804POPS   GL112137   3.745   9.862   5.704  0.2864  0.2837  0.2219
  804POPS   GL212138   3.535   9.985   5.959 -0.0846 -0.1812  0.1300
  804POPS   C1A12139   3.998   9.982   6.009  0.0774 -0.0555  0.0982
  804POPS   D2A12140   4.342  10.332   6.267  0.0573  0.1274 -0.1619
  804POPS   C3A12141   4.717  10.287   6.617  0.0889  0.1354 -0.0737
  804POPS   C4A12142   4.977   9.984   6.596 -0.0511 -0.1185  0.0561
  804POPS   C1B12143   3.699   9.608   6.215  0.1804 -0.1165  0.0642
  804POPS   C2B12144   3.611   9.539   6.612  0.0719  0.0713  0.1522
  804POPS   C3B12145   3.676   9.231   6.886  0.0257 -0.1207 -0.2768
  804POPS   C4B12146   3.572   8.928   7.141  0.0870  0.0452 -0.2222
  805POPS   CNO12147   4.570   6.220   5.203 -0.1254  0.1139 -0.0166
  805POPS   PO412148   4.821   5.911   5.456  0.0649 -0.0380  0.1287
  805POPS   GL112149   4.923   5.748   5.839 -0.3586 -0.3634 -0.0413
  805POPS   GL212150   5.216   5.829   5.808  0.1102  0.2333 -0.3078
  805POPS   C1A12151   5.086   5.474   6.194 -0.1896  0.2522 -0.2519
  805POPS   D2A12152   5.225   5.488   6.611  0.3698 -0.0045  0.0005
  805POPS   C3A12153   5.068   5.289   6.906 -0.0197  0.1822  0.3840
  805POPS   C4A12154   4.838   5.157   7.188  0.1252  0.0551 -0.0121
  805POPS   C1B12155   5.523   5.669   6.110 -0.0678 -0.0303  0.1933
  805POPS   C2B12156   5.729   5.605   6.451  0.0681  0.0047 -0.0502
  805POPS   C3B12157   5.753   5.538   6.816  0.0053 -0.0482  0.2632
  805POPS   C4B12158   6.043   5.562   7.170 -0.2745  0.1131 -0.2190
  806POPS   CNO12159  14.704  15.281   5.627 -0.0708 -0.2579 -0.1528
  806POPS   PO412160  14.486  15.231   5.937  0.6137  0.0728  0.3179
  806POPS   GL112161  14.476  15.110   6.368  0.2203 -0.0923  0.1869
  806POPS   GL212162  14.334  15.307   6.541 -0.1508 -0.0841  0.0647
  806POPS   C1A12163  14.655  14.935   6.669  0.2818  0.2044 -0.1565
  806POPS   D2A12164  14.615  14.843   7.132  0.0841  0.1561  0.0896
  806POPS   C3A12165  14.685  14.503   7.443 -0.0263 -0.2972  0.3277
  806POPS   C4A12166  14.679  14.375   7.853  0.2486  0.0395  0.1590
  806POPS   C1B12167  14.270  15.315   6.960  0.0710 -0.1721 -0.0539
  806POPS   C2B12168  14.350  15.263   7.395 -0.0522 -0.1980 -0.0710
  806POPS   C3B12169  14.452  15.432   7.735 -0.0224 -0.3345  0.1550
  806POPS   C4B12170  14.441  15.364   8.147  0.1466  0.0385  0.0121
  807POPS   CNO12171   8.411   6.308   5.051 -0.1446 -0.0523  0.3167
  807POPS   PO412172   8.274   6.382   5.488  0.1045  0.2200 -0.1224
  807POPS   GL112173   8.085   6.476   5.821 -0.1246 -0.0908 -0.1314
  807POPS   GL212174   7.929   6.285   5.871  0.1643  0.1900  0.0127
  807POPS   C1A12175   8.237   6.418   6.241 -0.2672  0.3191  0.0426
  807POPS   D2A12176   8.236   6.654   6.645  0.1992 -0.0847  0.2243
  807POPS   C3A12177   8.194   6.784   7.013  0.0868 -0.1802  0.0737
  807POPS   C4A12178   8.186   7.052   7.225  0.1529  0.0408  0.0524
  807POPS   C1B12179   7.968   5.982   6.150  0.1040 -0.0144 -0.0698
  807POPS   C2B12180   7.850   5.771   6.458  0.0153  0.2993 -0.1654
  807POPS   C3B12181   7.893   5.437   6.651  0.1305  0.1292 -0.0185
  807POPS   C4B12182   7.807   5.324   7.068  0.1235  0.1234  0.0543
  808POPS   CNO12183  11.087   7.398   5.598  0.0843 -0.2112  0.0158
  808POPS   PO412184  11.484   7.385   5.744  0.1816 -0.3489 -0.0692
  808POPS   GL112185  11.360   7.380   6.146 -0.1103  0.0406  0.0187
  808POPS   GL212186  11.009   7.418   6.152 -0.0199 -0.2008  0.2127
  808POPS   C1A12187  11.377   7.342   6.597  0.3062  0.1563 -0.0524
  808POPS   D2A12188  11.416   7.379   7.003 -0.0602 -0.0904 -0.0334
  808POPS   C3A12189  11.174   7.653   7.168 -0.3913 -0.0822  0.1437
  808POPS   C4A12190  10.953   7.837   7.476 -0.0793  0.0474 -0.0547
  808POPS   C1B12191  10.711   7.370   6.508 -0.0029 -0.0179 -0.0235
  808POPS   C2B12192  10.483   7.218   6.963 -0.2256  0.2222 -0.1821
  808POPS   C3B12193  10.416   7.376   7.330  0.3454 -0.1529  0.1404
  808POPS   C4B12194  10.466   7.766   7.598  0.1404  0.0001 -0.3115
  809POPS   CNO12195  11.253  18.204   5.849  0.0418  0.0078 -0.2254
  809POPS   PO412196  11.099  18.639   6.062 -0.2449  0.4581  0.1351
  809POPS   GL112197  11.112  18.360   6.359 -0.1983 -0.1451  0.1641
  809POPS   GL212198  10.815  18.295   6.363 -0.2552  0.2360  0.2230
  809POPS   C1A12199  10.950  18.162   6.843  0.1553 -0.0209  0.1366
  809POPS   D2A12200  10.944  17.976   7.257  0.3828  0.2551 -0.2039
  809POPS   C3A12201  10.848  18.047   7.563 -0.0210 -0.1190  0.1419
  809POPS   C4A12202  10.952  18.099   7.992  0.3782  0.4694 -0.3750
  809POPS   C1B12203  10.849  18.644   6.721  0.0813 -0.2577  0.1592
  809POPS   C2B12204  10.650  18.744   7.110  0.1256  0.0162  0.1296
  809POPS   C3B12205  10.422  18.679   7.452  0.1467  0.3683 -0.6025
  809POPS   C4B12206  10.459  19.009   7.852  0.2722 -0.0074  0.0650
  810POPS   CNO12207   5.337  16.887   5.046  0.1421  0.2354 -0.2536
  810POPS   PO412208   5.194  16.670   5.273 -0.0405 -0.3662  0.1201
  810POPS   GL112209   5.084  16.725   5.783 -0.2841  0.2466  0.4052
  810POPS   GL212210   4.985  16.418   5.901 -0.2626 -0.0487  0.1462
  810POPS   C1A12211   4.866  17.015   6.098 -0.0365 -0.1229 -0.5306
  810POPS   D2A12212   4.708  16.976   6.576 -0.2435  0.1611 -0.2683
  810POPS   C3A12213   4.745  17.087   6.974 -0.1775  0.0670 -0.0461
  810POPS   C4A12214   4.577  17.354   7.340  0.0914  0.0278  0.2424
  810POPS   C1B12215   4.984  16.508   6.351 -0.0510 -0.2422  0.1718
  810POPS   C2B12216   4.807  16.441   6.785 -0.1412 -0.1278 -0.1407
  810POPS   C3B12217   4.591  16.565   7.094  0.3185 -0.0027  0.2427
  810POPS   C4B12218   4.130  16.648   7.180  0.2624  0.0183 -0.0317
  811YOPS   CNO12219   8.815   0.522   5.516 -0.3480 -0.0676 -0.0354
  811YOPS   PO412220   9.030   0.920   5.412  0.1033  0.0567  0.2965
  811YOPS   GL112221   8.857   0.903   5.871  0.0682 -0.1212 -0.0680
  811YOPS   GL212222   8.967   1.072   6.117  0.1974  0.0348 -0.3726
  811YOPS   C1A12223   8.676   0.612   6.208  0.1624  0.0343 -0.3489
  811YOPS   D2A12224   8.644   0.347   6.637 -0.1177  0.3202 -0.0387
  811YOPS   C3A12225   8.997   0.160   6.918  0.3430  0.0308 -0.2114
  811YOPS   C4A12226   9.175   0.407   7.290  0.2942  0.0529 -0.1622
  811YOPS   C1B12227   8.918   1.409   6.222 -0.0231 -0.2653  0.0336
  811YOPS   C2B12228   9.069   1.681   6.445  0.1181  0.2886 -0.1967
  811YOPS   D3B12229   8.969   1.831   6.949  0.1194  0.0720  0.0469
  811YOPS   C4B12230   8.462   1.705   7.091  0.0446 -0.0231 -0.3111
  812YOPS   CNO12231  17.647   9.793   5.618  0.0931 -0.1770 -0.1886
  812YOPS   PO412232  17.212   9.728   5.687 -0.1740  0.0594  0.2734
  812YOPS   GL112233  17.360   9.791   6.115  0.1084 -0.1388  0.1189
  812YOPS   GL212234  17.722   9.888   6.104 -0.1518 -0.1422  0.2891
  812YOPS   C1A12235  17.550   9.756   6.617 -0.0817 -0.1395  0.1739
  812YOPS   D2A12236  17.962  10.015   6.668  0.2121 -0.0457  0.0919
  812YOPS   C3A12237  18.407   9.959   6.718 -0.0622 -0.1544 -0.2613
  812YOPS   C4A12238  18.685  10.288   6.725  0.0852 -0.4423  0.2723
  812YOPS   C1B12239  17.922   9.529   6.291  0.2649  0.0557 -0.0748
  812YOPS   C2B12240  18.407   9.544   6.411  0.1886  0.2006 -0.1356
  812YOPS   D3B12241  18.669   9.513   6.813  0.2163  0.0213  0.0296
  812YOPS   C4B12242  18.744   9.790   7.100 -0.1532 -0.2549  0.1304
  813YOPS   CNO12243   3.512   2.247   5.601 -0.2269 -0.1765 -0.1882
  813YOPS   PO412244   3.714   1.896   5.521  0.0994  0.0694 -0.0294
  813YOPS   GL112245   3.660   1.890   5.926  0.1279  0.0686  0.3281
  813YOPS   GL212246   3.448   1.879   6.099  0.0104 -0.3834  0.1811
  813YOPS   C1A12247   3.951   1.929   6.239 -0.1530  0.0941 -0.1814
  813YOPS   D2A12248   3.981   2.269   6.515  0.0094 -0.0290 -0.0970
  813YOPS   C3A12249   4.103   2.643   6.537  0.0668  0.1384  0.0797
  813YOPS   C4A12250   4.343   2.577   6.958  0.0039  0.0690 -0.0397
  813YOPS   C1B12251   3.493   2.089   6.448  0.2304  0.2252 -0.0600
  813YOPS   C2B12252   3.494   2.207   6.865  0.2610 -0.1970  0.1470
  813YOPS   D3B12253   3.599   2.126   7.292 -0.0468 -0.0057 -0.0194
  813YOPS   C4B12254   3.984   2.502   7.361  0.2268 -0.4445 -0.2324
  814YOPS   CNO12255  10.352   5.676   5.258 -0.0165 -0.0227 -0.0922
  814YOPS   PO412256  10.443   6.024   5.548  0.1161  0.0080 -0.0116
  814YOPS   GL112257  10.404   6.047   5.925 -0.1591 -0.0449  0.0466
  814YOPS   GL212258  10.787   6.088   5.961  0.0566 -0.0390 -0.0687
  814YOPS   C1A12259  10.404   6.067   6.350 -0.2475 -0.1731 -0.2056
  814YOPS   D2A12260  10.408   6.191   6.782 -0.1868  0.1046  0.1244
  814YOPS   C3A12261  10.426   6.388   7.193  0.2256 -0.1610  0.1296
  814YOPS   C4A12262  10.465   6.263   7.678 -0.0796 -0.0988 -0.1383
  814YOPS   C1B12263  10.929   6.065   6.344 -0.1150 -0.1127 -0.1200
  814YOPS   C2B12264  10.917   6.134   6.776  0.1962 -0.3218 -0.2245
  814YOPS   D3B12265  10.842   6.197   7.188 -0.0406  0.3365  0.0204
  814YOPS   C4B12266  10.508   5.897   7.382  0.0501  0.1425 -0.0612
  815YOPS   CNO12267   7.333   7.838   5.030 -0.0456  0.2832 -0.2122
  815YOPS   PO412268   7.139   7.826   5.511 -0.5288  0.2491 -0.0532
  815YOPS   GL112269   7.014   7.833   5.973  0.2045 -0.3588 -0.2367
  815YOPS   GL212270   6.862   8.091   5.979  0.2157 -0.1232  0.0365
  815YOPS   C1A12271   6.995   7.685   6.324  0.0963 -0.1274  0.1369
  815YOPS   D2A12272   6.735   7.768   6.728 -0.2447 -0.1752 -0.0117
  815YOPS   C3A12273   6.630   7.777   7.128  0.1829  0.0161 -0.0642
  815YOPS   C4A12274   6.291   8.087   7.375 -0.2314 -0.1685  0.1462
  815YOPS   C1B12275   6.725   8.049   6.339  0.0708  0.0839 -0.0195
  815YOPS   C2B12276   6.547   8.211   6.687  0.1177 -0.1265  0.0763
  815YOPS   D3B12277   6.447   8.359   6.945  0.1291  0.1577  0.1383
  815YOPS   C4B12278   6.774   8.408   7.168 -0.0657  0.4836  0.0648
  816YOPS   CNO12279  16.770  12.486   5.685 -0.0716  0.2297 -0.1658
  816YOPS   PO412280  16.347  12.191   5.771 -0.1248 -0.1089  0.0941
  816YOPS   GL112281  16.518  12.093   6.120 -0.0388 -0.0657 -0.0726
  816YOPS   GL212282  16.551  12.321   6.184  0.1197  0.0280  0.2421
  816YOPS   C1A12283  16.705  11.800   6.525  0.2402 -0.0849 -0.2332
  816YOPS   D2A12284  16.769  11.642   6.943 -0.1184  0.1185  0.1180
  816YOPS   C3A12285  16.917  11.733   7.328  0.1027  0.0785  0.1591
  816YOPS   C4A12286  17.241  11.842   7.581 -0.1931  0.2962  0.2602
  816YOPS   C1B12287  16.709  12.269   6.606 -0.2108 -0.1193 -0.0635
  816YOPS   C2B12288  16.714  12.198   6.999 -0.0633 -0.2153  0.1904
  816YOPS   D3B12289  16.719  12.299   7.456  0.0260  0.1511  0.2177
  816YOPS   C4B12290  17.079  12.473   7.698  0.5661 -0.0253 -0.0568
  817YOPS   CNO12291   2.728  16.518   4.748  0.0503 -0.2208  0.0362
  817YOPS   PO412292   2.605  16.747   5.160 -0.3526  0.2152 -0.1231
  817YOPS   GL112293   2.396  16.818   5.461 -0.0158  0.1009  0.0073
  817YOPS   GL212294   2.596  17.001   5.715  0.1235 -0.3949  0.2133
  817YOPS   C1A12295   2.010  16.960   5.742  0.0005  0.2596 -0.0568
  817YOPS   D2A12296   2.045  16.947   6.252  0.1793  0.1547  0.0550
  817YOPS   C3A12297   1.904  16.760   6.580  0.0316 -0.2288  0.1150
  817YOPS   C4A12298   1.945  16.249   6.620  0.1590 -0.1149  0.0399
  817YOPS   C1B12299   2.850  17.431   5.809 -0.0583  0.0271  0.0804
  817YOPS   C2B12300   3.121  17.679   6.168  0.0354  0.2011  0.0278
  817YOPS   D3B12301   3.008  17.663   6.660 -0.1151 -0.2196 -0.0206
  817YOPS   C4B12302   3.159  17.704   7.029  0.1633  0.1078  0.2212
  818YOPS   CNO12303  12.581   9.796   5.462  0.0302 -0.0343  0.1082
  818YOPS   PO412304  12.188   9.808   5.768  0.5002  0.1085  0.1767
  818YOPS   GL112305  12.395   9.803   6.143  0.0681 -0.1686 -0.0659
  818YOPS   GL212306  12.697   9.775   6.091  0.0435 -0.0451  0.0642
  818YOPS   C1A12307  12.615   9.622   6.541 -0.0336  0.2704 -0.0376
  818YOPS   D2A12308  12.772   9.263   6.903  0.1754 -0.2566 -0.1049
  818YOPS   C3A12309  12.630   9.204   7.286 -0.1449 -0.0738  0.1097
  818YOPS   C4A12310  12.939   9.262   7.549 -0.0505 -0.2070  0.0769
  818YOPS   C1B12311  13.121   9.609   6.355 -0.0736  0.0418 -0.1041
  818YOPS   C2B12312  13.553   9.522   6.465  0.0327 -0.1651 -0.0363
  818YOPS   D3B12313  13.974   9.635   6.613  0.0344  0.1730 -0.0551
  818YOPS   C4B12314  13.931   9.386   6.977  0.0142 -0.0593  0.1298
  819YOPS   CNO12315  13.123   0.358   5.609  0.1342  0.3596 -0.0694
  819YOPS   PO412316  13.289   0.260   5.994 -0.0648 -0.4086  0.0754
  819YOPS   GL112317  13.534   0.210   6.342  0.1196 -0.2560  0.2691
  819YOPS   GL212318  13.370  -0.045   6.438 -0.0738 -0.1792  0.2821
  819YOPS   C1A12319  13.625   0.142   6.829  0.1794  0.2276 -0.1207
  819YOPS   D2A12320  13.861   0.145   7.235 -0.2774 -0.1955 -0.0517
  819YOPS   C3A12321  13.866  -0.028   7.594  0.2755  0.0707  0.0442
  819YOPS   C4A12322  13.723   0.143   7.978 -0.0157  0.4857 -0.1056
  819YOPS   C1B12323  13.154  -0.133   6.801  0.0790  0.0046 -0.1222
  819YOPS   C2B12324  13.255   0.005   7.196  0.0637  0.0009 -0.1007
  819YOPS   D3B12325  13.387   0.252   7.609  0.2217  0.2558  0.0204
  819YOPS   C4B12326  13.821   0.557   7.592  0.0821  0.1295  0.1789
  820YOPS   CNO12327  11.739   4.067   5.299 -0.0183  0.1885 -0.1197
  820YOPS   PO412328  11.714   3.879   5.602 -0.2276  0.0343  0.1061
  820YOPS   GL112329  11.555   3.811   6.021 -0.0966  0.1161 -0.4152
  820YOPS   GL212330  11.446   4.106   6.157 -0.1347  0.1072 -0.0398
  820YOPS   C1A12331  11.331   3.650   6.402 -0.2424  0.0037  0.2293
  820YOPS   D2A12332  11.251   3.642   6.858  0.0490 -0.5129  0.2033
  820YOPS   C3A12333  11.278   3.754   7.209  0.1364  0.0588 -0.2104
  820YOPS   C4A12334  11.483   3.469   7.598 -0.0761  0.0380  0.4157
  820YOPS   C1B12335  11.241   4.128   6.477  0.4086 -0.0510 -0.2417
  820YOPS   C2B12336  10.940   4.051   6.862 -0.2005  0.1357  0.0250
  820YOPS   D3B12337  10.917   4.035   7.304  0.3018  0.1279  0.2000
  820YOPS   C4B12338  11.362   4.168   7.438 -0.0818  0.3405  0.0773
  821YOPS   CNO12339  13.795   0.907   5.552 -0.0498  0.1326  0.0009
  821YOPS   PO412340  14.170   0.860   5.824  0.1368 -0.1005 -0.3032
  821YOPS   GL112341  13.928   0.798   6.189  0.1538 -0.1347 -0.2801
  821YOPS   GL212342  13.932   1.091   6.381 -0.0946 -0.0567  0.0769
  821YOPS   C1A12343  13.900   0.511   6.532  0.1190 -0.3613 -0.2695
  821YOPS   D2A12344  13.883   0.622   7.030 -0.1648 -0.1635 -0.2149
  821YOPS   C3A12345  14.176   0.807   7.287  0.0270 -0.1353  0.3224
  821YOPS   C4A12346  14.277   0.815   7.718  0.1777 -0.3198  0.2927
  821YOPS   C1B12347  14.185   0.996   6.768 -0.2416 -0.1899  0.0323
  821YOPS   C2B12348  14.304   1.209   7.099 -0.0825  0.2877  0.2643
  821YOPS   D3B12349  14.187   1.295   7.501  0.1182  0.0897  0.0302
  821YOPS   C4B12350  14.544   1.385   7.784 -0.1799  0.0307 -0.0452
  822YOPS   CNO12351   8.552   8.041   5.378  0.0547 -0.0964 -0.1746
  822YOPS   PO412352   8.352   8.470   5.554 -0.0931 -0.0978 -0.4385
  822YOPS   GL112353   8.163   8.708   5.947 -0.0855 -0.1566 -0.1506
  822YOPS   GL212354   8.167   9.021   5.960 -0.1134 -0.1804 -0.1314
  822YOPS   C1A12355   8.060   8.558   6.414  0.2455 -0.2020 -0.2632
  822YOPS   D2A12356   8.095   8.673   6.896  0.2241  0.1546  0.0644
  822YOPS   C3A12357   8.366   8.567   7.306  0.2158 -0.1839 -0.3184
  822YOPS   C4A12358   8.744   8.805   7.424 -0.0504 -0.1672 -0.2219
  822YOPS   C1B12359   8.126   9.280   6.314 -0.3392  0.1985  0.0543
  822YOPS   C2B12360   8.264   9.239   6.650  0.1003 -0.0938 -0.3795
  822YOPS   D3B12361   8.361   9.089   6.986  0.0728  0.0589  0.3297
  822YOPS   C4B12362   8.113   9.206   7.460  0.1488 -0.1944  0.2288
  823YOPS   CNO12363  12.505  11.110   5.746 -0.0377 -0.4373 -0.1873
  823YOPS   PO412364  12.869  11.084   5.769  0.3055  0.1064  0.1483
  823YOPS   GL112365  12.843  10.707   5.978 -0.1213 -0.1187  0.2138
  823YOPS   GL212366  13.067  10.740   6.285  0.1173  0.1038 -0.0699
  823YOPS   C1A12367  13.029  10.300   6.143  0.3550  0.0301  0.1952
  823YOPS   D2A12368  13.338  10.029   6.257 -0.0407  0.1717 -0.1247
  823YOPS   C3A12369  13.719  10.080   6.090  0.3200 -0.1585  0.3835
  823YOPS   C4A12370  14.121   9.906   6.211  0.0062  0.1186 -0.0836
  823YOPS   C1B12371  13.000  10.732   6.712 -0.2290  0.0986 -0.2826
  823YOPS   C2B12372  12.936  10.765   7.207 -0.1835  0.0288  0.2519
  823YOPS   D3B12373  12.940  10.673   7.595  0.3437  0.3141  0.0473
  823YOPS   C4B12374  13.324  10.556   7.863 -0.2819 -0.1317  0.0742
  824YOPS   CNO12375   2.105  11.703   4.800  0.0048 -0.0131  0.1251
  824YOPS   PO412376   2.168  12.106   5.036  0.1271 -0.3335  0.2067
  824YOPS   GL112377   2.132  11.971   5.536 -0.0570  0.2368  0.0157
  824YOPS   GL212378   2.264  12.261   5.838 -0.2444  0.1538  0.0730
  824YOPS   C1A12379   1.971  11.866   5.919  0.0294 -0.0507  0.0866
  824YOPS   D2A12380   1.771  11.770   6.411  0.0350  0.2301 -0.2093
  824YOPS   C3A12381   1.569  11.775   6.703 -0.3215  0.1686 -0.0094
  824YOPS   C4A12382   1.373  11.348   6.783  0.1100  0.0747 -0.0039
  824YOPS   C1B12383   2.631  12.208   6.160 -0.2247  0.3557 -0.2617
  824YOPS   C2B12384   2.688  12.014   6.491 -0.2185  0.2547  0.1680
  824YOPS   D3B12385   2.532  11.897   6.900 -0.2081 -0.0210  0.0657
  824YOPS   C4B12386   2.257  12.274   7.006 -0.1317  0.1054 -0.0750
  825YOPS   CNO12387  11.681   1.686   5.425 -0.0619 -0.0513 -0.2777
  825YOPS   PO412388  11.360   1.986   5.649  0.3921  0.1988 -0.2966
  825YOPS   GL112389  11.307   2.203   5.995 -0.0568  0.1837 -0.2571
  825YOPS   GL212390  11.350   2.514   6.068 -0.1869  0.1636  0.3755
  825YOPS   C1A12391  11.099   2.272   6.405 -0.0992 -0.0051 -0.0688
  825YOPS   D2A12392  10.929   1.999   6.761 -0.2193 -0.0193  0.1493
  825YOPS   C3A12393  10.865   2.078   7.245 -0.0980  0.0918  0.2238
  825YOPS   C4A12394  10.623   2.374   7.463 -0.0307 -0.1710  0.0825
  825YOPS   C1B12395  11.473   2.625   6.543 -0.0455  0.1848  0.2304
  825YOPS   C2B12396  11.480   2.845   6.899  0.0283  0.0835 -0.2243
  825YOPS   D3B12397  11.531   2.972   7.369  0.1522  0.0402 -0.0580
  825YOPS   C4B12398  11.885   2.945   7.612 -0.0711 -0.0583  0.3883
  826YOPS   CNO12399  13.961  13.211   6.054 -0.3862  0.0972 -0.0631
  826YOPS   PO412400  13.564  12.944   6.059 -0.1299 -0.1898  0.1631
  826YOPS   GL112401  13.524  12.913   6.459 -0.1584 -0.0043  0.1017
  826YOPS   GL212402  13.298  12.735   6.585  0.0241  0.0275  0.3487
  826YOPS   C1A12403  13.672  12.839   6.883  0.0873  0.1403 -0.0402
  826YOPS   D2A12404  13.768  12.727   7.240 -0.1110  0.2387 -0.0217
  826YOPS   C3A12405  13.851  12.726   7.564 -0.0905 -0.1094 -0.2935
  826YOPS   C4A12406  13.892  13.006   7.746 -0.0461 -0.0614  0.1879
  826YOPS   C1B12407  13.248  12.647   7.053  0.3952  0.2386  0.2388
  826YOPS   C2B12408  13.314  12.377   7.372  0.2136 -0.0442 -0.1874
  826YOPS   D3B12409  13.243  12.111   7.747 -0.1221  0.0696  0.2810
  826YOPS   C4B12410  13.081  11.712   7.957 -0.0088  0.0915 -0.2689
  827YOPS   CNO12411   4.750   2.318   4.570  0.1293 -0.0522 -0.1927
  827YOPS   PO412412   4.840   2.230   4.938  0.2214 -0.2272  0.2422
  827YOPS   GL112413   5.046   2.321   5.283 -0.4654 -0.0835  0.1961
  827YOPS   GL212414   5.334   2.240   5.348 -0.0126  0.1202  0.0793
  827YOPS   C1A12415   5.315   2.494   5.791  0.1498  0.1688 -0.0667
  827YOPS   D2A12416   5.516   2.275   6.104  0.1054 -0.1322 -0.0103
  827YOPS   C3A12417   5.706   2.465   6.508 -0.2882  0.1698  0.1241
  827YOPS   C4A12418   5.664   2.203   6.854  0.2378  0.1043  0.1529
  827YOPS   C1B12419   5.183   1.909   5.686 -0.1183  0.0725 -0.0814
  827YOPS   C2B12420   5.393   1.775   6.057 -0.2054 -0.1195  0.1532
  827YOPS   D3B12421   5.582   1.908   6.496  0.0302 -0.0170 -0.0419
  827YOPS   C4B12422   5.322   1.848   6.812  0.3048  0.2245 -0.0343
  828YOPS   CNO12423  18.441   0.941   5.788  0.2392 -0.2182 -0.2169
  828YOPS   PO412424  18.297   1.254   5.470  0.0518  0.1182  0.1816
  828YOPS   GL112425  18.424   1.462   5.855 -0.1029  0.1748 -0.0422
  828YOPS   GL212426  18.124   1.431   6.048 -0.1211 -0.1255 -0.3330
  828YOPS   C1A12427  18.623   1.542   6.291 -0.0902 -0.0202  0.2133
  828YOPS   D2A12428  18.802   1.624   6.669 -0.1042 -0.0483 -0.1061
  828YOPS   C3A12429  19.187   1.839   6.680  0.1963 -0.0009  0.0097
  828YOPS   C4A12430  19.520   1.741   6.324 -0.2295 -0.2896  0.1185
  828YOPS   C1B12431  17.890   1.218   6.405 -0.1182 -0.2667  0.0446
  828YOPS   C2B12432  17.765   1.261   6.816  0.2977  0.1057 -0.0234
  828YOPS   D3B12433  17.601   1.131   7.312 -0.1354 -0.0328  0.2654
  828YOPS   C4B12434  17.892   1.035   7.676 -0.0310  0.1606  0.4160
  829YOPS   CNO12435   5.466   0.125   5.140 -0.0766 -0.2651 -0.0897
  829YOPS   PO412436   5.940   0.342   5.215 -0.1662 -0.0375  0.0462
  829YOPS   GL112437   5.758   0.282   5.717  0.0216 -0.2070 -0.0776
  829YOPS   GL212438   5.930   0.542   5.838  0.2428  0.0157  0.0025
  829YOPS   C1A12439   5.432   0.173   6.040 -0.4987  0.1806 -0.0371
  829YOPS   D2A12440   5.375   0.034   6.373 -0.0626 -0.0627 -0.0559
  829YOPS   C3A12441   5.124   0.163   6.765 -0.0416 -0.4680  0.1045
  829YOPS   C4A12442   4.877   0.481   6.658 -0.0495 -0.1781 -0.1984
  829YOPS   C1B12443   5.844   0.495   6.211  0.2539 -0.0072 -0.1002
  829YOPS   C2B12444   5.528   0.509   6.452  0.3308  0.1469 -0.1225
  829YOPS   D3B12445   5.522   0.450   6.928 -0.1194 -0.0440 -0.3264
  829YOPS   C4B12446   5.262   0.351   7.259  0.2472 -0.1155  0.0697
  830YOPS   CNO12447  12.106   9.146   5.681 -0.1442  0.4055 -0.1190
  830YOPS   PO412448  11.792   9.468   5.740  0.2227  0.0279  0.1627
  830YOPS   GL112449  11.617   9.571   6.094  0.1535  0.0183  0.0598
  830YOPS   GL212450  11.531   9.313   6.326  0.2340 -0.0418 -0.1967
  830YOPS   C1A12451  11.824   9.832   6.393  0.0881 -0.2116  0.0718
  830YOPS   D2A12452  11.806   9.850   6.882 -0.0921  0.2844  0.1102
  830YOPS   C3A12453  12.065  10.057   7.217 -0.1236  0.0150  0.0048
  830YOPS   C4A12454  12.142   9.993   7.684 -0.0161 -0.0188 -0.0541
  830YOPS   C1B12455  11.686   9.332   6.657  0.1298 -0.0452  0.1013
  830YOPS   C2B12456  11.672   9.314   7.136 -0.1634 -0.2768  0.0453
  830YOPS   D3B12457  11.711   9.566   7.480 -0.0386 -0.0606 -0.2105
  830YOPS   C4B12458  11.924   9.477   7.814 -0.1780 -0.1164  0.1021
  831YOPS   CNO12459  17.357  12.578   4.955  0.1021 -0.0651 -0.1749
  831YOPS   PO412460  17.424  12.553   5.366  0.0167 -0.1585 -0.1885
  831YOPS   GL112461  17.736  12.591   5.713  0.1207 -0.0464  0.5611
  831YOPS   GL212462  18.025  12.379   5.862 -0.1100 -0.0442 -0.3061
  831YOPS   C1A12463  17.961  12.836   5.950 -0.0970  0.1490  0.1330
  831YOPS   D2A12464  18.211  12.551   6.341  0.1600 -0.1523  0.1522
  831YOPS   C3A12465  18.384  12.189   6.568  0.3415  0.1174  0.1648
  831YOPS   C4A12466  18.916  12.064   6.648  0.1365  0.0638 -0.2816
  831YOPS   C1B12467  17.976  12.084   6.233  0.1413  0.1530  0.1409
  831YOPS   C2B12468  17.901  11.855   6.664 -0.0189 -0.0022 -0.0247
  831YOPS   D3B12469  18.001  11.588   6.961  0.2978 -0.1187  0.0412
  831YOPS   C4B12470  18.392  11.255   6.990  0.0848 -0.0725 -0.0130
  832YOPS   CNO12471  10.816  14.749   6.071 -0.0969  0.4633  0.1324
  832YOPS   PO412472  10.525  14.458   5.864  0.0396 -0.1550 -0.0968
  832YOPS   GL112473  10.461  14.310   6.290 -0.0651 -0.2365 -0.1460
  832YOPS   GL212474  10.332  14.059   6.442  0.3420 -0.1965 -0.2096
  832YOPS   C1A12475  10.692  14.395   6.654  0.2199  0.0308 -0.3005
  832YOPS   D2A12476  10.916  14.611   6.528  0.0460  0.2411 -0.0320
  832YOPS   C3A12477  11.051  15.068   6.554  0.1400 -0.1220  0.4696
  832YOPS   C4A12478  10.940  15.332   6.842  0.1900  0.2342 -0.3037
  832YOPS   C1B12479  10.291  14.130   6.856  0.0714 -0.0601  0.0239
  832YOPS   C2B12480  10.298  14.221   7.377  0.3490 -0.0056  0.0680
  832YOPS   D3B12481  10.519  14.020   7.574  0.0849 -0.1858 -0.2275
  832YOPS   C4B12482  10.983  14.073   7.503 -0.0624  0.0940 -0.0763
  833YOPS   CNO12483  12.705   5.146   5.361  0.2817 -0.1743  0.1385
  833YOPS   PO412484  12.451   5.118   5.818 -0.0994 -0.0712 -0.0008
  833YOPS   GL112485  12.489   5.409   6.189  0.3055  0.0377  0.0750
  833YOPS   GL212486  12.314   5.512   6.309  0.2296 -0.0819 -0.3012
  833YOPS   C1A12487  12.738   5.775   6.518  0.0420 -0.0208  0.0674
  833YOPS   D2A12488  13.123   5.577   6.822  0.0674  0.1195  0.1369
  833YOPS   C3A12489  13.530   5.296   6.653 -0.3664  0.2833 -0.1481
  833YOPS   C4A12490  13.518   5.111   6.261  0.0743 -0.1008  0.0251
  833YOPS   C1B12491  12.309   5.653   6.740  0.0496  0.0512 -0.2324
  833YOPS   C2B12492  12.213   5.758   7.099  0.1645  0.2209 -0.2797
  833YOPS   D3B12493  12.146   5.795   7.486 -0.0125 -0.1942 -0.1158
  833YOPS   C4B12494  11.863   5.583   7.764  0.1586  0.1684  0.2210
  834YOPS   CNO12495   5.050  17.187   4.729  0.0111 -0.4248  0.0873
  834YOPS   PO412496   5.158  17.399   5.161 -0.0545 -0.1155 -0.1032
  834YOPS   GL112497   5.182  17.363   5.634  0.3900  0.4236  0.1889
  834YOPS   GL212498   5.327  17.597   5.647 -0.1569 -0.0773 -0.0083
  834YOPS   C1A12499   5.271  17.375   6.125 -0.0160 -0.1795  0.3706
  834YOPS   D2A12500   5.237  17.480   6.600  0.1138 -0.0263 -0.2025
  834YOPS   C3A12501   5.090  17.476   6.968 -0.1051  0.2262  0.1550
  834YOPS   C4A12502   5.140  17.155   7.310  0.0485  0.0868  0.2754
  834YOPS   C1B12503   5.271  17.967   5.981  0.1868 -0.0174 -0.0986
  834YOPS   C2B12504   5.162  17.876   6.382  0.0433  0.2539 -0.1709
  834YOPS   D3B12505   5.040  18.007   6.795  0.0384  0.2390  0.0568
  834YOPS   C4B12506   4.752  17.860   7.076 -0.1046  0.3086  0.0290
  835YOPS   CNO12507  13.829   9.258   5.588  0.1413  0.1619 -0.5514
  835YOPS   PO412508  14.299   9.189   5.610  0.0907 -0.1438  0.0690
  835YOPS   GL112509  14.332   9.187   6.055  0.1385 -0.3085  0.1854
  835YOPS   GL212510  14.484   8.989   6.134 -0.0283 -0.2994  0.0544
  835YOPS   C1A12511  14.401   9.397   6.354 -0.2641  0.0008  0.1429
  835YOPS   D2A12512  14.380   9.462   6.751 -0.1454  0.3242 -0.0442
  835YOPS   C3A12513  14.225   9.804   6.997  0.1624  0.1622  0.2241
  835YOPS   C4A12514  14.226  10.201   6.755 -0.0508  0.1235 -0.3082
  835YOPS   C1B12515  14.597   8.878   6.527  0.1426 -0.0359  0.1213
  835YOPS   C2B12516  14.621   8.871   6.961  0.0815  0.1397 -0.2809
  835YOPS   D3B12517  14.768   9.086   7.422  0.0192 -0.2284 -0.1025
  835YOPS   C4B12518  14.979   9.288   7.851  0.0711 -0.0753  0.0398
  836YOPS   CNO12519  10.610  10.072   5.647  0.5242  0.1534  0.0268
  836YOPS   PO412520  10.820   9.758   5.762 -0.0090  0.2428  0.1063
  836YOPS   GL112521  11.099   9.726   6.167 -0.0762  0.1169 -0.4509
  836YOPS   GL212522  11.065   9.397   6.123 -0.0063 -0.1877  0.3878
  836YOPS   C1A12523  11.325   9.793   6.572  0.1559  0.0409  0.3131
  836YOPS   D2A12524  11.285   9.591   6.930 -0.1131 -0.0845 -0.0319
  836YOPS   C3A12525  11.189   9.474   7.256  0.0475 -0.1341 -0.1683
  836YOPS   C4A12526  11.217   9.767   7.502 -0.0079  0.1264  0.0126
  836YOPS   C1B12527  11.091   9.287   6.570 -0.2379 -0.1285  0.1976
  836YOPS   C2B12528  10.861   9.243   6.912 -0.0449 -0.1728 -0.0772
  836YOPS   D3B12529  10.884   9.108   7.237  0.1563 -0.1947 -0.2061
  836YOPS   C4B12530  10.875   9.385   7.653 -0.0267 -0.0370 -0.2734
  837YOPS   CNO12531  16.889  14.313   5.551  0.0056 -0.1462 -0.1041
  837YOPS   PO412532  16.884  14.175   5.938  0.0926 -0.0981 -0.3046
  837YOPS   GL112533  16.709  13.824   6.159 -0.1047 -0.0847  0.2059
  837YOPS   GL212534  16.522  14.009   6.449  0.2064 -0.1842 -0.1706
  837YOPS   C1A12535  16.924  13.726   6.524 -0.1441 -0.0962  0.1767
  837YOPS   D2A12536  16.966  13.911   6.940  0.1805  0.2175 -0.3025
  837YOPS   C3A12537  16.801  14.251   7.130  0.0517  0.0229  0.1510
  837YOPS   C4A12538  16.576  14.282   7.566 -0.3877 -0.1657  0.2682
  837YOPS   C1B12539  16.383  13.977   6.823  0.0604  0.1614  0.1456
  837YOPS   C2B12540  16.243  14.207   7.172  0.2804 -0.1076  0.3364
  837YOPS   D3B12541  15.958  14.195   7.497 -0.1218  0.2032 -0.0449
  837YOPS   C4B12542  15.871  13.823   7.746  0.0273  0.1108 -0.0845
  838YOPS   CNO12543  18.384  12.889   5.433 -0.0792 -0.2062  0.1063
  838YOPS   PO412544  18.372  12.536   5.356  0.0476  0.1362 -0.1948
  838YOPS   GL112545  18.484  12.464   5.747  0.0154 -0.3184  0.2829
  838YOPS   GL212546  18.844  12.301   5.645 -0.1929  0.0344  0.1383
  838YOPS   C1A12547  18.508  12.219   6.108 -0.1772  0.0964  0.1486
  838YOPS   D2A12548  18.853  12.026   6.123 -0.1127 -0.0277  0.0870
  838YOPS   C3A12549  19.070  11.590   6.191 -0.0282 -0.0737  0.1449
  838YOPS   C4A12550  19.400  11.474   6.502  0.1778 -0.0581  0.0166
  838YOPS   C1B12551  18.979  12.490   6.012 -0.0005  0.1902 -0.1410
  838YOPS   C2B12552  18.743  12.538   6.396  0.1999 -0.0311  0.3248
  838YOPS   D3B12553  18.497  12.649   6.765  0.0052 -0.1546 -0.3488
  838YOPS   C4B12554  18.067  12.667   6.797  0.0340  0.2961 -0.3276
  839YOPS   CNO12555  10.030   6.816   5.454 -0.2537 -0.1459  0.0717
  839YOPS   PO412556  10.135   6.973   5.843  0.1931  0.0754  0.0438
  839YOPS   GL112557   9.828   7.044   6.147  0.4195 -0.0276 -0.0271
  839YOPS   GL212558   9.670   7.276   6.062  0.1021  0.1398 -0.2026
  839YOPS   C1A12559   9.848   7.275   6.498  0.2642 -0.0385 -0.1303
  839YOPS   D2A12560  10.054   7.380   6.946 -0.4151  0.0160 -0.2002
  839YOPS   C3A12561   9.928   7.256   7.363 -0.0100  0.0841 -0.1948
  839YOPS   C4A12562   9.957   7.088   7.698 -0.0162  0.2612 -0.0674
  839YOPS   C1B12563  10.075   7.504   6.152  0.1628 -0.1023 -0.1086
  839YOPS   C2B12564  10.280   7.694   6.440  0.0267 -0.0468 -0.0975
  839YOPS   D3B12565  10.550   7.994   6.550 -0.1384 -0.1324  0.2582
  839YOPS   C4B12566  10.700   8.201   6.932 -0.0066 -0.0124 -0.0056
  840YOPS   CNO12567  10.105  14.172   5.954  0.0814 -0.3060  0.5160
  840YOPS   PO412568   9.945  13.783   6.205 -0.4238 -0.2381  0.0479
  840YOPS   GL112569   9.934  13.874   6.710  0.0652  0.1643  0.2667
  840YOPS   GL212570   9.826  13.643   6.751 -0.0366  0.4644 -0.0969
  840YOPS   C1A12571   9.948  13.880   7.155 -0.1180  0.0515 -0.2169
  840YOPS   D2A12572  10.041  13.908   7.603  0.2876  0.2547  0.2014
  840YOPS   C3A12573  10.011  14.147   7.867  0.1267 -0.1267  0.0936
  840YOPS   C4A12574  10.332  14.265   8.068 -0.1225 -0.1936 -0.1409
  840YOPS   C1B12575   9.498  13.393   6.768  0.2231 -0.1571 -0.1075
  840YOPS   C2B12576   9.150  13.179   6.924 -0.2929  0.1037  0.0602
  840YOPS   D3B12577   8.818  12.961   7.236 -0.1243  0.2259  0.0758
  840YOPS   C4B12578   9.019  12.778   7.536 -0.0192 -0.4048 -0.1914
  841POPE   NH312579  11.864  13.066   5.883 -0.0011  0.1849 -0.0373
  841POPE   PO412580  11.522  13.269   5.697 -0.0114 -0.0029 -0.0531
  841POPE   GL112581  11.655  13.427   6.137 -0.1903 -0.1854 -0.0215
  841POPE   GL212582  11.741  13.188   6.324 -0.1590 -0.0294  0.1400
  841POPE   C1A12583  11.770  13.783   6.416 -0.2360 -0.0707 -0.3257
  841POPE   D2A12584  12.059  14.144   6.459 -0.0225  0.1146 -0.5272
  841POPE   C3A12585  12.089  14.505   6.595  0.2067  0.0131 -0.0851
  841POPE   C4A12586  12.274  14.780   6.427 -0.1657 -0.0068 -0.0383
  841POPE   C1B12587  11.700  13.272   6.678 -0.0160  0.1616 -0.1608
  841POPE   C2B12588  11.686  13.302   7.162  0.0025 -0.0646  0.0585
  841POPE   C3B12589  11.586  13.315   7.598 -0.0232  0.0149 -0.2385
  841POPE   C4B12590  11.430  13.302   7.984 -0.2952  0.2890 -0.2652
  842POPE   NH312591   4.315  16.795   5.060  0.4131 -0.2366 -0.0194
  842POPE   PO412592   3.815  16.822   5.136  0.1819  0.0642  0.1650
  842POPE   GL112593   4.063  16.570   5.455 -0.0294 -0.3118 -0.2227
  842POPE   GL212594   4.242  16.759   5.563  0.0331 -0.1369  0.1179
  842POPE   C1A12595   3.975  16.485   5.925  0.3476 -0.0078 -0.0047
  842POPE   D2A12596   4.002  16.658   6.270 -0.0199  0.1020  0.1014
  842POPE   C3A12597   3.812  16.508   6.650  0.1219 -0.1806 -0.4853
  842POPE   C4A12598   3.440  16.275   6.704  0.1235 -0.0526 -0.0007
  842POPE   C1B12599   4.466  16.621   5.972  0.5276  0.0360  0.1119
  842POPE   C2B12600   4.514  16.510   6.389 -0.1258 -0.0886  0.1937
  842POPE   C3B12601   4.246  16.797   6.679 -0.1637 -0.0030 -0.0526
  842POPE   C4B12602   4.258  17.132   7.002 -0.0266  0.2366 -0.0125
  843POPE   NH312603   8.055  14.624   5.736 -0.0266  0.1379 -0.1167
  843POPE   PO412604   7.998  14.125   5.708  0.1805  0.0530  0.2862
  843POPE   GL112605   8.066  14.289   6.090 -0.0536 -0.0479  0.0174
  843POPE   GL212606   8.120  14.569   6.216 -0.2047  0.2636 -0.0857
  843POPE   C1A12607   7.704  14.394   6.440 -0.1179 -0.0548 -0.2647
  843POPE   D2A12608   7.449  14.518   6.803  0.2967 -0.0894  0.2905
  843POPE   C3A12609   7.035  14.644   6.740  0.0077 -0.3269 -0.0076
  843POPE   C4A12610   6.779  14.798   6.412  0.0935 -0.0863 -0.0266
  843POPE   C1B12611   8.274  14.338   6.665 -0.2185  0.0202  0.2760
  843POPE   C2B12612   8.386  14.312   7.043 -0.0520  0.1893 -0.0438
  843POPE   C3B12613   8.478  14.408   7.332  0.0318  0.2179 -0.0305
  843POPE   C4B12614   8.586  14.454   7.740 -0.0326 -0.0185 -0.1151
  844POPE   NH312615   2.458  14.798   5.007 -0.2971  0.2154 -0.0222
  844POPE   PO412616   2.361  15.168   4.759  0.0954 -0.0716 -0.4940
  844POPE   GL112617   2.424  15.284   5.257  0.0266 -0.1332  0.0135
  844POPE   GL212618   2.547  15.709   5.287  0.3373 -0.1276 -0.0869
  844POPE   C1A12619   2.066  15.329   5.561 -0.3114 -0.0073 -0.1126
  844POPE   D2A12620   1.809  15.127   5.908 -0.0195 -0.1952 -0.0964
  844POPE   C3A12621   1.829  15.211   6.337 -0.3217  0.3024 -0.1446
  844POPE   C4A12622   2.217  15.281   6.446 -0.0979 -0.1093  0.1089
  844POPE   C1B12623   2.338  15.763   5.663  0.0774  0.1543 -0.2312
  844POPE   C2B12624   2.138  15.542   5.987  0.0214 -0.0970 -0.1648
  844POPE   C3B12625   1.870  15.718   6.253  0.0564 -0.0476  0.0786
  844POPE   C4B12626   1.725  16.157   6.194 -0.1841  0.0038 -0.0119
  845POPE   NH312627   6.250  15.788   5.956 -0.0251 -0.3020 -0.0613
  845POPE   PO412628   6.458  16.122   5.790 -0.2248  0.2261 -0.3884
  845POPE   GL112629   6.420  16.209   6.172  0.0988 -0.0572 -0.1102
  845POPE   GL212630   6.722  16.360   6.197  0.1012  0.0479  0.3392
  845POPE   C1A12631   6.162  16.246   6.499  0.1345  0.2372  0.1722
  845POPE   D2A12632   5.720  15.994   6.684 -0.0874 -0.1026 -0.1282
  845POPE   C3A12633   5.594  15.950   7.085  0.2284 -0.0876 -0.1801
  845POPE   C4A12634   5.500  16.139   7.506 -0.2452  0.0687 -0.0983
  845POPE   C1B12635   6.730  16.139   6.593  0.1689 -0.0752  0.1897
  845POPE   C2B12636   6.574  16.050   6.956 -0.1360  0.0146 -0.2973
  845POPE   C3B12637   6.454  15.721   7.252  0.1030  0.3294 -0.0709
  845POPE   C4B12638   6.559  15.674   7.641 -0.0581 -0.1215  0.1871
  846POPE   NH312639   4.817   9.356   4.861 -0.1171  0.2206  0.1297
  846POPE   PO412640   4.339   8.981   4.959 -0.1302  0.0812 -0.2432
  846POPE   GL112641   4.433   9.305   5.368  0.0401 -0.1789  0.0816
  846POPE   GL212642   4.283   9.139   5.567  0.0316 -0.1864  0.2231
  846POPE   C1A12643   4.704   9.566   5.692 -0.0203 -0.1235 -0.0617
  846POPE   D2A12644   5.031   9.836   5.591  0.2680 -0.1538  0.0769
  846POPE   C3A12645   5.355  10.046   5.750  0.0092 -0.0585  0.1894
  846POPE   C4A12646   5.723  10.252   5.782 -0.0553 -0.1554 -0.0694
  846POPE   C1B12647   4.515   9.114   5.986 -0.1143 -0.1059 -0.4204
  846POPE   C2B12648   4.696   8.937   6.364 -0.0361  0.4623 -0.0565
  846POPE   C3B12649   4.536   8.739   6.695 -0.0573  0.3364 -0.3240
  846POPE   C4B12650   4.546   8.856   7.138 -0.1443  0.0172 -0.0399
  847POPE   NH312651  12.907   4.348   5.426  0.1064  0.2009  0.0831
  847POPE   PO412652  13.009   4.294   5.794  0.1068  0.0303  0.0538
  847POPE   GL112653  12.979   4.132   6.102  0.2296 -0.2946 -0.0498
  847POPE   GL212654  13.273   4.244   6.297 -0.0684  0.1391  0.0666
  847POPE   C1A12655  12.991   3.781   6.361  0.2071  0.2081  0.1877
  847POPE   D2A12656  13.001   3.651   6.791  0.0099  0.2183  0.1763
  847POPE   C3A12657  12.988   3.851   7.152  0.0299  0.0136  0.1552
  847POPE   C4A12658  12.766   3.954   7.591  0.3283 -0.0056 -0.0344
  847POPE   C1B12659  13.206   4.147   6.726 -0.1101  0.0879 -0.2778
  847POPE   C2B12660  13.452   3.947   7.039 -0.0994  0.2592  0.2430
  847POPE   C3B12661  13.856   3.829   7.000 -0.0131  0.3823  0.0988
  847POPE   C4B12662  14.090   3.395   7.040 -0.0142 -0.2215  0.0915
  848POPE   NH312663   2.597   9.920   5.465  0.1085  0.0565  0.2367
  848POPE   PO412664   2.150   9.982   5.215 -0.2843  0.2418  0.1060
  848POPE   GL112665   2.175  10.010   5.702  0.2384  0.1052  0.1848
  848POPE   GL212666   2.486  10.285   5.778 -0.0166  0.0313 -0.2914
  848POPE   C1A12667   2.063  10.206   6.038 -0.1242  0.2291 -0.0352
  848POPE   D2A12668   1.562  10.236   5.924  0.0071  0.1545 -0.0812
  848POPE   C3A12669   1.307  10.455   6.176  0.1913  0.0599  0.4186
  848POPE   C4A12670   1.351  10.544   6.585  0.0729 -0.2123 -0.2561
  848POPE   C1B12671   2.768  10.556   6.038  0.3591  0.0062 -0.0699
  848POPE   C2B12672   2.690  10.793   6.281 -0.0669  0.2163  0.0869
  848POPE   C3B12673   2.461  11.175   6.308  0.0311  0.1082  0.1356
  848POPE   C4B12674   2.341  11.653   6.412 -0.0243  0.2574 -0.0396
  849POPE   NH312675   0.767  11.012   5.577  0.0708  0.2772  0.3373
  849POPE   PO412676   0.911  10.623   5.520 -0.0693 -0.2816 -0.1690
  849POPE   GL112677   0.858  10.606   5.984  0.0535 -0.0567 -0.1528
  849POPE   GL212678   0.512  10.424   6.028  0.2349 -0.0503 -0.2473
  849POPE   C1A12679   0.669  10.644   6.444  0.0559 -0.0966 -0.0815
  849POPE   D2A12680   0.901  10.585   6.829  0.1369  0.0731 -0.0085
  849POPE   C3A12681   1.284  10.843   6.962 -0.0716 -0.1916 -0.1276
  849POPE   C4A12682   1.588  11.068   7.064  0.2621  0.3246  0.0970
  849POPE   C1B12683   0.370  10.266   6.417  0.0359 -0.0083 -0.2422
  849POPE   C2B12684   0.399  10.388   6.788  0.2789  0.0052 -0.6696
  849POPE   C3B12685   0.326  10.184   7.141 -0.0545 -0.0576 -0.1179
  849POPE   C4B12686   0.392   9.819   7.422 -0.0331 -0.0377  0.4982
  850POPE   NH312687   2.808   7.748   5.131  0.1846 -0.2494 -0.2643
  850POPE   PO412688   3.211   7.958   5.240  0.0853  0.0917 -0.1910
  850POPE   GL112689   3.580   7.690   5.367 -0.0770  0.0845  0.0705
  850POPE   GL212690   3.599   7.425   5.455 -0.0837 -0.2529 -0.0529
  850POPE   C1A12691   4.047   7.639   5.703  0.0051 -0.0658  0.1016
  850POPE   D2A12692   4.290   7.778   6.035 -0.0022  0.0001 -0.1441
  850POPE   C3A12693   4.255   7.618   6.345  0.0206  0.0374  0.0986
  850POPE   C4A12694   4.120   7.299   6.678 -0.0343  0.3582  0.0249
  850POPE   C1B12695   3.447   7.590   5.938  0.1256  0.0505 -0.0919
  850POPE   C2B12696   3.456   7.458   6.385  0.1342  0.2482 -0.0358
  850POPE   C3B12697   3.761   7.629   6.676  0.0152  0.0301  0.2204
  850POPE   C4B12698   3.792   7.763   7.116 -0.1697  0.1362 -0.0255
  851POPE   NH312699  16.656   2.870   5.626 -0.0882 -0.2031  0.0972
  851POPE   PO412700  16.779   2.516   5.628 -0.1081  0.1520  0.3158
  851POPE   GL112701  16.687   2.643   6.050 -0.1774 -0.2552  0.1623
  851POPE   GL212702  16.938   2.820   6.043 -0.1271 -0.1295 -0.0319
  851POPE   C1A12703  16.493   2.369   6.347  0.2646 -0.4636  0.1647
  851POPE   D2A12704  16.325   2.340   6.674  0.0095  0.0228 -0.1074
  851POPE   C3A12705  16.340   2.294   7.110 -0.1213  0.1748  0.1250
  851POPE   C4A12706  16.360   2.331   7.501 -0.2223 -0.0480  0.2053
  851POPE   C1B12707  16.969   2.839   6.499 -0.3557 -0.1305  0.3274
  851POPE   C2B12708  17.224   2.816   6.862 -0.2708  0.3109 -0.0822
  851POPE   C3B12709  17.214   2.839   7.334 -0.0503 -0.0039 -0.1080
  851POPE   C4B12710  16.989   2.764   7.683 -0.0663  0.0806 -0.1378
  852POPE   NH312711  10.154   4.742   5.265 -0.1873  0.0433 -0.0802
  852POPE   PO412712  10.222   4.359   5.503  0.1714 -0.1794  0.0775
  852POPE   GL112713  10.103   4.182   5.890  0.1647 -0.1211  0.1880
  852POPE   GL212714   9.882   3.918   5.946 -0.1521 -0.0299  0.2294
  852POPE   C1A12715  10.172   4.096   6.325  0.3040  0.0338  0.0850
  852POPE   D2A12716   9.995   3.912   6.658 -0.0744 -0.0449 -0.0202
  852POPE   C3A12717   9.723   4.123   6.968  0.0374  0.1648 -0.2756
  852POPE   C4A12718   9.681   4.062   7.471 -0.1505 -0.1399 -0.1817
  852POPE   C1B12719   9.765   3.639   6.248 -0.2628 -0.1144  0.1511
  852POPE   C2B12720   9.717   3.482   6.716  0.2843 -0.0745  0.1446
  852POPE   C3B12721   9.682   3.642   7.010  0.1116  0.1889 -0.2963
  852POPE   C4B12722   9.476   3.622   7.454 -0.0336 -0.0321 -0.1495
  853POPE   NH312723  10.757  18.340   5.845 -0.0133  0.3694  0.1404
  853POPE   PO412724  10.256  18.423   5.750  0.1052  0.1309  0.2382
  853POPE   GL112725  10.203  18.396   6.186 -0.0751  0.0993  0.0931
  853POPE   GL212726  10.011  18.718   6.251  0.0568  0.1699 -0.0689
  853POPE   C1A12727  10.362  18.436   6.595  0.1208  0.2393  0.2448
  853POPE   D2A12728  10.041  18.258   6.964 -0.1456  0.0188 -0.2863
  853POPE   C3A12729   9.610  18.388   6.899  0.1859 -0.1912  0.0482
  853POPE   C4A12730   9.284  18.489   6.905  0.2586  0.1268 -0.0697
  853POPE   C1B12731  10.077  18.823   6.693 -0.3576  0.1229 -0.1744
  853POPE   C2B12732  10.008  18.808   7.189  0.0242 -0.3913  0.1501
  853POPE   C3B12733   9.888  18.525   7.432 -0.1660 -0.0890 -0.3045
  853POPE   C4B12734   9.798  18.232   7.729  0.0031 -0.0050  0.0774
  854POPE   NH312735   6.457  11.888   5.660 -0.0101  0.1809 -0.0250
  854POPE   PO412736   6.057  12.183   5.670 -0.2625  0.0818 -0.0748
  854POPE   GL112737   6.316  12.419   5.878 -0.4006  0.0474 -0.1479
  854POPE   GL212738   6.490  12.172   6.161  0.0863  0.0707  0.3860
  854POPE   C1A12739   6.216  12.753   6.158  0.0093 -0.0483  0.0512
  854POPE   D2A12740   6.312  13.019   6.400  0.0617 -0.4616 -0.2405
  854POPE   C3A12741   6.200  12.961   6.803  0.1067  0.1891 -0.1141
  854POPE   C4A12742   6.174  12.846   7.312 -0.0040 -0.1255 -0.1704
  854POPE   C1B12743   6.440  12.037   6.475  0.1992  0.1447  0.2393
  854POPE   C2B12744   6.206  12.120   6.787  0.5236  0.1962  0.0824
  854POPE   C3B12745   5.961  12.202   7.142 -0.1771 -0.6302  0.1668
  854POPE   C4B12746   6.132  12.379   7.506  0.0381 -0.0482  0.2191
  855POPE   NH312747  15.513  12.180   5.922 -0.3603  0.0513 -0.2221
  855POPE   PO412748  15.149  11.942   5.958  0.0087  0.1180  0.0931
  855POPE   GL112749  15.326  11.966   6.386 -0.0780 -0.1384  0.0975
  855POPE   GL212750  15.287  12.274   6.377  0.0420 -0.0072  0.0886
  855POPE   C1A12751  15.384  11.731   6.697 -0.1641  0.3096 -0.2390
  855POPE   D2A12752  15.392  11.484   7.053  0.1314 -0.1726 -0.0469
  855POPE   C3A12753  15.422  11.054   7.237  0.2594 -0.0280 -0.1550
  855POPE   C4A12754  15.695  10.726   7.371 -0.0935  0.0483 -0.3726
  855POPE   C1B12755  15.300  12.469   6.732  0.1630  0.3772 -0.1759
  855POPE   C2B12756  15.194  12.424   7.208 -0.0308  0.1922 -0.1652
  855POPE   C3B12757  15.369  12.314   7.653 -0.0700  0.1112  0.1398
  855POPE   C4B12758  15.672  12.460   7.976 -0.1924 -0.0659 -0.1016
  856POPE   NH312759  11.726  17.014   5.944 -0.0397 -0.2022 -0.1383
  856POPE   PO412760  11.435  16.810   5.697 -0.2342 -0.0242  0.2237
  856POPE   GL112761  11.238  16.868   6.136  0.0209  0.0469 -0.1817
  856POPE   GL212762  11.504  16.862   6.363 -0.0023  0.1252  0.0183
  856POPE   C1A12763  10.999  16.991   6.528  0.0997 -0.0737  0.3614
  856POPE   D2A12764  10.885  16.917   6.884  0.0259  0.0296 -0.1326
  856POPE   C3A12765  10.491  16.659   7.002 -0.2730 -0.2735 -0.0993
  856POPE   C4A12766  10.181  16.757   7.399 -0.2454 -0.1737  0.1328
  856POPE   C1B12767  11.457  17.118   6.696 -0.1740  0.1782  0.1272
  856POPE   C2B12768  11.342  17.143   7.074 -0.1961 -0.1109  0.0429
  856POPE   C3B12769  11.167  16.798   7.330  0.0074  0.0516 -0.2260
  856POPE   C4B12770  10.731  16.727   7.421  0.0459  0.1173  0.1161
  857POPE   NH312771  12.470   1.939   5.914 -0.0238  0.0520 -0.0889
  857POPE   PO412772  12.097   1.922   6.152 -0.2772 -0.0546  0.0166
  857POPE   GL112773  11.835   1.712   6.468  0.0279 -0.0392 -0.1067
  857POPE   GL212774  12.093   1.862   6.678  0.0670  0.2083 -0.2950
  857POPE   C1A12775  11.582   1.633   6.802  0.1665  0.0012 -0.2735
  857POPE   D2A12776  11.529   1.317   7.071  0.1707 -0.0214  0.0398
  857POPE   C3A12777  11.550   1.444   7.449 -0.0223  0.0070  0.3177
  857POPE   C4A12778  11.464   1.580   7.900  0.0815 -0.1790 -0.0047
  857POPE   C1B12779  12.465   1.836   6.907  0.0083  0.0897  0.0049
  857POPE   C2B12780  12.598   1.821   7.380  0.2118 -0.2896  0.1770
  857POPE   C3B12781  12.443   2.085   7.624 -0.0765 -0.3599 -0.0620
  857POPE   C4B12782  12.472   2.373   8.041  0.1807 -0.3868 -0.0035
  858POPE   NH312783  16.361  10.013   5.813 -0.1881 -0.1274  0.0734
  858POPE   PO412784  16.828  10.167   5.776  0.0279 -0.0094  0.0310
  858POPE   GL112785  16.773   9.821   6.081 -0.0876 -0.0426  0.0355
  858POPE   GL212786  16.943   9.525   6.094 -0.1423  0.3161 -0.2961
  858POPE   C1A12787  16.668   9.672   6.539 -0.2014 -0.0424  0.5149
  858POPE   D2A12788  16.796   9.728   6.958  0.0549 -0.0697 -0.0327
  858POPE   C3A12789  16.622  10.037   7.206 -0.0821 -0.0701 -0.3107
  858POPE   C4A12790  16.497  10.293   7.569 -0.0168  0.3340  0.0468
  858POPE   C1B12791  17.151   9.437   6.492  0.1422 -0.2361 -0.0426
  858POPE   C2B12792  17.191   9.449   6.847  0.0136 -0.0840  0.0008
  858POPE   C3B12793  17.225   9.520   7.281  0.0362 -0.1390 -0.0855
  858POPE   C4B12794  17.186   9.380   7.584 -0.0630 -0.0837 -0.0247
  859POPE   NH312795   0.517   1.979   5.422 -0.0219 -0.0648 -0.1798
  859POPE   PO412796   0.728   2.303   5.497 -0.1384  0.0866  0.1449
  859POPE   GL112797   0.682   2.532   5.748  0.1476 -0.0049  0.4563
  859POPE   GL212798   0.940   2.551   6.003  0.1031 -0.0170  0.3033
  859POPE   C1A12799   0.658   2.928   6.034 -0.0198  0.0938  0.4679
  859POPE   D2A12800   0.239   3.143   6.334  0.1074  0.1498  0.1129
  859POPE   C3A12801   0.170   3.094   6.693  0.0540 -0.0453 -0.1223
  859POPE   C4A12802   0.195   2.742   6.967 -0.0558 -0.0279 -0.0184
  859POPE   C1B12803   0.980   2.665   6.339  0.0453 -0.0027  0.4811
  859POPE   C2B12804   0.937   2.746   6.788 -0.1108 -0.0781 -0.0223
  859POPE   C3B12805   0.799   2.758   7.179  0.1918  0.1861  0.0669
  859POPE   C4B12806   0.505   2.895   7.426  0.0739  0.2798 -0.1119
  860POPE   NH312807  13.177  13.213   5.733  0.3201  0.0259  0.2956
  860POPE   PO412808  13.087  13.540   6.052  0.1402  0.0344  0.3879
  860POPE   GL112809  13.062  13.626   6.431  0.0037  0.0120 -0.0993
  860POPE   GL212810  13.059  14.006   6.419  0.1888  0.0462  0.0908
  860POPE   C1A12811  13.097  13.705   6.922 -0.2508  0.2715 -0.0803
  860POPE   D2A12812  12.944  13.973   7.177 -0.0688 -0.2065  0.1264
  860POPE   C3A12813  12.700  13.943   7.521 -0.1897 -0.0752  0.1445
  860POPE   C4A12814  12.468  14.285   7.763  0.0396  0.0650  0.1245
  860POPE   C1B12815  13.446  13.993   6.742  0.1147 -0.4418  0.0312
  860POPE   C2B12816  13.603  13.727   6.957  0.0882 -0.1490  0.0678
  860POPE   C3B12817  13.980  13.687   7.008  0.0583 -0.1572 -0.1219
  860POPE   C4B12818  14.238  13.537   7.267  0.1438 -0.5066 -0.1290
  861POPE   NH312819   6.894  12.353   5.875  0.1105 -0.0924  0.1453
  861POPE   PO412820   7.215  12.125   5.960 -0.0347  0.2220 -0.0972
  861POPE   GL112821   6.913  12.224   6.398 -0.1191  0.0883 -0.1314
  861POPE   GL212822   7.210  12.201   6.600 -0.0215  0.1171  0.1706
  861POPE   C1A12823   6.783  12.066   6.825 -0.2344  0.1020 -0.0328
  861POPE   D2A12824   6.910  11.768   7.312 -0.0349 -0.4417  0.1241
  861POPE   C3A12825   7.153  11.648   7.616  0.1855 -0.2070 -0.2094
  861POPE   C4A12826   7.203  11.466   7.973 -0.1490 -0.0135 -0.2084
  861POPE   C1B12827   7.102  12.492   6.822 -0.0753 -0.0275  0.0208
  861POPE   C2B12828   7.136  12.623   7.255  0.0635 -0.1581 -0.0147
  861POPE   C3B12829   7.471  12.823   7.619 -0.2027  0.2320  0.0745
  861POPE   C4B12830   7.521  13.134   7.980 -0.1896 -0.1280 -0.0234
  862POPE   NH312831  16.716  16.096   5.954  0.2273 -0.0523 -0.0971
  862POPE   PO412832  16.247  15.929   5.970  0.1130  0.1253  0.1366
  862POPE   GL112833  16.121  15.995   6.356  0.0414 -0.0463  0.0713
  862POPE   GL212834  15.820  16.119   6.396 -0.0941  0.2225 -0.3713
  862POPE   C1A12835  16.142  15.843   6.703 -0.0061  0.0216 -0.3418
  862POPE   D2A12836  16.206  15.956   7.106  0.0618  0.1129 -0.3535
  862POPE   C3A12837  16.180  15.786   7.560 -0.0708 -0.0203  0.3813
  862POPE   C4A12838  16.319  15.671   7.915  0.1800  0.2206  0.2867
  862POPE   C1B12839  15.766  16.030   6.911 -0.0085  0.3514  0.1758
  862POPE   C2B12840  15.812  15.675   7.252  0.1391 -0.1820 -0.4069
  862POPE   C3B12841  15.848  15.301   7.585  0.2083  0.2663 -0.1326
  862POPE   C4B12842  16.048  15.027   7.840  0.0459  0.1069 -0.1401
  863POPE   NH312843   7.646  11.997   5.794 -0.3075 -0.2432  0.1173
  863POPE   PO412844   7.740  12.389   5.947  0.2585 -0.0672  0.0587
  863POPE   GL112845   7.628  12.160   6.292  0.1451 -0.0866 -0.1616
  863POPE   GL212846   7.460  11.859   6.275  0.2480 -0.1815 -0.0216
  863POPE   C1A12847   7.613  11.990   6.770 -0.0439 -0.0260  0.0760
  863POPE   D2A12848   7.793  11.938   7.141 -0.0508 -0.1851  0.1260
  863POPE   C3A12849   7.600  11.932   7.548 -0.1269  0.0224 -0.0381
  863POPE   C4A12850   7.583  11.940   7.936 -0.0873  0.2892  0.1244
  863POPE   C1B12851   7.673  11.461   6.563 -0.0494  0.0568  0.2383
  863POPE   C2B12852   7.537  11.106   6.913  0.1632 -0.1385 -0.0006
  863POPE   C3B12853   7.739  10.774   7.040  0.0902  0.0641 -0.2088
  863POPE   C4B12854   7.941  10.330   7.197 -0.0222 -0.1877 -0.3453
  864POPE   NH312855  16.779  10.673   5.648  0.0001 -0.2637  0.3360
  864POPE   PO412856  16.947  10.679   6.001 -0.1857 -0.0485 -0.1138
  864POPE   GL112857  17.078  10.259   6.245  0.1104 -0.1315 -0.0498
  864POPE   GL212858  17.115  10.494   6.487 -0.1881  0.1464  0.0179
  864POPE   C1A12859  17.075   9.985   6.618 -0.1637 -0.0714  0.1537
  864POPE   D2A12860  17.215   9.973   7.050  0.0619  0.0020 -0.1332
  864POPE   C3A12861  17.382  10.313   7.349  0.1581  0.1844  0.1780
  864POPE   C4A12862  17.499  10.520   7.643 -0.4218 -0.1990 -0.2071
  864POPE   C1B12863  17.108  10.769   6.764 -0.0698  0.0431  0.3667
  864POPE   C2B12864  17.388  11.104   6.764 -0.1903  0.0707  0.0142
  864POPE   C3B12865  17.668  11.352   6.513  0.0945  0.0199  0.2016
  864POPE   C4B12866  17.691  11.714   6.147  0.3405  0.0167  0.0322
  865POPE   NH312867   9.193   5.549   5.422 -0.2263  0.1702  0.0933
  865POPE   PO412868   8.818   5.535   5.400 -0.0926  0.4923  0.1138
  865POPE   GL112869   8.706   5.513   5.799  0.2802  0.2204 -0.1481
  865POPE   GL212870   8.913   5.724   5.913 -0.0381  0.1005 -0.1514
  865POPE   C1A12871   8.693   5.281   6.098 -0.1286  0.3023 -0.1004
  865POPE   D2A12872   8.764   5.112   6.445  0.1561 -0.0555  0.1838
  865POPE   C3A12873   8.887   5.304   6.801 -0.0141  0.2047 -0.2830
  865POPE   C4A12874   8.677   5.545   7.098 -0.0329 -0.4182 -0.0406
  865POPE   C1B12875   8.951   5.632   6.314  0.1480 -0.0927  0.2804
  865POPE   C2B12876   8.876   5.775   6.701 -0.2955 -0.0577  0.0150
  865POPE   C3B12877   9.139   5.708   7.089  0.1030  0.2394 -0.1868
  865POPE   C4B12878   9.269   5.903   7.430 -0.1562 -0.0468  0.0312
  866POPE   NH312879  11.703   9.976   5.784 -0.1054 -0.0783  0.1361
  866POPE   PO412880  11.283   9.986   5.779 -0.0402 -0.5477 -0.0758
  866POPE   GL112881  11.385  10.157   6.208  0.2944 -0.0324 -0.2106
  866POPE   GL212882  11.277  10.503   6.332 -0.1552  0.0866  0.0175
  866POPE   C1A12883  11.586  10.222   6.630 -0.2067 -0.2378 -0.0972
  866POPE   D2A12884  11.770  10.390   7.022  0.0102 -0.0571 -0.1968
  866POPE   C3A12885  11.891  10.511   7.401 -0.1565 -0.1892  0.0159
  866POPE   C4A12886  11.789  10.434   7.839  0.1170 -0.0139  0.0052
  866POPE   C1B12887  10.929  10.708   6.558  0.0392 -0.1825 -0.0555
  866POPE   C2B12888  10.751  10.539   6.953 -0.1541  0.1251  0.1974
  866POPE   C3B12889  10.894  10.196   7.341 -0.1678 -0.3679 -0.0416
  866POPE   C4B12890  10.961  10.195   7.774 -0.1219  0.1618 -0.3793
  867POPE   NH312891  10.346   7.818   5.475 -0.0654  0.1374  0.1711
  867POPE   PO412892  10.774   7.932   5.449  0.1212 -0.1300  0.0534
  867POPE   GL112893  10.564   8.162   5.815 -0.2175  0.1780 -0.2608
  867POPE   GL212894  10.377   8.464   5.838  0.0513  0.0428  0.0619
  867POPE   C1A12895  10.162   8.119   6.094  0.3436  0.0961  0.1577
  867POPE   D2A12896  10.045   8.305   6.426  0.2285  0.0404  0.0315
  867POPE   C3A12897   9.682   8.264   6.670  0.0414  0.0890  0.0879
  867POPE   C4A12898   9.373   7.950   6.769  0.4838  0.0572 -0.3033
  867POPE   C1B12899  10.213   8.698   6.244  0.0781  0.0052 -0.3322
  867POPE   C2B12900  10.300   9.042   6.494  0.1576 -0.0363 -0.1091
  867POPE   C3B12901   9.896   9.253   6.599  0.3147  0.1214  0.1235
  867POPE   C4B12902   9.493   9.305   6.735 -0.2651  0.0577  0.0099
  868POPE   NH312903   0.612  10.151   5.658 -0.0074  0.2151 -0.0117
  868POPE   PO412904   0.350   9.851   5.833  0.1423 -0.2582 -0.2340
  868POPE   GL112905   0.323   9.474   6.029  0.1507  0.2493 -0.1126
  868POPE   GL212906   0.073   9.208   6.077  0.2070 -0.1544 -0.0566
  868POPE   C1A12907   0.619   9.255   6.207 -0.1858  0.1762 -0.0198
  868POPE   D2A12908   0.799   9.059   6.612 -0.0540  0.0314 -0.1655
  868POPE   C3A12909   0.878   8.676   6.646 -0.0832  0.3495 -0.0600
  868POPE   C4A12910   0.992   8.291   6.914  0.4192 -0.0410  0.1961
  868POPE   C1B12911   0.208   9.146   6.459  0.0886  0.0216 -0.1551
  868POPE   C2B12912   0.256   9.044   6.807 -0.3369  0.0766 -0.0587
  868POPE   C3B12913   0.195   9.211   7.080  0.4095 -0.3366 -0.0233
  868POPE   C4B12914   0.173   9.331   7.509  0.2990  0.1643  0.1587
  869POPE   NH312915  11.295   9.513   5.708  0.1753 -0.1058 -0.1646
  869POPE   PO412916  11.549   9.071   5.867 -0.0120 -0.2325 -0.0018
  869POPE   GL112917  11.790   8.857   6.186  0.0385  0.0656  0.0764
  869POPE   GL212918  11.906   8.513   6.201 -0.1173  0.2290  0.3222
  869POPE   C1A12919  11.932   8.842   6.575  0.0204 -0.3252  0.1780
  869POPE   D2A12920  12.133   8.798   6.962  0.2806  0.1473 -0.0966
  869POPE   C3A12921  12.265   8.339   7.088  0.2631  0.2258 -0.1838
  869POPE   C4A12922  12.274   7.935   7.367 -0.0968 -0.2003  0.0322
  869POPE   C1B12923  12.172   8.365   6.530  0.1844  0.1811 -0.1688
  869POPE   C2B12924  12.365   8.025   6.709  0.0572 -0.1760  0.2300
  869POPE   C3B12925  12.628   7.714   6.371 -0.0311 -0.1198  0.1343
  869POPE   C4B12926  12.935   7.422   6.358  0.3750 -0.2227  0.3329
  870POPE   NH312927  13.040  17.337   6.067 -0.0404  0.0978  0.0881
  870POPE   PO412928  13.084  16.976   6.158  0.0943 -0.1071 -0.0176
  870POPE   GL112929  13.068  16.970   6.565 -0.4625 -0.0083 -0.1130
  870POPE   GL212930  13.310  16.819   6.660  0.0659  0.5307 -0.2927
  870POPE   C1A12931  12.959  17.089   6.959  0.0633 -0.2516 -0.2725
  870POPE   D2A12932  12.892  17.143   7.392  0.0692  0.1942  0.1743
  870POPE   C3A12933  12.589  17.451   7.602 -0.1789 -0.3286  0.2439
  870POPE   C4A12934  12.279  17.698   7.828  0.1973  0.0438  0.1028
  870POPE   C1B12935  13.352  16.773   7.088 -0.1847  0.2163 -0.1614
  870POPE   C2B12936  13.342  16.933   7.507  0.0244 -0.0227  0.2259
  870POPE   C3B12937  13.461  16.980   7.896  0.0862  0.0038  0.0594
  870POPE   C4B12938  13.143  16.927   8.246  0.1775  0.0618 -0.0075
  871YOPE   NH312939  16.874  17.962   5.445  0.2695  0.0155  0.1042
  871YOPE   PO412940  17.262  18.234   5.401 -0.0998 -0.2428 -0.0839
  871YOPE   GL112941  17.408  18.378   5.815  0.0158 -0.0410  0.3635
  871YOPE   GL212942  17.819  18.388   5.821  0.0350  0.2873  0.2186
  871YOPE   C1A12943  17.550  18.718   6.048  0.0463 -0.1022 -0.0227
  871YOPE   D2A12944  17.495  18.924   6.436 -0.1103 -0.1072 -0.1020
  871YOPE   C3A12945  17.655  18.749   6.736  0.1214  0.1189 -0.1161
  871YOPE   C4A12946  17.916  18.606   7.018 -0.0426 -0.0836  0.1885
  871YOPE   C1B12947  17.852  18.291   6.330 -0.2198  0.1865  0.3042
  871YOPE   C2B12948  18.095  18.347   6.613  0.1167  0.1769 -0.2523
  871YOPE   D3B12949  18.356  18.264   6.968 -0.2051 -0.2525  0.2163
  871YOPE   C4B12950  18.720  18.477   7.171 -0.0469  0.0030  0.2151
  872YOPE   NH312951  12.057   7.293   5.805  0.1000  0.1023 -0.2553
  872YOPE   PO412952  12.269   7.759   5.881 -0.1322 -0.0855 -0.1658
  872YOPE   GL112953  12.120   7.937   6.182  0.3857  0.0174 -0.0509
  872YOPE   GL212954  11.821   7.654   6.073 -0.0827  0.0663  0.0980
  872YOPE   C1A12955  11.978   7.690   6.537 -0.1577 -0.2277 -0.3136
  872YOPE   D2A12956  12.285   7.613   6.995  0.1942  0.3704  0.0534
  872YOPE   C3A12957  12.187   7.291   7.191  0.0702 -0.4663 -0.0693
  872YOPE   C4A12958  11.813   7.084   7.251 -0.0869 -0.2720  0.1095
  872YOPE   C1B12959  11.561   7.779   6.393 -0.1690  0.3193  0.1747
  872YOPE   C2B12960  11.492   7.919   6.801 -0.0695  0.2602 -0.0493
  872YOPE   D3B12961  11.506   8.136   7.201  0.1375 -0.4105  0.1566
  872YOPE   C4B12962  11.653   8.470   7.515  0.2506 -0.2954 -0.1012
  873YOPE   NH312963   6.647  17.089   5.682 -0.0033  0.3080 -0.1240
  873YOPE   PO412964   6.910  17.075   5.434 -0.0610 -0.0041  0.0758
  873YOPE   GL112965   7.157  17.148   5.907 -0.3271 -0.2351 -0.1725
  873YOPE   GL212966   7.023  16.926   6.265 -0.1706  0.0038  0.1901
  873YOPE   C1A12967   7.418  17.284   6.233  0.1567  0.1452  0.0333
  873YOPE   D2A12968   7.520  17.527   6.574 -0.1252  0.0356  0.2646
  873YOPE   C3A12969   7.716  17.857   6.750 -0.1183 -0.0158  0.3628
  873YOPE   C4A12970   7.647  18.002   7.208 -0.0953 -0.2792  0.2562
  873YOPE   C1B12971   6.891  16.993   6.734 -0.1248 -0.1893 -0.0294
  873YOPE   C2B12972   6.976  16.789   7.101 -0.0598 -0.1777 -0.0044
  873YOPE   D3B12973   6.685  16.552   7.344 -0.2794  0.1714 -0.2217
  873YOPE   C4B12974   6.702  16.529   7.753  0.1542 -0.0114  0.1779
  874YOPE   NH312975  14.567   5.070   4.767 -0.0757 -0.2574  0.0860
  874YOPE   PO412976  14.783   5.018   5.174  0.3270  0.2445 -0.0421
  874YOPE   GL112977  14.809   5.286   5.523 -0.0994 -0.2201 -0.2289
  874YOPE   GL212978  15.185   5.286   5.691 -0.0508  0.2763  0.2241
  874YOPE   C1A12979  14.428   5.388   5.723  0.1767  0.0337 -0.1538
  874YOPE   D2A12980  14.351   5.363   6.115 -0.1283  0.0287 -0.1886
  874YOPE   C3A12981  14.299   5.701   6.530 -0.0193  0.1119  0.0511
  874YOPE   C4A12982  14.198   5.706   6.971 -0.1321  0.0033  0.1267
  874YOPE   C1B12983  14.867   5.338   6.022  0.0862 -0.0800 -0.3787
  874YOPE   C2B12984  14.777   5.420   6.340  0.1224 -0.1869 -0.1164
  874YOPE   D3B12985  14.580   5.292   6.757  0.1280 -0.2702 -0.1073
  874YOPE   C4B12986  14.230   5.147   6.884  0.0213  0.0174  0.0769
  875YOPE   NH312987   1.667   9.214   4.922 -0.0660 -0.1615 -0.0296
  875YOPE   PO412988   1.713   9.588   5.156  0.2645 -0.1586 -0.1639
  875YOPE   GL112989   1.786   9.465   5.636  0.1761  0.1083 -0.3036
  875YOPE   GL212990   2.053   9.270   5.868 -0.2687 -0.2075 -0.2122
  875YOPE   C1A12991   1.880   9.723   6.013  0.3220  0.0050 -0.0386
  875YOPE   D2A12992   1.986   9.848   6.355 -0.1565 -0.0854 -0.2674
  875YOPE   C3A12993   1.887   9.734   6.898 -0.1187 -0.2197  0.0637
  875YOPE   C4A12994   1.653   9.465   7.214  0.0391 -0.2106  0.1728
  875YOPE   C1B12995   1.954   8.883   6.153 -0.0213  0.2437 -0.0448
  875YOPE   C2B12996   1.620   8.770   6.404  0.0378 -0.2359 -0.3239
  875YOPE   D3B12997   1.441   8.635   6.792  0.0847 -0.0857 -0.2477
  875YOPE   C4B12998   1.403   8.470   7.163  0.1826  0.1307 -0.1052
  876YOPE   NH312999   8.581  17.390   5.694  0.2692  0.0967  0.1471
  876YOPE   PO413000   8.572  17.347   6.086 -0.0121 -0.2633 -0.1998
  876YOPE   GL113001   8.758  17.255   6.435 -0.1283 -0.0025  0.1506
  876YOPE   GL213002   9.007  17.466   6.496 -0.2171  0.0821 -0.0293
  876YOPE   C1A13003   8.912  17.174   6.883  0.2351  0.1564  0.0201
  876YOPE   D2A13004   8.935  17.140   7.322  0.2025  0.2306  0.0769
  876YOPE   C3A13005   8.578  17.159   7.561  0.0462  0.0638 -0.1238
  876YOPE   C4A13006   8.493  17.609   7.650 -0.1095 -0.1740  0.0209
  876YOPE   C1B13007   9.032  17.611   6.892 -0.1044 -0.1429 -0.1135
  876YOPE   C2B13008   9.428  17.856   6.943 -0.2125 -0.3584 -0.3665
  876YOPE   D3B13009   9.721  18.012   7.217  0.1327 -0.1173 -0.0274
  876YOPE   C4B13010   9.998  17.741   7.563  0.1028 -0.3087 -0.1951
  877YOPE   NH313011  11.730  16.397   5.954  0.0631 -0.3042 -0.0644
  877YOPE   PO413012  12.071  16.176   5.768 -0.1770 -0.2221  0.1615
  877YOPE   GL113013  12.097  16.008   6.119  0.0603  0.0001 -0.1924
  877YOPE   GL213014  12.049  16.302   6.372 -0.1337 -0.1501  0.2042
  877YOPE   C1A13015  11.801  15.761   6.451  0.0113 -0.0647  0.1858
  877YOPE   D2A13016  11.847  15.778   6.862  0.0474 -0.0174  0.0929
  877YOPE   C3A13017  12.024  15.664   7.178  0.0983  0.2821 -0.0439
  877YOPE   C4A13018  12.215  15.382   7.481  0.0218 -0.0558  0.2004
  877YOPE   C1B13019  12.102  16.356   6.774 -0.0163  0.0522  0.1776
  877YOPE   C2B13020  11.911  16.235   7.115 -0.0064  0.0002 -0.1556
  877YOPE   D3B13021  11.721  16.022   7.350  0.1750 -0.1359  0.3729
  877YOPE   C4B13022  11.591  15.639   7.531  0.4405  0.0780  0.2501
  878YOPE   NH313023  15.654   6.209   5.728  0.0027 -0.2215  0.0568
  878YOPE   PO413024  15.826   6.672   5.776 -0.0229 -0.1026  0.0105
  878YOPE   GL113025  15.589   6.643   6.189  0.0685  0.0073 -0.1188
  878YOPE   GL213026  15.277   6.460   6.184 -0.0505 -0.0353 -0.0049
  878YOPE   C1A13027  15.535   6.620   6.611  0.1578 -0.0310  0.4081
  878YOPE   D2A13028  15.400   6.573   7.004 -0.1774  0.0800 -0.1365
  878YOPE   C3A13029  15.237   6.881   7.271  0.1932  0.0303 -0.1641
  878YOPE   C4A13030  15.113   6.917   7.746 -0.0746  0.1294  0.0316
  878YOPE   C1B13031  15.286   6.201   6.637 -0.2348 -0.1107 -0.1737
  878YOPE   C2B13032  15.270   6.048   7.050 -0.0766 -0.0595  0.0073
  878YOPE   D3B13033  14.916   5.978   7.421 -0.1703 -0.1334 -0.2367
  878YOPE   C4B13034  14.429   6.003   7.323 -0.1693 -0.2036  0.0771
  879YOPE   NH313035   8.061   0.903   5.643  0.0094 -0.0574  0.1257
  879YOPE   PO413036   7.960   0.512   5.726  0.3505 -0.1610 -0.1353
  879YOPE   GL113037   7.899   0.692   6.128 -0.2592 -0.1413  0.3199
  879YOPE   GL213038   8.085   0.847   6.187  0.0157  0.2288 -0.0324
  879YOPE   C1A13039   7.867   0.515   6.555 -0.2223  0.0952 -0.0267
  879YOPE   D2A13040   7.749   0.199   6.929  0.1001 -0.0197 -0.1060
  879YOPE   C3A13041   8.018   0.117   7.314 -0.0479 -0.0593 -0.0711
  879YOPE   C4A13042   7.913  -0.083   7.688 -0.1162 -0.2440  0.0514
  879YOPE   C1B13043   8.287   0.691   6.502 -0.2680  0.0810  0.1174
  879YOPE   C2B13044   8.361   0.774   6.972  0.1782 -0.0889 -0.0209
  879YOPE   D3B13045   8.398   0.647   7.358 -0.1252 -0.3544 -0.2902
  879YOPE   C4B13046   8.537   0.336   7.649  0.0886  0.1472  0.0229
  880YOPE   NH313047   0.130  16.710   5.395 -0.0961  0.0022  0.2745
  880YOPE   PO413048   0.651  16.736   5.256 -0.2074 -0.3264  0.1014
  880YOPE   GL113049   0.540  16.401   5.559  0.1378  0.0095 -0.0149
  880YOPE   GL213050   0.580  16.009   5.682  0.0243 -0.2705 -0.1006
  880YOPE   C1A13051   0.600  16.541   6.064  0.1715 -0.0110 -0.0913
  880YOPE   D2A13052   0.911  16.648   6.458 -0.0877  0.0071 -0.1164
  880YOPE   C3A13053   0.797  16.476   6.898 -0.0360  0.0811 -0.1152
  880YOPE   C4A13054   0.638  16.621   7.251  0.0900  0.2283  0.1264
  880YOPE   C1B13055   0.546  15.995   6.180 -0.1300 -0.1982 -0.0368
  880YOPE   C2B13056   0.487  16.305   6.485  0.0974 -0.1738  0.0878
  880YOPE   D3B13057   0.330  16.484   6.723 -0.0344 -0.3669  0.1710
  880YOPE   C4B13058   0.342  16.888   6.871 -0.1016  0.2563  0.3664
  881YOPE   NH313059  16.473   5.725   5.549 -0.2161 -0.0943 -0.2087
  881YOPE   PO413060  16.088   6.008   5.745  0.0048  0.1112 -0.1788
  881YOPE   GL113061  15.851   5.815   6.069 -0.0699 -0.3381 -0.0426
  881YOPE   GL213062  15.611   5.844   6.164 -0.2813  0.1040 -0.1487
  881YOPE   C1A13063  15.823   5.412   6.191  0.4240 -0.2805 -0.0624
  881YOPE   D2A13064  15.703   5.126   6.471 -0.2705 -0.1073 -0.2019
  881YOPE   C3A13065  15.740   5.246   6.914  0.1649 -0.1848  0.0875
  881YOPE   C4A13066  15.548   5.262   7.352 -0.2424  0.0796 -0.1338
  881YOPE   C1B13067  15.581   5.761   6.571 -0.1468 -0.0451  0.1095
  881YOPE   C2B13068  15.519   5.636   7.012 -0.0741  0.2440 -0.1524
  881YOPE   D3B13069  15.219   5.601   7.257 -0.1389 -0.0316 -0.1298
  881YOPE   C4B13070  15.007   5.320   7.625 -0.0650  0.1153  0.0123
  882YOPE   NH313071   4.072   5.852   5.427  0.1054  0.0096  0.1585
  882YOPE   PO413072   4.134   6.234   5.408  0.1321 -0.0301 -0.1161
  882YOPE   GL113073   4.394   6.436   5.655  0.0874  0.2721 -0.1144
  882YOPE   GL213074   4.163   6.652   5.775  0.1685  0.3400  0.0074
  882YOPE   C1A13075   4.564   6.602   6.030 -0.2870  0.0299  0.3298
  882YOPE   D2A13076   5.013   6.674   6.177  0.0583 -0.0166 -0.0227
  882YOPE   C3A13077   5.047   6.411   6.565  0.0772  0.2857 -0.0296
  882YOPE   C4A13078   4.820   6.437   6.894 -0.2282  0.0643  0.0345
  882YOPE   C1B13079   3.974   6.684   6.133 -0.0878  0.1226 -0.0279
  882YOPE   C2B13080   4.084   6.770   6.589 -0.0585 -0.1353  0.0936
  882YOPE   D3B13081   4.073   6.645   6.964  0.1887 -0.1670  0.1116
  882YOPE   C4B13082   4.330   6.594   7.334  0.4881 -0.1368 -0.0327
  883YOPE   NH313083   3.466   3.060   5.373 -0.0321 -0.1401 -0.1498
  883YOPE   PO413084   3.114   2.657   5.506  0.3088 -0.1651 -0.0459
  883YOPE   GL113085   2.761   2.587   5.766 -0.1057 -0.0846 -0.1189
  883YOPE   GL213086   2.575   2.859   5.840 -0.3306  0.0084 -0.2845
  883YOPE   C1A13087   2.535   2.355   6.088  0.5123 -0.1662  0.0319
  883YOPE   D2A13088   2.492   2.328   6.490 -0.2408 -0.0094 -0.0739
  883YOPE   C3A13089   2.550   2.444   6.936  0.0860  0.2682 -0.0173
  883YOPE   C4A13090   2.395   2.469   7.484 -0.1232 -0.1077 -0.0806
  883YOPE   C1B13091   2.723   2.757   6.289  0.0576 -0.0622 -0.1209
  883YOPE   C2B13092   2.641   2.834   6.734 -0.2799 -0.1543 -0.0456
  883YOPE   D3B13093   2.479   2.874   7.152 -0.0568 -0.0408  0.2939
  883YOPE   C4B13094   2.269   3.097   7.499 -0.0968 -0.1105 -0.3140
  884YOPE   NH313095  11.809  13.833   5.716  0.1368  0.1871  0.0118
  884YOPE   PO413096  11.726  14.270   5.905  0.2628  0.2933  0.1973
  884YOPE   GL113097  11.462  14.142   6.360 -0.0094  0.1663  0.2374
  884YOPE   GL213098  11.168  14.101   6.427 -0.1369  0.1390  0.1304
  884YOPE   C1A13099  11.609  14.108   6.699  0.0807  0.0545 -0.1345
  884YOPE   D2A13100  11.839  14.145   7.045 -0.0617 -0.3246  0.1830
  884YOPE   C3A13101  11.606  14.204   7.405  0.2479  0.4795 -0.1711
  884YOPE   C4A13102  11.346  14.319   7.774  0.0800  0.0221 -0.0878
  884YOPE   C1B13103  11.083  14.276   6.905 -0.1766 -0.4858  0.0923
  884YOPE   C2B13104  11.153  14.446   7.281  0.1649  0.0817 -0.0988
  884YOPE   D3B13105  11.432  14.711   7.462 -0.0787 -0.6062 -0.1600
  884YOPE   C4B13106  11.681  14.760   7.857  0.1066  0.1648 -0.1249
  885YOPE   NH313107   4.635   2.072   5.360 -0.2455  0.1536  0.2321
  885YOPE   PO413108   4.444   2.426   5.325 -0.0039 -0.4616  0.0213
  885YOPE   GL113109   4.347   2.334   5.714 -0.2338 -0.1102  0.3745
  885YOPE   GL213110   4.027   2.186   5.832 -0.0113 -0.3736  0.0328
  885YOPE   C1A13111   4.360   2.364   6.178  0.0481  0.0887 -0.2844
  885YOPE   D2A13112   4.568   2.247   6.578  0.0010 -0.1353  0.0057
  885YOPE   C3A13113   4.486   2.077   6.911 -0.2034  0.1115 -0.1887
  885YOPE   C4A13114   4.606   2.122   7.352 -0.0389  0.1750  0.1709
  885YOPE   C1B13115   3.710   2.435   6.062 -0.0571  0.4308 -0.0395
  885YOPE   C2B13116   3.606   2.588   6.496  0.2678  0.1027  0.0940
  885YOPE   D3B13117   3.751   2.678   6.921 -0.1162 -0.0908 -0.0158
  885YOPE   C4B13118   3.984   2.983   7.326  0.3011 -0.0520  0.1333
  886YOPE   NH313119  14.314  10.784   5.639 -0.2004  0.1619 -0.3079
  886YOPE   PO413120  14.530  11.283   5.708 -0.0352 -0.0585 -0.2377
  886YOPE   GL113121  14.743  11.399   6.176  0.2445  0.0355 -0.0642
  886YOPE   GL213122  14.728  11.782   6.152 -0.0515  0.2503  0.1504
  886YOPE   C1A13123  14.748  11.314   6.602 -0.1723 -0.1313  0.1556
  886YOPE   D2A13124  14.933  11.328   7.005 -0.1222 -0.1860 -0.1358
  886YOPE   C3A13125  14.790  11.377   7.334 -0.1743  0.4797 -0.0332
  886YOPE   C4A13126  14.467  11.443   7.626  0.2522  0.2147 -0.1201
  886YOPE   C1B13127  14.891  11.820   6.621 -0.1407 -0.0106 -0.2185
  886YOPE   C2B13128  15.043  11.876   7.062  0.0274 -0.1787 -0.3189
  886YOPE   D3B13129  14.999  11.835   7.517 -0.1434  0.4138  0.0230
  886YOPE   C4B13130  14.963  11.575   7.868 -0.3513  0.1591  0.0670
  887YOPE   NH313131  11.318   4.309   5.702  0.0555 -0.1465 -0.2119
  887YOPE   PO413132  11.708   4.455   5.678 -0.2021  0.1234 -0.2645
  887YOPE   GL113133  11.708   4.649   6.054 -0.1535 -0.0072  0.0282
  887YOPE   GL213134  11.431   4.626   6.243  0.2867 -0.1528 -0.1053
  887YOPE   C1A13135  11.848   4.598   6.521 -0.0513 -0.1414  0.0819
  887YOPE   D2A13136  11.838   4.559   6.942  0.0015 -0.1529  0.0780
  887YOPE   C3A13137  11.822   4.306   7.282  0.1636 -0.3832  0.0768
  887YOPE   C4A13138  11.830   4.365   7.723  0.2510  0.0327 -0.2880
  887YOPE   C1B13139  11.347   4.591   6.655  0.0867 -0.0680 -0.1084
  887YOPE   C2B13140  11.244   4.445   6.997 -0.2047  0.0631  0.0509
  887YOPE   D3B13141  11.552   4.078   6.840  0.2549 -0.1504 -0.1209
  887YOPE   C4B13142  11.795   3.703   6.707 -0.0871 -0.1549  0.1118
  888YOPE   NH313143  17.290   3.673   5.423  0.0905 -0.2453 -0.3971
  888YOPE   PO413144  17.571   4.022   5.400  0.1062  0.2541  0.0808
  888YOPE   GL113145  17.775   4.056   5.758 -0.0589  0.0206 -0.2036
  888YOPE   GL213146  17.967   3.834   5.692 -0.2874  0.1140 -0.3355
  888YOPE   C1A13147  17.845   4.029   6.215 -0.1851 -0.3926  0.1965
  888YOPE   D2A13148  17.916   4.199   6.543 -0.1106 -0.1652  0.2155
  888YOPE   C3A13149  17.782   4.079   6.831 -0.1475 -0.2129 -0.0286
  888YOPE   C4A13150  17.405   4.250   6.978 -0.2141  0.1562 -0.0294
  888YOPE   C1B13151  18.290   3.988   5.875  0.0161 -0.2427 -0.3504
  888YOPE   C2B13152  18.340   4.379   6.191  0.1972  0.0622 -0.0075
  888YOPE   D3B13153  18.249   4.546   6.591  0.2579 -0.1350  0.1431
  888YOPE   C4B13154  18.236   4.699   7.065  0.1078  0.1688  0.0693
  889YOPE   NH313155   9.288   4.297   5.442  0.0723 -0.0839 -0.0779
  889YOPE   PO413156   9.141   3.967   5.490 -0.0985  0.1799  0.2399
  889YOPE   GL113157   9.006   4.117   5.888  0.1421 -0.3927  0.0903
  889YOPE   GL213158   8.770   4.281   5.718  0.1201 -0.0835 -0.0315
  889YOPE   C1A13159   9.158   4.214   6.392 -0.5466  0.3050  0.0989
  889YOPE   D2A13160   9.294   4.297   6.826  0.0763 -0.0841 -0.1371
  889YOPE   C3A13161   9.450   4.563   7.218  0.2303 -0.0976  0.1499
  889YOPE   C4A13162   9.407   4.553   7.666 -0.0154 -0.2725 -0.0091
  889YOPE   C1B13163   8.603   4.369   6.143 -0.2000  0.1336  0.3209
  889YOPE   C2B13164   8.349   4.343   6.571  0.1498  0.0620  0.1501
  889YOPE   D3B13165   8.402   4.457   7.078  0.0901  0.1126  0.2411
  889YOPE   C4B13166   8.138   4.350   7.382  0.2656  0.0852  0.1133
  890YOPE   NH313167  15.470   3.829   5.689  0.0892  0.1878 -0.1202
  890YOPE   PO413168  15.137   3.533   5.902 -0.0101  0.1371 -0.0190
  890YOPE   GL113169  15.178   3.771   6.258  0.3054 -0.2060 -0.1225
  890YOPE   GL213170  15.482   3.960   6.214  0.1097  0.3136  0.1684
  890YOPE   C1A13171  15.297   3.861   6.657 -0.1040 -0.0555 -0.2373
  890YOPE   D2A13172  15.371   3.615   7.101 -0.1265 -0.3068 -0.1251
  890YOPE   C3A13173  15.494   3.835   7.409 -0.0493 -0.1108 -0.2710
  890YOPE   C4A13174  15.746   4.028   7.625 -0.0527  0.0481  0.0618
  890YOPE   C1B13175  15.732   4.105   6.682  0.0039  0.0694  0.3163
  890YOPE   C2B13176  15.722   4.166   7.077  0.0951 -0.1812  0.4020
  890YOPE   D3B13177  15.627   4.429   7.344  0.1218 -0.0556 -0.1298
  890YOPE   C4B13178  15.643   4.525   7.759  0.0303 -0.1411 -0.0176
  891YOPE   NH313179   5.279   1.037   5.166 -0.2177  0.3453  0.1733
  891YOPE   PO413180   5.442   1.504   5.127  0.0860 -0.2271 -0.2494
  891YOPE   GL113181   5.418   1.366   5.609  0.1446 -0.1031 -0.0226
  891YOPE   GL213182   5.314   1.025   5.672  0.2518  0.2507 -0.0828
  891YOPE   C1A13183   5.063   1.363   5.969  0.0825  0.3876 -0.0260
  891YOPE   D2A13184   4.921   1.637   6.259 -0.3866 -0.4038  0.0447
  891YOPE   C3A13185   4.821   1.842   6.651  0.3412 -0.1373  0.0194
  891YOPE   C4A13186   4.941   1.802   7.131 -0.0775 -0.0014 -0.2085
  891YOPE   C1B13187   5.382   0.728   6.049  0.0348 -0.0732  0.2174
  891YOPE   C2B13188   5.036   0.452   6.188  0.0852 -0.3034  0.3662
  891YOPE   D3B13189   4.668   0.249   6.191  0.0290  0.1209 -0.1068
  891YOPE   C4B13190   4.371   0.024   5.993  0.1129  0.1304 -0.2325
  892YOPE   NH313191   7.311  10.490   5.255  0.0600  0.4149  0.1400
  892YOPE   PO413192   7.800  10.228   5.447  0.1335  0.0848  0.1396
  892YOPE   GL113193   7.678  10.233   5.833  0.3538  0.0802  0.1438
  892YOPE   GL213194   7.884  10.005   5.898 -0.3132  0.1191 -0.2574
  892YOPE   C1A13195   7.993  10.433   6.125  0.0796 -0.4580  0.2641
  892YOPE   D2A13196   8.269  10.254   6.466 -0.0399  0.0351  0.3144
  892YOPE   C3A13197   8.229  10.118   6.829  0.1820  0.2498 -0.0854
  892YOPE   C4A13198   8.129   9.871   7.296  0.1551 -0.2933  0.3000
  892YOPE   C1B13199   7.820   9.918   6.315  0.0191  0.1295 -0.0182
  892YOPE   C2B13200   7.613   9.900   6.731 -0.1705  0.0136  0.0988
  892YOPE   D3B13201   7.563   9.895   7.176  0.1809  0.0130 -0.2547
  892YOPE   C4B13202   7.718  10.064   7.570 -0.1886  0.0697  0.0336
  893YOPE   NH313203  15.016  11.508   5.775  0.2308  0.0341 -0.0320
  893YOPE   PO413204  15.049  11.090   5.976 -0.0891  0.1134  0.2920
  893YOPE   GL113205  14.922  10.924   6.311  0.3177 -0.1113  0.1025
  893YOPE   GL213206  15.240  10.879   6.377 -0.1694 -0.2504 -0.3375
  893YOPE   C1A13207  14.862  10.828   6.709  0.1252  0.4011 -0.2248
  893YOPE   D2A13208  15.006  10.864   7.148  0.0912 -0.2072  0.0973
  893YOPE   C3A13209  14.764  10.583   7.407 -0.1096  0.0432 -0.2541
  893YOPE   C4A13210  14.322  10.494   7.535  0.0437  0.4366  0.0042
  893YOPE   C1B13211  15.341  11.085   6.751 -0.1394  0.0539 -0.1922
  893YOPE   C2B13212  15.574  10.760   6.860 -0.0106 -0.1666 -0.1105
  893YOPE   D3B13213  15.741  10.332   6.889 -0.1264  0.1035 -0.2464
  893YOPE   C4B13214  15.686   9.917   7.031  0.1620 -0.1594 -0.2746
  894YOPE   NH313215   7.699  12.955   5.834 -0.0199 -0.2216  0.3460
  894YOPE   PO413216   8.143  12.757   5.930 -0.1231 -0.2439 -0.0582
  894YOPE   GL113217   8.138  12.478   6.173  0.1118  0.0492  0.0456
  894YOPE   GL213218   8.145  12.141   6.161  0.0448 -0.1162  0.0721
  894YOPE   C1A13219   7.997  12.456   6.556 -0.3470  0.0090 -0.0667
  894YOPE   D2A13220   7.573  12.514   6.656  0.2817 -0.0864  0.0927
  894YOPE   C3A13221   7.550  12.424   7.138  0.0028  0.0003  0.1710
  894YOPE   C4A13222   7.884  12.323   7.466 -0.3037 -0.2283 -0.1095
  894YOPE   C1B13223   8.040  11.864   6.396  0.0365  0.1954 -0.2315
  894YOPE   C2B13224   8.101  11.800   6.791 -0.1320  0.0660 -0.0132
  894YOPE   D3B13225   8.324  11.645   7.154  0.1295  0.1100  0.0751
  894YOPE   C4B13226   8.275  11.439   7.518 -0.0488 -0.0244 -0.0907
  895YOPE   NH313227   4.725  17.556   5.349  0.3198 -0.2767  0.0435
  895YOPE   PO413228   4.382  17.286   5.226  0.1771 -0.1143  0.0679
  895YOPE   GL113229   4.264  17.299   5.518 -0.2356  0.3989 -0.2123
  895YOPE   GL213230   4.462  17.450   5.747 -0.3041 -0.0432  0.3417
  895YOPE   C1A13231   3.951  17.517   5.769  0.0529 -0.0641  0.0795
  895YOPE   D2A13232   3.798  17.620   6.225  0.2543 -0.1910 -0.0024
  895YOPE   C3A13233   3.890  17.384   6.647  0.0826 -0.1305 -0.1506
  895YOPE   C4A13234   3.753  17.000   6.891 -0.0626  0.1533  0.1230
  895YOPE   C1B13235   4.388  17.627   6.090  0.1562  0.7269  0.4771
  895YOPE   C2B13236   4.524  17.904   6.460 -0.5041 -0.0175 -0.3145
  895YOPE   D3B13237   4.613  18.240   6.771 -0.0574 -0.2583 -0.2373
  895YOPE   C4B13238   4.819  18.379   6.971  0.0033  0.1733 -0.1475
  896YOPE   NH313239  16.598   4.232   5.374 -0.2164  0.2942  0.3541
  896YOPE   PO413240  16.865   3.881   5.577  0.3825 -0.0302 -0.2706
  896YOPE   GL113241  16.933   3.680   5.993  0.0096  0.0548 -0.1812
  896YOPE   GL213242  17.310   3.730   6.044 -0.2917  0.0902  0.0470
  896YOPE   C1A13243  16.903   3.289   6.209  0.3387 -0.1840 -0.1860
  896YOPE   D2A13244  16.661   3.321   6.481 -0.1104  0.2698  0.1450
  896YOPE   C3A13245  16.796   3.130   6.859 -0.1260  0.2434  0.2388
  896YOPE   C4A13246  16.747   3.036   7.259  0.0643 -0.1969 -0.3431
  896YOPE   C1B13247  17.095   3.700   6.485 -0.0297  0.2101  0.1786
  896YOPE   C2B13248  17.263   3.822   6.883 -0.0582  0.0245  0.2543
  896YOPE   D3B13249  17.418   3.802   7.285  0.1434  0.1819 -0.1887
  896YOPE   C4B13250  17.508   3.630   7.696 -0.1150 -0.0283  0.0675
  897YOPE   NH313251   0.441   0.853   5.495  0.0740  0.3085  0.0576
  897YOPE   PO413252   0.835   0.909   5.503  0.0355 -0.2083 -0.0696
  897YOPE   GL113253   1.055   0.699   5.786 -0.1938 -0.0208  0.0715
  897YOPE   GL213254   1.189   1.020   5.966 -0.1138 -0.0536 -0.0933
  897YOPE   C1A13255   1.249   0.525   6.265 -0.0988 -0.1705  0.0223
  897YOPE   D2A13256   1.416   0.365   6.616 -0.1133  0.2548  0.2163
  897YOPE   C3A13257   1.380   0.519   7.031  0.3526  0.1915 -0.1668
  897YOPE   C4A13258   1.351   0.443   7.532 -0.2579 -0.0821 -0.0170
  897YOPE   C1B13259   1.146   1.055   6.373 -0.2169  0.3599  0.1449
  897YOPE   C2B13260   1.217   0.947   6.737 -0.1524 -0.0902 -0.0122
  897YOPE   D3B13261   1.092   1.012   7.074  0.1462  0.0270  0.2221
  897YOPE   C4B13262   0.879   0.661   7.187 -0.0729  0.2299  0.0220
  898YOPE   NH313263   7.223   1.312   5.548 -0.0105  0.2383 -0.2010
  898YOPE   PO413264   6.834   1.219   5.408 -0.0299  0.1037  0.2212
  898YOPE   GL113265   6.758   1.163   5.817  0.1152 -0.3047 -0.0510
  898YOPE   GL213266   6.849   0.922   6.050 -0.0362  0.0942  0.0386
  898YOPE   C1A13267   6.901   1.524   6.146 -0.3311 -0.3982  0.1306
  898YOPE   D2A13268   7.077   1.785   6.517 -0.0181  0.0085 -0.0682
  898YOPE   C3A13269   6.996   1.832   6.876 -0.3481 -0.2332 -0.3478
  898YOPE   C4A13270   7.170   1.692   7.245 -0.2550  0.0558 -0.1542
  898YOPE   C1B13271   6.665   0.672   6.371  0.0033 -0.0452  0.1383
  898YOPE   C2B13272   6.481   0.758   6.718 -0.1187  0.1948 -0.0516
  898YOPE   D3B13273   6.338   1.111   6.980  0.0194  0.2756 -0.1576
  898YOPE   C4B13274   5.936   1.230   7.207 -0.0189 -0.1353 -0.0722
  899YOPE   NH313275   5.037   7.137   5.332  0.2251  0.2729  0.1175
  899YOPE   PO413276   4.761   7.125   4.987 -0.1920 -0.0082  0.1189
  899YOPE   GL113277   4.575   7.334   5.394 -0.0129  0.3427 -0.1077
  899YOPE   GL213278   4.751   7.478   5.557  0.1048  0.2790  0.0709
  899YOPE   C1A13279   4.410   7.364   5.897 -0.0619  0.1471 -0.1688
  899YOPE   D2A13280   4.327   7.063   6.241  0.0859  0.2032  0.1539
  899YOPE   C3A13281   4.595   6.779   6.510 -0.3380  0.3005 -0.1161
  899YOPE   C4A13282   4.978   6.941   6.757  0.2059  0.1644  0.1027
  899YOPE   C1B13283   4.834   7.673   5.922 -0.1296  0.2650  0.0693
  899YOPE   C2B13284   4.732   7.973   6.232  0.1758 -0.0559  0.2288
  899YOPE   D3B13285   4.666   8.173   6.716  0.0413 -0.1403  0.1331
  899YOPE   C4B13286   4.482   7.957   7.074  0.3375  0.0128 -0.2236
  900YOPE   NH313287  10.482   4.789   5.682  0.1350 -0.1836  0.0346
  900YOPE   PO413288  10.604   5.217   5.809  0.2786  0.1143  0.0856
  900YOPE   GL113289  10.776   5.023   6.113  0.1772  0.1079 -0.1078
  900YOPE   GL213290  11.100   5.064   6.330 -0.0588  0.0977 -0.1982
  900YOPE   C1A13291  10.617   5.082   6.518  0.0303  0.1484  0.0661
  900YOPE   D2A13292  10.535   4.937   6.933 -0.2237  0.0643  0.0470
  900YOPE   C3A13293  10.228   5.065   7.262  0.0887  0.0659  0.0162
  900YOPE   C4A13294   9.767   5.146   7.419  0.0009 -0.3310  0.1505
  900YOPE   C1B13295  11.046   4.982   6.759  0.1023 -0.2069 -0.1149
  900YOPE   C2B13296  11.033   4.985   7.173 -0.2618 -0.2345  0.0542
  900YOPE   D3B13297  10.754   4.892   7.498  0.0235  0.3327  0.3570
  900YOPE   C4B13298  10.252   4.837   7.701 -0.0592  0.0643  0.1841
  901YOPE   NH313299   9.711  16.865   6.071  0.1105 -0.0384  0.0372
  901YOPE   PO413300   9.854  16.431   6.137 -0.0707 -0.1010  0.0560
  901YOPE   GL113301  10.061  16.376   6.419  0.1753  0.3850 -0.0692
  901YOPE   GL213302  10.286  16.190   6.397 -0.1405 -0.0566  0.1399
  901YOPE   C1A13303  10.126  16.420   6.800 -0.0843 -0.0354  0.3549
  901YOPE   D2A13304  10.072  16.351   7.148 -0.1230 -0.1655  0.0287
  901YOPE   C3A13305  10.073  15.976   7.356 -0.4979 -0.0827 -0.0681
  901YOPE   C4A13306  10.094  15.898   7.795  0.0578  0.0084  0.0762
  901YOPE   C1B13307  10.262  15.967   6.826  0.1590  0.0549 -0.0958
  901YOPE   C2B13308  10.330  15.684   7.117 -0.2576  0.1401 -0.1743
  901YOPE   D3B13309  10.375  15.581   7.496  0.1655  0.1721  0.0427
  901YOPE   C4B13310  10.125  15.261   7.678 -0.1397  0.4266 -0.0290
  902YOPE   NH313311  13.526   1.714   6.029  0.3266  0.1538 -0.0949
  902YOPE   PO413312  13.670   2.039   5.756  0.1194  0.1435  0.1772
  902YOPE   GL113313  13.831   2.097   6.165  0.1909 -0.1354  0.0724
  902YOPE   GL213314  13.534   2.070   6.381 -0.1206  0.0496  0.2314
  902YOPE   C1A13315  13.896   2.504   6.441 -0.1889  0.1443  0.4078
  902YOPE   D2A13316  14.001   2.891   6.528  0.3188  0.1636 -0.0451
  902YOPE   C3A13317  13.819   3.048   6.839  0.0637 -0.2013  0.0536
  902YOPE   C4A13318  13.897   2.907   7.270  0.1481 -0.0427  0.0551
  902YOPE   C1B13319  13.841   2.092   6.681 -0.2935  0.1735  0.0799
  902YOPE   C2B13320  13.856   2.141   7.125  0.0845  0.0397  0.0785
  902YOPE   D3B13321  13.834   2.461   7.424  0.0900 -0.1079 -0.0655
  902YOPE   C4B13322  13.633   2.656   7.653 -0.0892  0.4493 -0.1096
  903YOPE   NH313323   6.397  11.019   5.674  0.1158  0.2394 -0.0104
  903YOPE   PO413324   6.311  10.593   5.604  0.1978 -0.4333 -0.1774
  903YOPE   GL113325   6.113  10.528   5.952  0.1056 -0.1972  0.3196
  903YOPE   GL213326   5.917  10.779   6.112  0.1392  0.0210 -0.0265
  903YOPE   C1A13327   5.951  10.207   6.242 -0.0596  0.1678  0.1976
  903YOPE   D2A13328   5.959  10.014   6.652  0.4119  0.1465  0.3152
  903YOPE   C3A13329   6.015  10.137   7.133  0.0854 -0.2819  0.2318
  903YOPE   C4A13330   6.382  10.419   7.221 -0.0028  0.2762 -0.4408
  903YOPE   C1B13331   5.791  10.882   6.497 -0.2295  0.0066  0.2173
  903YOPE   C2B13332   5.925  10.851   6.929  0.2035 -0.1281 -0.2730
  903YOPE   D3B13333   5.771  10.624   7.321  0.1499  0.1153  0.3115
  903YOPE   C4B13334   5.502  10.293   7.185 -0.0308  0.0789 -0.0529
  904YOPE   NH313335   9.606   5.879   5.328 -0.2427  0.1151  0.0528
  904YOPE   PO413336   9.187   6.049   5.530 -0.0165 -0.0340 -0.0329
  904YOPE   GL113337   9.022   6.236   5.884 -0.0979  0.0317  0.1894
  904YOPE   GL213338   8.759   6.466   5.915  0.0828  0.3852 -0.0946
  904YOPE   C1A13339   8.807   6.173   6.307 -0.3022  0.1420 -0.0343
  904YOPE   D2A13340   8.583   6.313   6.611 -0.1782  0.0466 -0.1270
  904YOPE   C3A13341   8.272   6.048   6.966 -0.0906  0.2288  0.2645
  904YOPE   C4A13342   7.943   5.834   6.982  0.1827 -0.1765 -0.0391
  904YOPE   C1B13343   8.485   6.797   6.106 -0.2135 -0.2148  0.1633
  904YOPE   C2B13344   8.242   7.043   6.350 -0.2642  0.1407  0.0588
  904YOPE   D3B13345   8.161   7.150   6.667  0.1598  0.2946 -0.2257
  904YOPE   C4B13346   7.800   7.332   6.885 -0.0738  0.1159  0.1631
  905YOPE   NH313347   5.456  15.399   5.795 -0.1991  0.1364  0.2855
  905YOPE   PO413348   5.204  14.958   5.717 -0.2038  0.1151 -0.1787
  905YOPE   GL113349   5.153  14.906   6.109 -0.0136  0.2359 -0.0217
  905YOPE   GL213350   5.111  14.591   6.045  0.1322 -0.1897  0.0441
  905YOPE   C1A13351   5.165  14.964   6.546 -0.2161  0.1756 -0.1819
  905YOPE   D2A13352   4.898  14.662   6.821  0.1865  0.3423  0.1200
  905YOPE   C3A13353   5.076  14.826   7.146  0.0614 -0.0380  0.2551
  905YOPE   C4A13354   5.297  14.763   7.538 -0.0088 -0.1629 -0.0461
  905YOPE   C1B13355   5.184  14.491   6.439 -0.0301  0.1023  0.3117
  905YOPE   C2B13356   5.412  14.597   6.877  0.0967  0.1598 -0.3055
  905YOPE   D3B13357   5.665  14.867   7.092 -0.0887  0.0454 -0.3401
  905YOPE   C4B13358   5.872  15.101   7.387  0.0502  0.1127 -0.1152
  906YOPE   NH313359  10.893   2.055   5.560 -0.1191  0.0773  0.0570
  906YOPE   PO413360  10.954   2.394   5.727  0.0572 -0.5478  0.0446
  906YOPE   GL113361  10.819   2.122   6.053  0.3207 -0.1758  0.1351
  906YOPE   GL213362  10.521   1.960   6.017 -0.3506 -0.4084 -0.0787
  906YOPE   C1A13363  10.939   1.771   6.312  0.0462 -0.1263  0.1656
  906YOPE   D2A13364  11.094   1.547   6.677 -0.0320  0.0848 -0.1853
  906YOPE   C3A13365  11.220   1.750   7.112  0.0696 -0.0393  0.2777
  906YOPE   C4A13366  11.443   1.978   7.433  0.4507 -0.2465 -0.2430
  906YOPE   C1B13367  10.529   2.313   6.501 -0.0276 -0.1288  0.2588
  906YOPE   C2B13368  10.438   2.360   6.950 -0.0239  0.1475 -0.0123
  906YOPE   D3B13369  10.208   2.154   7.292  0.1761 -0.1317 -0.1568
  906YOPE   C4B13370  10.092   2.182   7.710 -0.1079  0.0722  0.0551
  907YOPE   NH313371  15.795  18.444   5.668  0.1512 -0.0555  0.1927
  907YOPE   PO413372  16.037  18.835   5.624 -0.0958 -0.0660  0.1988
  907YOPE   GL113373  16.235  18.712   6.064  0.2646  0.0529 -0.2205
  907YOPE   GL213374  16.180  18.412   6.036 -0.0474  0.3284 -0.0925
  907YOPE   C1A13375  16.577  18.789   6.389  0.0744 -0.0266  0.2254
  907YOPE   D2A13376  16.842  18.931   6.593 -0.1907 -0.0549 -0.0807
  907YOPE   C3A13377  17.085  18.614   6.803 -0.1325  0.0700  0.1442
  907YOPE   C4A13378  17.378  18.329   6.546 -0.1617  0.1004 -0.1039
  907YOPE   C1B13379  16.363  18.305   6.460  0.0254  0.2416  0.1127
  907YOPE   C2B13380  16.559  18.408   6.802 -0.1509 -0.0016 -0.2839
  907YOPE   D3B13381  16.681  18.752   7.035 -0.1377 -0.0634  0.2830
  907YOPE   C4B13382  16.678  18.641   7.406 -0.0303  0.1796  0.0441
  908YOPE   NH313383  10.064  15.601   6.055  0.1016 -0.1111 -0.1659
  908YOPE   PO413384  10.028  15.184   6.028 -0.2175 -0.1801 -0.0352
  908YOPE   GL113385  10.099  15.232   6.452 -0.0755  0.0044  0.2290
  908YOPE   GL213386  10.292  15.455   6.485  0.0931 -0.0568  0.2438
  908YOPE   C1A13387   9.905  15.463   6.801 -0.0497 -0.0856 -0.1548
  908YOPE   D2A13388   9.894  15.510   7.240  0.3963  0.1308  0.2234
  908YOPE   C3A13389   9.444  15.323   7.339 -0.0324  0.0914  0.2126
  908YOPE   C4A13390   9.251  15.510   7.728 -0.0861 -0.1589  0.0253
  908YOPE   C1B13391  10.334  15.209   6.908 -0.2246  0.0655  0.0216
  908YOPE   C2B13392  10.620  15.183   7.291 -0.0144  0.1552 -0.1198
  908YOPE   D3B13393  10.768  14.843   7.549 -0.1293  0.0843  0.1423
  908YOPE   C4B13394  10.676  14.458   7.704  0.1076  0.0186  0.0891
  909YOPE   NH313395  15.188   7.383   5.564  0.2790  0.0887  0.0411
  909YOPE   PO413396  14.762   7.338   5.776  0.1569  0.2316  0.0798
  909YOPE   GL113397  14.650   7.156   6.129 -0.0105 -0.2015 -0.1487
  909YOPE   GL213398  14.326   7.046   6.242 -0.1358  0.2794  0.1770
  909YOPE   C1A13399  14.691   6.790   6.477 -0.0641  0.0803 -0.0815
  909YOPE   D2A13400  14.970   6.582   6.734  0.1403  0.2516 -0.0522
  909YOPE   C3A13401  14.890   6.403   7.144 -0.0611 -0.0222  0.1018
  909YOPE   C4A13402  15.119   6.444   7.502  0.4012 -0.0358  0.1703
  909YOPE   C1B13403  14.286   6.962   6.684  0.5223  0.1037  0.1479
  909YOPE   C2B13404  14.600   6.936   7.054  0.1862 -0.1082  0.3748
  909YOPE   D3B13405  14.637   6.972   7.533 -0.1204  0.0171 -0.1722
  909YOPE   C4B13406  14.560   7.044   7.958 -0.0410 -0.0275  0.3242
  910YOPE   NH313407  16.313   6.529   5.770  0.1717  0.1462  0.1750
  910YOPE   PO413408  16.421   7.006   5.759 -0.1102 -0.0789  0.1492
  910YOPE   GL113409  16.404   7.003   6.097  0.1936  0.4835 -0.1211
  910YOPE   GL213410  16.080   6.896   6.177  0.1380  0.2266 -0.2466
  910YOPE   C1A13411  16.375   6.963   6.573  0.3049 -0.2233  0.0462
  910YOPE   D2A13412  16.448   6.862   7.008 -0.0778 -0.0645  0.0522
  910YOPE   C3A13413  16.206   6.963   7.404  0.0188 -0.1800 -0.1853
  910YOPE   C4A13414  16.238   7.161   7.699  0.1376 -0.0366  0.0288
  910YOPE   C1B13415  15.980   6.729   6.564  0.1980 -0.1014 -0.2238
  910YOPE   C2B13416  15.837   6.828   6.934  0.3199  0.0065 -0.0832
  910YOPE   D3B13417  15.763   6.780   7.311 -0.0742 -0.0809 -0.0636
  910YOPE   C4B13418  15.749   7.060   7.713 -0.2032  0.0565  0.2159
  911YOPE   NH313419   8.160  18.071   5.712  0.1053  0.1365 -0.1821
  911YOPE   PO413420   8.571  17.884   5.815 -0.1739  0.2090  0.0965
  911YOPE   GL113421   8.718  17.936   6.226 -0.1330 -0.2803  0.0492
  911YOPE   GL213422   8.562  17.750   6.475  0.0559 -0.1164 -0.2580
  911YOPE   C1A13423   8.690  18.380   6.384  0.0992  0.1591  0.2402
  911YOPE   D2A13424   8.647  18.619   6.713  0.3098 -0.4619 -0.1174
  911YOPE   C3A13425   8.692  18.487   7.129 -0.0353  0.3113  0.0058
  911YOPE   C4A13426   8.383  18.639   7.521  0.0710  0.0511 -0.2176
  911YOPE   C1B13427   8.184  17.923   6.624 -0.2972 -0.0653  0.0736
  911YOPE   C2B13428   8.152  17.981   7.067  0.1886 -0.1370  0.0588
  911YOPE   D3B13429   8.005  17.745   7.401 -0.0899  0.0437  0.0544
  911YOPE   C4B13430   8.032  17.365   7.698 -0.0369  0.0523 -0.1439
  912YOPE   NH313431  12.220   6.199   5.036  0.1317  0.0706  0.0764
  912YOPE   PO413432  12.224   5.917   5.391 -0.4816 -0.3057 -0.0529
  912YOPE   GL113433  12.226   5.962   5.933 -0.0641  0.0898  0.1977
  912YOPE   GL213434  12.533   6.056   5.877 -0.1600  0.2962  0.3399
  912YOPE   C1A13435  11.995   6.032   6.365  0.2005  0.1026 -0.0191
  912YOPE   D2A13436  11.907   5.913   6.758  0.0151 -0.0406 -0.0771
  912YOPE   C3A13437  11.907   6.226   7.095 -0.0622  0.0585 -0.1308
  912YOPE   C4A13438  11.746   6.504   7.396  0.0856  0.2308 -0.0858
  912YOPE   C1B13439  12.649   6.245   6.240  0.1048  0.1642 -0.3954
  912YOPE   C2B13440  12.711   6.490   6.608  0.0976  0.1761  0.0793
  912YOPE   D3B13441  13.040   6.579   6.855 -0.0160 -0.1167  0.1199
  912YOPE   C4B13442  13.280   6.562   7.258 -0.1108  0.4780  0.0453
  913YOPE   NH313443   7.477   4.883   5.363  0.0082 -0.1537 -0.0541
  913YOPE   PO413444   7.780   4.902   5.092  0.0711  0.2235 -0.2035
  913YOPE   GL113445   7.950   5.074   5.486 -0.1418  0.2106  0.0591
  913YOPE   GL213446   7.748   5.112   5.734  0.0405 -0.0330 -0.0766
  913YOPE   C1A13447   8.216   4.896   5.813 -0.2099  0.1253  0.0382
  913YOPE   D2A13448   8.392   4.787   6.107 -0.2314  0.1720  0.2593
  913YOPE   C3A13449   8.292   4.846   6.542  0.0660 -0.0274  0.1761
  913YOPE   C4A13450   7.975   4.664   6.849 -0.0278  0.1171 -0.2952
  913YOPE   C1B13451   7.547   5.097   6.105 -0.1454  0.2256  0.0493
  913YOPE   C2B13452   7.534   5.078   6.579 -0.2949  0.3830  0.2551
  913YOPE   D3B13453   7.433   4.877   7.009 -0.0655 -0.0851 -0.1567
  913YOPE   C4B13454   7.596   5.017   7.438 -0.0644  0.1799  0.1574
  914YOPE   NH313455  17.439   4.577   5.454  0.1204  0.2843 -0.0176
  914YOPE   PO413456  17.649   4.913   5.482 -0.0309 -0.1136 -0.0135
  914YOPE   GL113457  17.600   4.967   5.839 -0.1116  0.1645 -0.2133
  914YOPE   GL213458  17.337   5.244   5.772  0.2273  0.3394 -0.0285
  914YOPE   C1A13459  17.424   4.875   6.164 -0.0154 -0.0553  0.1002
  914YOPE   D2A13460  17.513   4.623   6.562 -0.0146 -0.0955 -0.1263
  914YOPE   C3A13461  17.766   4.624   6.840 -0.0065  0.0222  0.4187
  914YOPE   C4A13462  17.778   4.429   7.269 -0.1679  0.1057 -0.0961
  914YOPE   C1B13463  17.436   5.397   6.195  0.0260  0.1901 -0.1920
  914YOPE   C2B13464  17.672   5.566   6.597  0.3525 -0.0725 -0.0439
  914YOPE   D3B13465  17.922   5.691   7.021 -0.1054  0.0774 -0.2670
  914YOPE   C4B13466  18.185   5.473   7.280 -0.0362  0.0183 -0.0706
  915YOPE   NH313467   2.943  16.095   5.240 -0.0166  0.2747 -0.1244
  915YOPE   PO413468   3.052  16.424   5.084 -0.2164 -0.0947 -0.0175
  915YOPE   GL113469   3.044  16.513   5.570 -0.2425 -0.1055  0.2430
  915YOPE   GL213470   2.862  16.388   5.781 -0.1218  0.0846  0.1401
  915YOPE   C1A13471   3.064  16.920   5.813  0.1863 -0.0934  0.2962
  915YOPE   D2A13472   3.106  17.100   6.314 -0.0315 -0.1788  0.0339
  915YOPE   C3A13473   2.905  17.152   6.683 -0.3461 -0.1979 -0.3307
  915YOPE   C4A13474   2.613  17.151   7.078 -0.0792  0.0488  0.1210
  915YOPE   C1B13475   2.828  16.591   6.154  0.0225 -0.2720  0.0872
  915YOPE   C2B13476   2.790  16.611   6.549  0.0159 -0.1917 -0.0068
  915YOPE   D3B13477   2.688  16.696   6.965  0.0304  0.1548  0.1126
  915YOPE   C4B13478   2.689  16.418   7.296  0.0104 -0.3247 -0.1089
  916YOPE   NH313479   5.268   5.818   5.315  0.0686 -0.0280  0.1136
  916YOPE   PO413480   5.317   6.234   5.540  0.4202  0.0917 -0.0723
  916YOPE   GL113481   5.386   6.258   5.900 -0.1191 -0.2682 -0.0460
  916YOPE   GL213482   5.667   6.170   5.971  0.0392  0.2489  0.1259
  916YOPE   C1A13483   5.299   6.142   6.283  0.0368 -0.2825  0.0227
  916YOPE   D2A13484   5.305   5.976   6.714 -0.0378 -0.1382 -0.0086
  916YOPE   C3A13485   5.252   6.152   7.026  0.1362 -0.4416  0.3931
  916YOPE   C4A13486   5.092   6.468   7.290  0.1466 -0.2958 -0.0955
  916YOPE   C1B13487   5.797   6.113   6.411 -0.3677 -0.2118  0.5103
  916YOPE   C2B13488   5.764   6.090   6.830 -0.0122  0.2086  0.2373
  916YOPE   D3B13489   5.694   5.902   7.249  0.0608  0.2272  0.2983
  916YOPE   C4B13490   5.667   5.562   7.562 -0.0690 -0.0310  0.1662
  917YOPE   NH313491   4.284  14.212   5.492  0.1406  0.0114 -0.1917
  917YOPE   PO413492   4.661  14.453   5.674  0.0865  0.1879  0.3456
  917YOPE   GL113493   4.583  14.139   5.893  0.1437  0.2485 -0.0849
  917YOPE   GL213494   4.848  14.086   5.967  0.0108 -0.3851  0.1233
  917YOPE   C1A13495   4.376  13.964   6.364 -0.1118 -0.1660  0.0603
  917YOPE   D2A13496   4.167  13.762   6.704 -0.2564  0.2103 -0.0253
  917YOPE   C3A13497   4.018  13.549   6.451 -0.0789 -0.0043 -0.0637
  917YOPE   C4A13498   4.158  13.579   6.105  0.0704 -0.0745 -0.2329
  917YOPE   C1B13499   4.872  14.123   6.305 -0.1269  0.2315 -0.2037
  917YOPE   C2B13500   4.997  14.123   6.791  0.2598  0.2116 -0.0131
  917YOPE   D3B13501   4.887  13.926   7.218 -0.0710  0.1289 -0.0298
  917YOPE   C4B13502   4.935  13.887   7.694  0.2259 -0.0692 -0.0430
  918YOPE   NH313503  10.180  12.730   5.900  0.2079 -0.0913 -0.0438
  918YOPE   PO413504  10.487  12.509   5.854 -0.2393 -0.0754  0.4690
  918YOPE   GL113505  10.289  12.302   6.044 -0.2986  0.0620 -0.3245
  918YOPE   GL213506   9.977  12.300   6.105  0.0360 -0.0529  0.0048
  918YOPE   C1A13507  10.358  12.179   6.509 -0.1812  0.0091 -0.1206
  918YOPE   D2A13508  10.103  12.082   6.889  0.0828 -0.0645  0.0385
  918YOPE   C3A13509  10.039  12.377   7.206  0.1497  0.2871  0.2074
  918YOPE   C4A13510   9.764  12.460   7.412 -0.3632 -0.0102  0.0529
  918YOPE   C1B13511   9.813  12.306   6.508  0.0698  0.4392  0.2333
  918YOPE   C2B13512   9.605  12.305   6.841 -0.1624  0.3125 -0.1542
  918YOPE   D3B13513   9.656  11.960   7.217 -0.2121 -0.1766  0.3287
  918YOPE   C4B13514   9.613  11.656   7.514 -0.0852  0.2188 -0.2448
  919YOPE   NH313515  18.423   5.380   5.212  0.0277  0.3629 -0.2194
  919YOPE   PO413516  18.766   5.656   5.233 -0.0470 -0.2323 -0.2642
  919YOPE   GL113517  18.876   5.725   5.682 -0.1523  0.2425 -0.0048
  919YOPE   GL213518  18.993   6.150   5.835 -0.1402 -0.0324 -0.3069
  919YOPE   C1A13519  19.038   5.732   6.122  0.0428  0.1156  0.3125
  919YOPE   D2A13520  19.176   5.780   6.572 -0.0894  0.1898 -0.0600
  919YOPE   C3A13521  19.468   5.851   6.853  0.0889  0.1720 -0.0997
  919YOPE   C4A13522  19.797   6.078   7.130 -0.0005 -0.1551  0.0272
  919YOPE   C1B13523  19.129   6.176   6.227  0.2060  0.1119  0.0775
  919YOPE   C2B13524  19.302   6.318   6.662  0.1765  0.0855 -0.0338
  919YOPE   D3B13525  19.257   6.307   7.098  0.1792  0.1730 -0.2246
  919YOPE   C4B13526  19.396   6.054   7.567  0.2627 -0.1474 -0.1120
  920YOPE   NH313527  17.440   7.315   6.002 -0.0961  0.2092  0.1041
  920YOPE   PO413528  17.152   6.964   6.048 -0.0810  0.2797  0.0625
  920YOPE   GL113529  16.774   6.665   6.320  0.3182 -0.0364  0.0820
  920YOPE   GL213530  16.494   6.487   6.299 -0.0237  0.1978  0.0658
  920YOPE   C1A13531  16.837   6.739   6.719  0.1639  0.2456 -0.0275
  920YOPE   D2A13532  16.953   6.930   7.053  0.0854  0.1925  0.2452
  920YOPE   C3A13533  17.110   6.665   7.449  0.1371  0.1859  0.1815
  920YOPE   C4A13534  16.947   6.519   7.824  0.0197 -0.1745  0.1335
  920YOPE   C1B13535  16.395   6.474   6.721 -0.0078 -0.0972  0.0522
  920YOPE   C2B13536  16.668   6.427   7.218 -0.1442 -0.1682  0.2321
  920YOPE   D3B13537  16.514   6.416   7.565 -0.3659  0.1789  0.0255
  920YOPE   C4B13538  16.338   6.738   7.857 -0.5115 -0.2085  0.0916
  921YOPE   NH313539   7.482  15.490   5.528  0.0219  0.0337 -0.2860
  921YOPE   PO413540   7.354  15.142   5.601  0.2044  0.3622 -0.0056
  921YOPE   GL113541   7.345  14.914   5.930  0.0789  0.2844 -0.0259
  921YOPE   GL213542   7.689  14.897   6.109 -0.0647 -0.0987  0.2674
  921YOPE   C1A13543   7.153  14.603   6.178 -0.0228 -0.1805  0.0731
  921YOPE   D2A13544   7.167  14.162   6.412 -0.0141 -0.0164  0.1470
  921YOPE   C3A13545   7.254  13.689   6.230 -0.1837 -0.2145 -0.3131
  921YOPE   C4A13546   6.980  13.355   6.182 -0.1557 -0.0112  0.1171
  921YOPE   C1B13547   7.484  14.904   6.446  0.1647 -0.1065 -0.3467
  921YOPE   C2B13548   7.412  15.013   6.877 -0.2501  0.0266  0.2122
  921YOPE   D3B13549   7.388  14.986   7.293  0.0166  0.0379 -0.3691
  921YOPE   C4B13550   7.342  15.014   7.787 -0.1130  0.0842  0.5306
  922YOPE   NH313551   6.968   4.274   4.983 -0.2001 -0.1374  0.0598
  922YOPE   PO413552   7.513   4.467   5.112 -0.1120 -0.0231  0.2544
  922YOPE   GL113553   7.296   4.236   5.445  0.0886  0.0905 -0.3215
  922YOPE   GL213554   7.424   4.310   5.667 -0.2082 -0.1564  0.2642
  922YOPE   C1A13555   7.407   3.849   5.733 -0.1135 -0.1025 -0.0849
  922YOPE   D2A13556   7.743   3.634   5.944  0.0926  0.0050 -0.1876
  922YOPE   C3A13557   7.801   3.707   6.217 -0.3849  0.0025 -0.0555
  922YOPE   C4A13558   7.939   3.714   6.604  0.0318 -0.1681 -0.0102
  922YOPE   C1B13559   7.629   4.206   6.036 -0.2907  0.1609 -0.0988
  922YOPE   C2B13560   7.827   4.203   6.504  0.1674  0.1622  0.0236
  922YOPE   D3B13561   8.032   4.177   6.878 -0.0195 -0.3908 -0.1319
  922YOPE   C4B13562   8.367   3.978   6.948  0.3119 -0.2226  0.3718
  923YOPE   NH313563   2.005  12.458   5.439  0.0778  0.1693  0.2775
  923YOPE   PO413564   2.394  12.737   5.603  0.0657  0.4866  0.0041
  923YOPE   GL113565   2.633  12.644   5.985  0.1498 -0.0530  0.0368
  923YOPE   GL213566   2.397  12.794   6.092  0.0186 -0.3134  0.2512
  923YOPE   C1A13567   2.861  12.642   6.308  0.0616  0.1565 -0.2300
  923YOPE   D2A13568   2.925  12.436   6.685  0.1172 -0.1952 -0.0139
  923YOPE   C3A13569   2.836  12.481   7.060 -0.0672 -0.0437  0.0478
  923YOPE   C4A13570   3.028  12.291   7.456 -0.2482  0.1271  0.1398
  923YOPE   C1B13571   2.716  13.108   6.177 -0.1006  0.0111 -0.1453
  923YOPE   C2B13572   2.916  13.379   6.453 -0.0789  0.2002 -0.0185
  923YOPE   D3B13573   2.874  13.516   6.836  0.2283  0.3314  0.1096
  923YOPE   C4B13574   2.606  13.738   6.922  0.0989  0.3750  0.1685
  924YOPE   NH313575   0.253   6.082   5.310  0.2708  0.0094  0.1926
  924YOPE   PO413576   0.499   6.417   5.476 -0.1959  0.3466  0.1357
  924YOPE   GL113577   0.364   6.597   5.892 -0.0020  0.1439  0.0483
  924YOPE   GL213578   0.105   6.850   5.858 -0.0219  0.2424 -0.0647
  924YOPE   C1A13579   0.327   6.698   6.292  0.0115  0.1013 -0.0958
  924YOPE   D2A13580   0.086   6.637   6.684  0.0299  0.2243  0.3253
  924YOPE   C3A13581   0.305   6.858   7.024  0.1877  0.1784 -0.1009
  924YOPE   C4A13582   0.182   6.953   7.421  0.3940 -0.0184 -0.0232
  924YOPE   C1B13583  -0.160   6.656   6.225  0.0884 -0.1233  0.0407
  924YOPE   C2B13584  -0.097   6.233   6.386 -0.0632 -0.1503 -0.0341
  924YOPE   D3B13585  -0.366   5.956   6.625 -0.1476  0.2073 -0.4320
  924YOPE   C4B13586  -0.436   5.840   6.968 -0.2308 -0.1400  0.2728
  925YOPE   NH313587  10.972  12.985   5.797  0.1077  0.1197 -0.3954
  925YOPE   PO413588  11.290  13.005   6.113  0.2313  0.1853  0.2326
  925YOPE   GL113589  11.315  12.964   6.499  0.1221  0.1471 -0.0174
  925YOPE   GL213590  11.588  12.798   6.691  0.1508 -0.0306 -0.4703
  925YOPE   C1A13591  11.251  13.098   6.930  0.0212  0.2602  0.1421
  925YOPE   D2A13592  11.213  13.186   7.371 -0.0752 -0.2536  0.2831
  925YOPE   C3A13593  11.181  12.963   7.783 -0.1989  0.0821  0.3343
  925YOPE   C4A13594  11.302  12.928   8.287  0.2751  0.3172  0.1239
  925YOPE   C1B13595  11.650  12.715   7.049 -0.0933 -0.0602  0.1165
  925YOPE   C2B13596  11.584  12.796   7.446  0.3494 -0.2941  0.0914
  925YOPE   D3B13597  11.679  12.890   7.863 -0.3423 -0.2569  0.0267
  925YOPE   C4B13598  11.804  13.169   8.233  0.1423  0.1855 -0.0692
  926YOPE   NH313599  12.494  13.429   6.073  0.1683 -0.1029 -0.1282
  926YOPE   PO413600  12.129  13.495   6.020 -0.0332  0.1298  0.2141
  926YOPE   GL113601  12.180  13.436   6.439 -0.0287  0.1277 -0.2208
  926YOPE   GL213602  12.205  13.302   6.614  0.1083  0.1982  0.3658
  926YOPE   C1A13603  11.938  13.677   6.846  0.2766 -0.3899  0.0043
  926YOPE   D2A13604  11.920  13.656   7.298  0.2184 -0.7196 -0.0980
  926YOPE   C3A13605  12.065  13.911   7.624  0.2425 -0.0433 -0.2090
  926YOPE   C4A13606  12.188  13.902   8.011 -0.1135 -0.1029  0.0375
  926YOPE   C1B13607  12.118  13.278   7.003  0.0001 -0.1624  0.4182
  926YOPE   C2B13608  12.020  13.140   7.520 -0.0984  0.0437 -0.2934
  926YOPE   D3B13609  12.240  13.036   7.908  0.1682  0.0612  0.0106
  926YOPE   C4B13610  12.155  12.718   8.366 -0.0775 -0.0375 -0.2942
  927YOPE   NH313611  17.683   5.730   5.027 -0.0710  0.0172 -0.0675
  927YOPE   PO413612  17.447   6.072   5.174  0.0673 -0.1520 -0.2207
  927YOPE   GL113613  17.634   5.911   5.614 -0.1436 -0.0241  0.2384
  927YOPE   GL213614  17.418   5.819   5.879 -0.1549 -0.0022  0.1818
  927YOPE   C1A13615  17.762   6.137   6.000  0.1014  0.5689 -0.0008
  927YOPE   D2A13616  17.962   5.891   6.329 -0.0107  0.0690 -0.1014
  927YOPE   C3A13617  18.210   5.529   6.570 -0.3862  0.2371 -0.0360
  927YOPE   C4A13618  18.039   5.221   6.808 -0.2552  0.0719 -0.5115
  927YOPE   C1B13619  17.330   5.927   6.300  0.1210 -0.1824 -0.2933
  927YOPE   C2B13620  17.373   6.032   6.711  0.0012  0.0971  0.0539
  927YOPE   D3B13621  17.432   5.851   7.075  0.0505  0.0831  0.0604
  927YOPE   C4B13622  17.225   5.673   7.486 -0.3012  0.1569  0.3738
  928YOPE   NH313623   0.204  11.214   5.655  0.1131  0.0576  0.0510
  928YOPE   PO413624   0.340  10.779   5.741  0.0959 -0.3123  0.0643
  928YOPE   GL113625  -0.039  10.770   6.048  0.1958  0.3136 -0.0737
  928YOPE   GL213626  -0.328  10.881   5.916 -0.1228 -0.0146 -0.0966
  928YOPE   C1A13627  -0.121  10.747   6.433  0.1130 -0.3012  0.1680
  928YOPE   D2A13628  -0.216  10.809   6.816 -0.2701  0.2457  0.1235
  928YOPE   C3A13629  -0.002  10.604   7.229  0.3274 -0.0779 -0.3562
  928YOPE   C4A13630   0.125  10.420   7.621  0.0685  0.2398 -0.3014
  928YOPE   C1B13631  -0.166  11.249   6.206 -0.0420 -0.0304 -0.0753
  928YOPE   C2B13632   0.051  11.338   6.593  0.0578  0.0010 -0.2920
  928YOPE   D3B13633   0.259  11.655   6.884 -0.0559 -0.0366  0.1673
  928YOPE   C4B13634   0.296  12.000   7.160 -0.0099 -0.0153  0.0852
  929YOPE   NH313635  12.697   4.653   5.796 -0.1312 -0.0009 -0.0716
  929YOPE   PO413636  13.153   4.772   5.543  0.0627 -0.0629 -0.2260
  929YOPE   GL113637  13.455   4.614   5.914  0.0142  0.0887  0.4243
  929YOPE   GL213638  13.183   4.729   6.108 -0.0624 -0.0568 -0.2112
  929YOPE   C1A13639  13.645   4.590   6.298  0.1404  0.0244 -0.0315
  929YOPE   D2A13640  13.755   4.837   6.632 -0.2638 -0.1032 -0.1196
  929YOPE   C3A13641  13.675   4.886   6.986 -0.0954  0.0925  0.2881
  929YOPE   C4A13642  13.511   5.166   7.364  0.0639 -0.2975 -0.0205
  929YOPE   C1B13643  13.183   4.716   6.553 -0.1953  0.0374 -0.1216
  929YOPE   C2B13644  13.184   4.846   7.016  0.0174 -0.2231  0.2225
  929YOPE   D3B13645  12.973   4.808   7.363 -0.1426 -0.0023  0.1334
  929YOPE   C4B13646  13.055   4.840   7.836 -0.0352  0.0913  0.1852
  930YOPE   NH313647  16.013  15.053   6.125  0.0818  0.0378  0.1766
  930YOPE   PO413648  16.249  15.379   5.932  0.2638 -0.0038 -0.0513
  930YOPE   GL113649  16.504  15.652   6.373 -0.0424 -0.2593  0.0423
  930YOPE   GL213650  16.609  16.040   6.452  0.2454 -0.1253 -0.2179
  930YOPE   C1A13651  16.605  15.671   6.880 -0.1706  0.3288 -0.3710
  930YOPE   D2A13652  16.648  15.680   7.361  0.3133  0.2236 -0.2017
  930YOPE   C3A13653  16.838  15.576   7.710  0.1464 -0.0164 -0.0445
  930YOPE   C4A13654  17.180  15.749   7.982 -0.0089  0.1489 -0.1818
  930YOPE   C1B13655  16.584  16.196   6.848 -0.0157 -0.0521  0.2045
  930YOPE   C2B13656  16.583  16.292   7.250 -0.1138  0.0708  0.0516
  930YOPE   D3B13657  16.348  16.476   7.494 -0.2191  0.2094  0.0988
  930YOPE   C4B13658  16.427  16.586   7.881 -0.1567 -0.0426  0.0603
  931YOPE   NH313659   3.437  11.327   5.201  0.2800  0.5357 -0.0223
  931YOPE   PO413660   3.716  11.600   5.557 -0.4859 -0.0742 -0.0789
  931YOPE   GL113661   3.760  11.741   5.936  0.2132 -0.0998  0.0602
  931YOPE   GL213662   4.056  11.875   6.046  0.0209 -0.3080 -0.1897
  931YOPE   C1A13663   3.574  11.601   6.311 -0.1776 -0.0236 -0.1770
  931YOPE   D2A13664   3.107  11.616   6.460 -0.4819  0.0033 -0.1243
  931YOPE   C3A13665   2.757  11.622   6.142 -0.0618 -0.2760 -0.2460
  931YOPE   C4A13666   2.492  11.660   5.911 -0.2230  0.0870 -0.0032
  931YOPE   C1B13667   4.033  11.676   6.415 -0.2577 -0.2159 -0.0033
  931YOPE   C2B13668   3.905  11.473   6.748 -0.2444 -0.1560 -0.3512
  931YOPE   D3B13669   3.857  11.244   7.056 -0.2806 -0.1452  0.1762
  931YOPE   C4B13670   4.150  10.987   7.333  0.2189  0.1077  0.0550
  932YOPE   NH313671  10.611   4.066   5.693  0.0288 -0.0764  0.4503
  932YOPE   PO413672  10.829   4.406   5.564 -0.5564 -0.1739 -0.0287
  932YOPE   GL113673  10.948   4.308   6.064  0.4048 -0.0911  0.1493
  932YOPE   GL213674  10.991   4.619   6.038 -0.0408  0.1259 -0.1073
  932YOPE   C1A13675  10.731   4.187   6.421 -0.3098  0.3243 -0.4006
  932YOPE   D2A13676  10.460   3.955   6.709  0.1969  0.1374  0.3022
  932YOPE   C3A13677  10.445   3.975   7.083  0.2345 -0.0283  0.2738
  932YOPE   C4A13678  10.136   3.863   7.271  0.1257 -0.1553 -0.0618
  932YOPE   C1B13679  10.865   4.641   6.438  0.0016 -0.1012  0.2228
  932YOPE   C2B13680  10.751   4.535   6.906  0.2191 -0.3727  0.3241
  932YOPE   D3B13681  11.008   4.486   7.413  0.1907  0.3055  0.4184
  932YOPE   C4B13682  11.259   4.406   7.823 -0.4140 -0.1226 -0.2780
  933YOPE   NH313683   1.541   6.923   5.225 -0.2156  0.0057  0.2003
  933YOPE   PO413684   1.933   7.264   5.298  0.2068  0.0225  0.4225
  933YOPE   GL113685   2.272   7.341   5.488 -0.0392  0.3918 -0.2897
  933YOPE   GL213686   2.091   7.295   5.782 -0.3345 -0.2416  0.4940
  933YOPE   C1A13687   2.562   7.565   5.746 -0.0776  0.0526 -0.2890
  933YOPE   D2A13688   2.901   7.566   6.073 -0.1856 -0.0975  0.1113
  933YOPE   C3A13689   3.119   7.934   6.197 -0.0223 -0.0878  0.2014
  933YOPE   C4A13690   3.408   7.988   6.529 -0.1662 -0.0742  0.1373
  933YOPE   C1B13691   1.775   7.300   6.075  0.0936  0.0495  0.0271
  933YOPE   C2B13692   1.744   7.373   6.485  0.0373 -0.0554 -0.0212
  933YOPE   D3B13693   1.790   7.291   6.853 -0.3111 -0.2430 -0.3499
  933YOPE   C4B13694   1.474   7.447   7.163 -0.0689 -0.1737  0.2954
  934YOPE   NH313695  17.178   2.775   5.553  0.0233 -0.1321 -0.3310
  934YOPE   PO413696  17.573   2.917   5.636  0.0289 -0.0956  0.1318
  934YOPE   GL113697  17.433   2.858   5.954 -0.2664  0.1994 -0.0683
  934YOPE   GL213698  17.423   2.644   6.077 -0.2137 -0.0581  0.3187
  934YOPE   C1A13699  17.349   3.161   6.303 -0.3491  0.0502 -0.0064
  934YOPE   D2A13700  17.298   3.351   6.712 -0.0789  0.1957 -0.0256
  934YOPE   C3A13701  17.146   3.343   7.149 -0.0482  0.0173 -0.4281
  934YOPE   C4A13702  17.157   3.241   7.558 -0.1174  0.0089 -0.1036
  934YOPE   C1B13703  17.553   2.662   6.523 -0.0467 -0.1219  0.0192
  934YOPE   C2B13704  17.725   2.508   6.879 -0.2204 -0.0064  0.0090
  934YOPE   D3B13705  17.675   2.653   7.223  0.0519 -0.4204 -0.0285
  934YOPE   C4B13706  17.536   2.615   7.623 -0.0272 -0.2037 -0.1098
  935YOPE   NH313707  11.023  14.284   5.959 -0.0568  0.1847 -0.1097
  935YOPE   PO413708  10.850  13.889   6.027  0.0595  0.0746 -0.2182
  935YOPE   GL113709  10.763  13.712   6.295  0.0974  0.0536  0.1141
  935YOPE   GL213710  10.785  13.420   6.311  0.2124 -0.1727  0.2413
  935YOPE   C1A13711  10.721  13.822   6.711 -0.3386 -0.0068  0.2290
  935YOPE   D2A13712  10.687  14.002   7.113 -0.0716 -0.1468  0.0989
  935YOPE   C3A13713  10.677  14.441   7.132 -0.2854 -0.2049  0.0133
  935YOPE   C4A13714  10.659  14.833   6.933 -0.1060 -0.1734  0.2348
  935YOPE   C1B13715  10.868  13.366   6.699 -0.3625 -0.0281  0.1429
  935YOPE   C2B13716  10.845  13.450   7.051  0.2033  0.0025  0.1580
  935YOPE   D3B13717  10.896  13.570   7.371  0.3431 -0.0460 -0.0059
  935YOPE   C4B13718  10.924  13.633   7.797 -0.0285 -0.0359 -0.1268
  936YOPE   NH313719  17.687  15.422   5.480  0.2205 -0.1682 -0.2576
  936YOPE   PO413720  17.309  15.170   5.682  0.4476  0.3012 -0.1746
  936YOPE   GL113721  17.234  15.344   6.128  0.1855  0.0708 -0.2054
  936YOPE   GL213722  17.054  15.598   6.151 -0.1698  0.1425  0.1409
  936YOPE   C1A13723  17.359  15.443   6.601 -0.2283  0.1588 -0.0421
  936YOPE   D2A13724  17.150  15.446   7.054  0.0272 -0.0144  0.0546
  936YOPE   C3A13725  17.274  15.594   7.503  0.1374  0.0114  0.2404
  936YOPE   C4A13726  17.641  15.657   7.704 -0.1330 -0.0618  0.0711
  936YOPE   C1B13727  16.837  15.363   6.526  0.0112  0.0145  0.1516
  936YOPE   C2B13728  16.616  15.166   6.936 -0.1590 -0.0699  0.0750
  936YOPE   D3B13729  16.785  15.210   7.347 -0.0790 -0.2653  0.2593
  936YOPE   C4B13730  16.968  15.103   7.790  0.2303 -0.0021  0.0189
  937YOPE   NH313731  13.282   3.860   5.786 -0.1027 -0.2412  0.1980
  937YOPE   PO413732  13.716   3.726   5.784 -0.1893 -0.0411  0.3121
  937YOPE   GL113733  13.585   3.709   6.181 -0.0742 -0.0860  0.0596
  937YOPE   GL213734  13.472   3.455   6.174  0.0048 -0.4532  0.0757
  937YOPE   C1A13735  13.588   3.842   6.525  0.2659  0.1535 -0.1741
  937YOPE   D2A13736  13.789   4.214   6.660  0.0563  0.0414 -0.1375
  937YOPE   C3A13737  13.760   4.328   7.021  0.3149 -0.1382  0.0488
  937YOPE   C4A13738  13.773   4.159   7.457 -0.1316 -0.1482 -0.2714
  937YOPE   C1B13739  13.429   3.337   6.485 -0.0286 -0.1270  0.0422
  937YOPE   C2B13740  13.465   3.452   6.912 -0.2284  0.1802 -0.1201
  937YOPE   D3B13741  13.668   3.458   7.280  0.3497  0.0650  0.2498
  937YOPE   C4B13742  13.605   3.681   7.612  0.1399  0.1613 -0.1163
  938YOPE   NH313743   0.594   6.877   5.553  0.0793  0.2162  0.0255
  938YOPE   PO413744   1.033   6.993   5.398 -0.1266  0.2207  0.0795
  938YOPE   GL113745   1.139   7.006   5.840  0.0506  0.4083 -0.0155
  938YOPE   GL213746   1.387   6.712   5.698  0.1665 -0.3061 -0.4218
  938YOPE   C1A13747   1.231   7.018   6.212 -0.0685  0.1855  0.0277
  938YOPE   D2A13748   1.116   7.020   6.523  0.0901  0.2918  0.2935
  938YOPE   C3A13749   1.290   6.969   6.973  0.1163 -0.0406 -0.1940
  938YOPE   C4A13750   1.396   6.673   7.360  0.1767  0.1569  0.1785
  938YOPE   C1B13751   1.459   6.568   6.094 -0.2450 -0.0017 -0.3055
  938YOPE   C2B13752   1.622   6.808   6.523 -0.1525 -0.1031  0.1348
  938YOPE   D3B13753   1.732   6.756   6.942  0.3706  0.2547 -0.0284
  938YOPE   C4B13754   1.825   6.929   7.312 -0.2324 -0.0606  0.0471
  939YOPE   NH313755  13.810   1.264   5.922 -0.2091 -0.2088  0.1452
  939YOPE   PO413756  13.446   1.266   6.219 -0.3178  0.1956  0.0562
  939YOPE   GL113757  13.144   1.500   6.276  0.1165 -0.2314 -0.0138
  939YOPE   GL213758  13.183   1.774   6.430  0.2117 -0.1442 -0.0042
  939YOPE   C1A13759  12.843   1.471   6.706  0.2004  0.0921 -0.5862
  939YOPE   D2A13760  12.563   1.340   7.083  0.3684 -0.2438 -0.0686
  939YOPE   C3A13761  12.782   1.323   7.474 -0.1996 -0.2215 -0.3090
  939YOPE   C4A13762  12.796   1.020   7.824 -0.0037 -0.3216  0.2910
  939YOPE   C1B13763  13.367   1.725   6.701 -0.1349  0.1879 -0.1148
  939YOPE   C2B13764  13.596   1.653   7.060  0.2320  0.0527 -0.2372
  939YOPE   D3B13765  14.072   1.705   7.151  0.0307 -0.2220 -0.0877
  939YOPE   C4B13766  14.245   1.785   7.633  0.0009  0.0982 -0.1684
  940YOPE   NH313767   1.255  13.013   5.205 -0.0513  0.0927  0.1415
  940YOPE   PO413768   0.947  12.700   5.442 -0.0252  0.1277  0.1217
  940YOPE   GL113769   1.100  12.439   5.769  0.2726 -0.2592  0.0304
  940YOPE   GL213770   1.094  12.625   6.012  0.0287  0.5141  0.1234
  940YOPE   C1A13771   0.935  12.074   6.051 -0.0838  0.2225 -0.2305
  940YOPE   D2A13772   0.572  12.143   6.379 -0.1193  0.0035 -0.2786
  940YOPE   C3A13773   0.694  11.999   6.738  0.2305 -0.0876 -0.2809
  940YOPE   C4A13774   0.844  11.967   7.188 -0.0397 -0.0159  0.2378
  940YOPE   C1B13775   1.029  12.501   6.418  0.0524  0.1198  0.1716
  940YOPE   C2B13776   1.273  12.559   6.826  0.3061 -0.2964 -0.0077
  940YOPE   D3B13777   1.090  12.836   7.130 -0.2005 -0.0843 -0.0609
  940YOPE   C4B13778   0.978  12.704   7.562 -0.0297  0.0652  0.0855
  941POPC   NC313779   0.212   8.430   5.330  0.2004 -0.1581  0.1159
  941POPC   PO413780   0.654   8.545   5.315  0.0482  0.0356 -0.0456
  941POPC   GL113781   0.564   8.236   5.605 -0.2164 -0.1453  0.3003
  941POPC   GL213782   0.886   8.278   5.755 -0.1377  0.0009 -0.2867
  941POPC   C1A13783   0.295   8.244   5.976 -0.1367 -0.0092 -0.0630
  941POPC   D2A13784   0.241   8.069   6.392  0.1064  0.0331  0.0731
  941POPC   C3A13785  -0.098   8.142   6.666 -0.2518 -0.0112 -0.0911
  941POPC   C4A13786  -0.199   8.083   7.029 -0.0719  0.3442  0.2999
  941POPC   C1B13787   0.727   8.309   6.226  0.0694  0.0005 -0.0530
  941POPC   C2B13788   0.484   8.381   6.695  0.0934 -0.1320  0.0908
  941POPC   C3B13789   0.509   8.203   7.016 -0.1392  0.0568  0.1114
  941POPC   C4B13790   0.597   8.284   7.441 -0.2222 -0.0552  0.2378
  942POPC   NC313791   7.225  13.610   5.326  0.0080 -0.0843  0.1030
  942POPC   PO413792   7.085  14.053   5.506  0.1531 -0.0986 -0.2336
  942POPC   GL113793   7.031  14.047   5.972 -0.0620 -0.1715  0.1238
  942POPC   GL213794   6.746  14.331   6.198  0.0777  0.0898 -0.0816
  942POPC   C1A13795   6.764  13.855   6.342 -0.1518  0.0488  0.0367
  942POPC   D2A13796   6.786  13.776   6.890  0.2672 -0.0018  0.2543
  942POPC   C3A13797   6.733  13.418   7.134  0.1931  0.1657 -0.1174
  942POPC   C4A13798   6.420  13.316   7.471 -0.1519  0.0132  0.1883
  942POPC   C1B13799   6.652  14.290   6.684  0.1478  0.0921 -0.0110
  942POPC   C2B13800   6.636  14.340   7.150  0.2967  0.2540 -0.2433
  942POPC   C3B13801   6.775  13.993   7.508 -0.0786  0.0565  0.1103
  942POPC   C4B13802   7.158  13.954   7.728 -0.2034  0.3436  0.2298
  943POPC   NC313803   6.849   8.238   5.487  0.0043 -0.0945  0.0189
  943POPC   PO413804   6.456   8.190   5.272 -0.0534 -0.2892  0.1082
  943POPC   GL113805   6.369   8.232   5.740 -0.5325  0.0139 -0.2011
  943POPC   GL213806   6.073   8.340   5.746 -0.1541 -0.1367 -0.0832
  943POPC   C1A13807   6.426   8.457   6.155  0.0762  0.0244  0.0021
  943POPC   D2A13808   6.358   8.683   6.512 -0.0205 -0.0949  0.1967
  943POPC   C3A13809   6.543   8.874   6.916  0.1314  0.1161  0.4365
  943POPC   C4A13810   6.471   9.027   7.198 -0.0776  0.0572  0.1325
  943POPC   C1B13811   5.872   8.613   6.030 -0.2239  0.1557  0.1111
  943POPC   C2B13812   5.519   8.580   6.166  0.3216 -0.2865  0.0763
  943POPC   C3B13813   5.487   8.517   6.682 -0.1185 -0.1961  0.8379
  943POPC   C4B13814   5.564   8.604   7.033  0.1526 -0.3486  0.0237
  944POPC   NC313815   6.559   7.043   5.065  0.1696 -0.0697 -0.1475
  944POPC   PO413816   6.522   7.232   5.448 -0.0070  0.1323 -0.1987
  944POPC   GL113817   6.353   7.392   5.796  0.1030  0.0109 -0.2410
  944POPC   GL213818   6.601   7.476   6.006  0.0701  0.2034 -0.0784
  944POPC   C1A13819   6.119   7.373   6.219 -0.1759  0.2410  0.0181
  944POPC   D2A13820   6.132   7.244   6.593 -0.0509  0.1155 -0.2029
  944POPC   C3A13821   5.856   6.922   6.589  0.1838  0.2765  0.0698
  944POPC   C4A13822   5.913   6.551   6.638 -0.2554 -0.0709 -0.0544
  944POPC   C1B13823   6.556   7.432   6.391  0.1463  0.0702 -0.0699
  944POPC   C2B13824   6.545   7.276   6.869 -0.2025  0.0762 -0.3225
  944POPC   C3B13825   6.395   7.327   7.195 -0.0688 -0.0059 -0.3245
  944POPC   C4B13826   6.396   7.590   7.521  0.1688 -0.1581  0.3476
  945POPC   NC313827   8.669  10.673   5.533 -0.2396  0.1286 -0.2768
  945POPC   PO413828   8.409  10.345   5.408 -0.0908  0.3304  0.3108
  945POPC   GL113829   8.472  10.323   5.882  0.2130 -0.1968 -0.0101
  945POPC   GL213830   8.728  10.568   6.015  0.0136 -0.0412  0.0074
  945POPC   C1A13831   8.804  10.196   6.260 -0.0875 -0.3664 -0.1608
  945POPC   D2A13832   8.681   9.960   6.719  0.1049  0.3695 -0.1884
  945POPC   C3A13833   8.780   9.970   7.134  0.3447 -0.0572 -0.1357
  945POPC   C4A13834   9.037   9.951   7.499 -0.0299  0.1810  0.0578
  945POPC   C1B13835   8.802  10.652   6.488  0.1126 -0.2096  0.2911
  945POPC   C2B13836   8.886  10.909   6.762 -0.2315  0.3508  0.1628
  945POPC   C3B13837   8.795  10.780   7.194 -0.3941 -0.2822  0.2575
  945POPC   C4B13838   8.699  10.671   7.644  0.0419  0.1169 -0.0252
  946POPC   NC313839  11.295  17.708   5.944 -0.0812  0.1582  0.0762
  946POPC   PO413840  11.759  17.514   5.831 -0.0217  0.1039 -0.0962
  946POPC   GL113841  11.665  17.387   6.271  0.2624  0.0906 -0.1175
  946POPC   GL213842  11.402  17.333   6.224  0.2026  0.1028 -0.1753
  946POPC   C1A13843  11.702  17.558   6.686  0.0859 -0.2171 -0.0621
  946POPC   D2A13844  11.660  17.637   7.070  0.2491 -0.2240  0.3955
  946POPC   C3A13845  11.455  17.574   7.337  0.0453 -0.0949  0.1641
  946POPC   C4A13846  11.307  17.187   7.579 -0.3301 -0.0745 -0.3599
  946POPC   C1B13847  11.212  17.532   6.596  0.1142  0.1938  0.2048
  946POPC   C2B13848  10.991  17.542   7.007  0.1480 -0.0901 -0.1571
  946POPC   C3B13849  10.871  17.265   7.357  0.3853  0.1560  0.2002
  946POPC   C4B13850  10.794  17.056   7.754  0.0203  0.1049  0.0251
  947POPC   NC313851  13.781  18.365   5.561 -0.1123 -0.0188  0.2556
  947POPC   PO413852  13.972  18.814   5.716 -0.2576 -0.0277  0.0833
  947POPC   GL113853  14.084  18.704   6.037 -0.4357  0.0732  0.0572
  947POPC   GL213854  14.364  18.571   6.156 -0.3938  0.2361 -0.2042
  947POPC   C1A13855  13.976  18.803   6.465  0.1584 -0.0315  0.1789
  947POPC   D2A13856  14.080  18.646   6.911  0.2242  0.2269 -0.0195
  947POPC   C3A13857  14.423  18.709   7.245 -0.0043 -0.0313  0.2832
  947POPC   C4A13858  14.719  18.825   7.711  0.1458 -0.1178  0.4432
  947POPC   C1B13859  14.418  18.552   6.563 -0.2757  0.1841 -0.0208
  947POPC   C2B13860  14.493  18.336   6.872 -0.1271 -0.4787 -0.0903
  947POPC   C3B13861  14.724  18.274   7.298 -0.0163 -0.1081  0.3022
  947POPC   C4B13862  14.913  18.358   7.671 -0.0775  0.1825 -0.0539
  948POPC   NC313863  16.975   1.477   5.560 -0.0346  0.0106 -0.5332
  948POPC   PO413864  17.134   1.172   5.830  0.0510  0.0391  0.2489
  948POPC   GL113865  17.134   1.169   6.214 -0.0450  0.2317 -0.0912
  948POPC   GL213866  17.369   1.337   6.477 -0.1565  0.0299  0.5917
  948POPC   C1A13867  17.020   0.944   6.554  0.2030  0.2319 -0.0869
  948POPC   D2A13868  16.696   1.069   6.795  0.0224  0.0785  0.4317
  948POPC   C3A13869  16.390   0.933   7.027 -0.1456 -0.0324  0.0770
  948POPC   C4A13870  16.100   1.317   7.314 -0.1301 -0.0924  0.2373
  948POPC   C1B13871  17.245   1.210   6.940 -0.0080  0.1486 -0.0919
  948POPC   C2B13872  17.118   0.817   7.099  0.2591 -0.0158 -0.1752
  948POPC   C3B13873  17.151   0.533   7.432  0.1962  0.0900 -0.0902
  948POPC   C4B13874  17.077   0.129   7.571 -0.0158 -0.0132  0.0278
  949POPC   NC313875   3.121   1.118   5.008  0.0696 -0.0925  0.0474
  949POPC   PO413876   3.301   0.987   5.351 -0.0991 -0.1192  0.0313
  949POPC   GL113877   3.226   0.924   5.776  0.0252 -0.0938  0.1634
  949POPC   GL213878   3.523   0.967   5.987 -0.0357  0.2220 -0.0335
  949POPC   C1A13879   3.151   0.707   6.108  0.0105 -0.0693 -0.3103
  949POPC   D2A13880   2.878   0.288   6.043  0.2747  0.0085 -0.1992
  949POPC   C3A13881   2.448   0.257   5.816  0.1049  0.0751  0.1473
  949POPC   C4A13882   2.137   0.118   5.953 -0.0066  0.0848  0.2652
  949POPC   C1B13883   3.637   0.739   6.301 -0.1738 -0.0222 -0.0597
  949POPC   C2B13884   3.822   0.638   6.606  0.0550 -0.3387 -0.0186
  949POPC   C3B13885   4.155   0.681   6.762  0.0962 -0.0844 -0.0843
  949POPC   C4B13886   4.382   0.370   6.996  0.0473 -0.0247 -0.0347
  950POPC   NC313887  15.540   8.940   5.301 -0.1626  0.0941 -0.0969
  950POPC   PO413888  15.582   8.945   5.784 -0.2759  0.0668 -0.0044
  950POPC   GL113889  15.407   8.915   6.048  0.0197  0.2379  0.2501
  950POPC   GL213890  15.101   8.957   6.206  0.0815  0.2383 -0.0259
  950POPC   C1A13891  15.522   8.735   6.449 -0.0092 -0.1040 -0.2255
  950POPC   D2A13892  15.485   8.655   6.868 -0.1706  0.0034  0.0205
  950POPC   C3A13893  15.891   8.571   7.060  0.1542 -0.1371  0.2297
  950POPC   C4A13894  16.261   8.626   7.184 -0.1901 -0.0772 -0.0795
  950POPC   C1B13895  15.090   8.910   6.694  0.0075 -0.2390  0.0016
  950POPC   C2B13896  15.143   8.976   7.145 -0.1988  0.3480 -0.1980
  950POPC   C3B13897  15.252   8.951   7.588  0.2938  0.2143 -0.3305
  950POPC   C4B13898  15.357   8.870   8.027 -0.2515  0.0500 -0.1460
  951POPC   NC313899   0.953  13.698   5.607 -0.1484  0.1166 -0.1738
  951POPC   PO413900   0.592  13.678   5.566  0.0172  0.2046  0.0451
  951POPC   GL113901   0.534  13.647   6.053 -0.0281 -0.0879  0.0526
  951POPC   GL213902   0.560  13.324   6.150 -0.0509  0.3903 -0.0718
  951POPC   C1A13903   0.225  13.640   6.371  0.4657  0.1635  0.0015
  951POPC   D2A13904   0.012  13.493   6.838  0.0437 -0.2730 -0.2284
  951POPC   C3A13905  -0.227  13.289   6.978 -0.0308  0.1698  0.1862
  951POPC   C4A13906  -0.649  13.241   6.879 -0.0688  0.1136 -0.1931
  951POPC   C1B13907   0.649  12.787   6.264 -0.3560  0.1551  0.1724
  951POPC   C2B13908   0.439  12.609   6.579 -0.2399 -0.0581 -0.2153
  951POPC   C3B13909   0.172  12.431   6.913  0.1014 -0.1284  0.0254
  951POPC   C4B13910  -0.095  12.445   7.305  0.2554 -0.2576  0.1521
  952POPC   NC313911  10.221  14.787   5.275  0.1694 -0.0061  0.2180
  952POPC   PO413912  10.231  14.903   5.685  0.0491 -0.0490 -0.4605
  952POPC   GL113913  10.164  14.693   6.115  0.4962  0.0931 -0.0606
  952POPC   GL213914   9.941  14.619   6.177 -0.1485  0.1212 -0.0096
  952POPC   C1A13915  10.317  14.744   6.585  0.0637 -0.1851  0.2579
  952POPC   D2A13916  10.225  14.615   6.981 -0.1401  0.2666 -0.2445
  952POPC   C3A13917  10.302  14.831   7.349 -0.2062 -0.1028  0.0224
  952POPC   C4A13918  10.178  14.606   7.698 -0.1190 -0.0011  0.1464
  952POPC   C1B13919   9.936  14.420   6.484  0.1889 -0.0324 -0.0404
  952POPC   C2B13920   9.831  14.356   6.930 -0.0903  0.0627 -0.0252
  952POPC   C3B13921   9.812  14.346   7.441 -0.2659  0.0894  0.1136
  952POPC   C4B13922   9.618  14.462   7.798  0.0850 -0.1184  0.3890
  953POPC   NC313923   3.623   4.963   5.261  0.1119 -0.0951 -0.4975
  953POPC   PO413924   3.715   5.362   5.367 -0.1785  0.0856 -0.0185
  953POPC   GL113925   3.969   5.107   5.581  0.1287 -0.1202 -0.0772
  953POPC   GL213926   3.878   5.182   5.879  0.1256  0.1497 -0.2627
  953POPC   C1A13927   4.326   5.066   5.885 -0.3070  0.0452 -0.0617
  953POPC   D2A13928   4.372   5.110   6.269  0.2091 -0.1850  0.2220
  953POPC   C3A13929   3.884   5.092   6.368  0.0196 -0.2799 -0.1887
  953POPC   C4A13930   3.687   5.216   6.692  0.3271 -0.2768  0.0987
  953POPC   C1B13931   3.670   5.504   6.174  0.2298  0.1920 -0.1698
  953POPC   C2B13932   3.571   5.763   6.469  0.0410  0.2924 -0.0911
  953POPC   C3B13933   3.743   5.823   6.956  0.0380  0.0038 -0.2607
  953POPC   C4B13934   3.520   5.921   7.341  0.0627 -0.1236 -0.2074
  954POPC   NC313935  18.595   0.856   5.211 -0.0218  0.0686  0.0756
  954POPC   PO413936  18.524   0.378   5.189  0.0878 -0.2239  0.0681
  954POPC   GL113937  18.501   0.164   5.609 -0.0292  0.3011 -0.2381
  954POPC   GL213938  18.392  -0.127   5.609 -0.1554  0.1530  0.3435
  954POPC   C1A13939  18.716   0.028   5.967  0.1475  0.1398  0.1841
  954POPC   D2A13940  18.807  -0.041   6.278 -0.1949 -0.1860  0.2492
  954POPC   C3A13941  19.258   0.071   6.500 -0.4590  0.2030  0.0624
  954POPC   C4A13942  19.226   0.425   6.862  0.0946  0.0502  0.0760
  954POPC   C1B13943  18.246  -0.069   6.004 -0.1039  0.1567  0.0674
  954POPC   C2B13944  18.372  -0.044   6.484  0.1370  0.1285 -0.1089
  954POPC   C3B13945  18.342   0.046   6.892 -0.0062 -0.2719 -0.1707
  954POPC   C4B13946  18.135   0.309   7.199 -0.0280  0.1118  0.1895
  955POPC   NC313947  12.250  17.522   5.754 -0.0879  0.2126 -0.2016
  955POPC   PO413948  12.614  17.599   5.972 -0.1021 -0.1788 -0.0794
  955POPC   GL113949  12.530  17.601   6.367 -0.0639  0.0427  0.1847
  955POPC   GL213950  12.667  17.827   6.444 -0.0358  0.0457 -0.1785
  955POPC   C1A13951  12.165  17.633   6.746  0.1965 -0.0208  0.0154
  955POPC   D2A13952  12.133  17.596   7.191 -0.2092 -0.0432 -0.0182
  955POPC   C3A13953  12.332  17.884   7.386  0.1773  0.0705  0.3075
  955POPC   C4A13954  12.529  18.227   7.600  0.0006 -0.0089  0.0050
  955POPC   C1B13955  12.894  18.173   6.598  0.0199  0.2038  0.1237
  955POPC   C2B13956  12.944  18.223   6.997 -0.0536 -0.2508 -0.0633
  955POPC   C3B13957  12.999  18.333   7.382 -0.0889  0.3700  0.0062
  955POPC   C4B13958  12.987  18.333   7.805 -0.1247 -0.0046 -0.0015
  956POPC   NC313959  10.704  16.389   6.063 -0.0531  0.0921  0.0620
  956POPC   PO413960  10.282  16.680   6.036  0.0351  0.3090  0.1501
  956POPC   GL113961  10.093  16.845   6.440 -0.0966 -0.2501  0.2282
  956POPC   GL213962   9.759  16.737   6.586 -0.0766 -0.3215 -0.0327
  956POPC   C1A13963   9.991  17.260   6.540  0.0085 -0.1232  0.3402
  956POPC   D2A13964   9.827  17.510   6.914  0.0235  0.0258  0.2564
  956POPC   C3A13965  10.160  17.675   7.040 -0.2927  0.0329  0.1424
  956POPC   C4A13966  10.527  17.666   7.241  0.0659  0.1625 -0.0522
  956POPC   C1B13967  10.006  16.904   6.963  0.0348 -0.2269 -0.1167
  956POPC   C2B13968   9.899  17.171   7.265  0.2136 -0.2807  0.3680
  956POPC   C3B13969   9.694  17.353   7.577  0.1690  0.0020 -0.2589
  956POPC   C4B13970   9.309  17.261   7.821  0.2149 -0.0867 -0.1971
  957POPC   NC313971  11.908   2.944   5.441  0.1736 -0.0864  0.2333
  957POPC   PO413972  11.713   2.883   5.801  0.4864  0.0777 -0.1428
  957POPC   GL113973  11.684   2.875   6.182 -0.0217  0.0336  0.2497
  957POPC   GL213974  11.483   3.159   6.189 -0.3106 -0.0641  0.0627
  957POPC   C1A13975  11.771   3.105   6.596  0.1498 -0.2146  0.0314
  957POPC   D2A13976  11.599   3.361   7.023 -0.0217 -0.0376 -0.0633
  957POPC   C3A13977  11.783   3.809   7.206 -0.2318 -0.0685  0.1881
  957POPC   C4A13978  11.837   3.897   7.592  0.0214 -0.1054  0.1196
  957POPC   C1B13979  11.834   3.441   6.215  0.1359 -0.2303 -0.1708
  957POPC   C2B13980  12.200   3.475   6.451  0.1048 -0.2053 -0.0947
  957POPC   C3B13981  12.528   3.639   6.352 -0.1110 -0.1653  0.0922
  957POPC   C4B13982  12.678   4.018   6.657 -0.0594 -0.2042  0.0616
  958POPC   NC313983  16.425  11.722   5.845  0.1487  0.1017 -0.0709
  958POPC   PO413984  16.783  11.580   5.654 -0.0564  0.1632  0.2106
  958POPC   GL113985  16.760  11.473   6.124 -0.1339  0.3258  0.2476
  958POPC   GL213986  16.854  11.110   6.250 -0.0344 -0.0989 -0.0315
  958POPC   C1A13987  17.098  11.480   6.507  0.0177 -0.0795 -0.0879
  958POPC   D2A13988  17.240  11.661   7.005 -0.2127 -0.1161 -0.2238
  958POPC   C3A13989  17.605  11.785   7.148  0.1354 -0.0474 -0.1266
  958POPC   C4A13990  17.745  12.188   7.375 -0.5500 -0.0557 -0.0856
  958POPC   C1B13991  16.595  11.322   6.531  0.4042 -0.0183  0.0877
  958POPC   C2B13992  16.372  11.400   6.876  0.4093  0.1246  0.0293
  958POPC   C3B13993  16.470  11.380   7.225 -0.0790  0.2413 -0.1772
  958POPC   C4B13994  16.375  11.259   7.624 -0.0888  0.1088  0.0454
  959POPC   NC313995  10.212   5.595   5.775 -0.1139  0.0415  0.1188
  959POPC   PO413996   9.953   5.887   5.664  0.1322 -0.0977  0.2566
  959POPC   GL113997   9.911   6.131   6.049  0.1230  0.1684  0.2963
  959POPC   GL213998   9.584   6.283   5.970  0.1377  0.0919 -0.0407
  959POPC   C1A13999   9.909   6.189   6.481 -0.1769  0.0471  0.0245
  959POPC   D2A14000  10.030   6.459   6.844  0.3206 -0.0376 -0.3473
  959POPC   C3A14001  10.250   6.845   7.227  0.2087 -0.0066 -0.2560
  959POPC   C4A14002  10.444   6.852   7.653 -0.3429  0.0916  0.1572
  959POPC   C1B14003   9.303   6.009   6.225  0.2591 -0.0487  0.0421
  959POPC   C2B14004   9.366   5.864   6.670 -0.0434  0.1745 -0.1677
  959POPC   C3B14005   9.567   6.053   6.994 -0.1078  0.0501 -0.1637
  959POPC   C4B14006   9.671   6.398   7.207 -0.1307 -0.1657  0.1370
  960POPC   NC314007  14.187   8.000   5.692  0.0988 -0.0927 -0.1985
  960POPC   PO414008  14.454   8.455   5.816  0.0205  0.0718 -0.1333
  960POPC   GL114009  14.501   8.120   6.079 -0.1880 -0.1440  0.2754
  960POPC   GL214010  14.698   7.886   5.883  0.1214  0.0626  0.1091
  960POPC   C1A14011  14.586   7.968   6.423 -0.4631 -0.2751  0.1523
  960POPC   D2A14012  14.703   7.931   6.899  0.0425  0.0804 -0.3758
  960POPC   C3A14013  14.914   7.978   7.299  0.1202 -0.0340  0.1327
  960POPC   C4A14014  15.214   8.004   7.528  0.1557 -0.1486  0.1636
  960POPC   C1B14015  15.032   7.948   6.155  0.1354 -0.0255  0.2186
  960POPC   C2B14016  15.100   7.923   6.658  0.0030  0.0061  0.4534
  960POPC   C3B14017  15.297   8.076   6.822 -0.4127  0.1496 -0.4316
  960POPC   C4B14018  15.617   8.174   6.913  0.0535 -0.0533  0.5181
  961POPC   NC314019  13.281  11.344   5.565  0.1028  0.0911 -0.1359
  961POPC   PO414020  13.622  11.353   5.681  0.3689 -0.1297  0.1322
  961POPC   GL114021  13.478  11.087   5.946  0.2176  0.0318  0.1373
  961POPC   GL214022  13.309  11.230   6.115  0.1347 -0.2544 -0.0860
  961POPC   C1A14023  13.781  10.971   6.314  0.0196 -0.0370  0.2874
  961POPC   D2A14024  13.876  10.810   6.766 -0.1519  0.0650 -0.0347
  961POPC   C3A14025  13.814  10.450   6.962 -0.0328 -0.2518  0.0708
  961POPC   C4A14026  13.901  10.179   7.256  0.4217  0.1840 -0.1692
  961POPC   C1B14027  13.322  11.066   6.527  0.2982  0.0145 -0.1922
  961POPC   C2B14028  13.410  10.905   6.987  0.1620  0.1463 -0.0209
  961POPC   C3B14029  13.427  10.551   7.269  0.1885  0.2269 -0.0265
  961POPC   C4B14030  13.077  10.252   7.457 -0.2319 -0.0382 -0.0303
  962POPC   NC314031   2.741  12.938   5.196 -0.2177  0.3729 -0.0622
  962POPC   PO414032   3.188  12.817   5.329  0.0140  0.2106  0.3138
  962POPC   GL114033   3.399  12.820   5.766 -0.1038 -0.1014  0.0730
  962POPC   GL214034   3.703  12.756   5.742 -0.2307  0.0528 -0.0182
  962POPC   C1A14035   3.263  12.980   6.151  0.1054 -0.1006 -0.1060
  962POPC   D2A14036   3.128  12.978   6.540 -0.0902  0.3453  0.1791
  962POPC   C3A14037   2.711  12.891   6.670  0.3724  0.3661 -0.0178
  962POPC   C4A14038   2.337  12.582   6.589 -0.3578 -0.2855  0.1541
  962POPC   C1B14039   3.681  12.723   6.139 -0.3721  0.2597 -0.1826
  962POPC   C2B14040   3.710  12.892   6.633 -0.0098  0.0996  0.1950
  962POPC   C3B14041   3.814  12.695   6.973 -0.2426  0.1848  0.2161
  962POPC   C4B14042   3.677  12.313   7.157  0.2584 -0.2345 -0.1137
  963POPC   NC314043   5.183   4.496   5.292 -0.2169  0.4225  0.1935
  963POPC   PO414044   4.726   4.420   5.128 -0.3492 -0.1313 -0.1218
  963POPC   GL114045   4.726   4.589   5.544  0.0360 -0.1959 -0.0046
  963POPC   GL214046   4.961   4.524   5.723 -0.2812  0.0050  0.0972
  963POPC   C1A14047   4.489   4.530   5.857  0.2672 -0.0116  0.0307
  963POPC   D2A14048   4.650   4.447   6.189  0.4433  0.0082 -0.4413
  963POPC   C3A14049   4.571   4.427   6.567 -0.0126 -0.0229 -0.3021
  963POPC   C4A14050   4.855   4.372   6.897 -0.0870 -0.1548 -0.2482
  963POPC   C1B14051   5.080   4.366   5.990 -0.0190 -0.4078 -0.0533
  963POPC   C2B14052   5.243   4.268   6.367  0.4059 -0.0763 -0.1013
  963POPC   C3B14053   5.193   4.040   6.802 -0.0153 -0.0791 -0.0270
  963POPC   C4B14054   5.059   3.703   7.047  0.2212  0.0496  0.1464
  964POPC   NC314055   0.732   3.677   4.950  0.1464  0.1818  0.0957
  964POPC   PO414056   1.002   3.616   5.390  0.0086 -0.0092  0.1870
  964POPC   GL114057   1.239   3.392   5.630 -0.0219 -0.3144 -0.2866
  964POPC   GL214058   1.429   3.166   5.654 -0.0035  0.1590  0.1806
  964POPC   C1A14059   1.199   3.423   6.092  0.0762  0.2468  0.0870
  964POPC   D2A14060   1.007   3.651   6.371  0.2436 -0.0570  0.1680
  964POPC   C3A14061   1.060   3.580   6.791  0.1275  0.2856 -0.1775
  964POPC   C4A14062   1.111   3.723   7.180 -0.1373 -0.2521  0.1261
  964POPC   C1B14063   1.181   2.962   5.997 -0.2348 -0.0149  0.1950
  964POPC   C2B14064   1.169   3.064   6.567 -0.1645 -0.1400  0.2781
  964POPC   C3B14065   1.133   3.095   7.135  0.1995  0.2901  0.3853
  964POPC   C4B14066   1.198   3.313   7.484  0.0212  0.1864  0.1053
  965POPC   NC314067  15.875  16.226   5.909  0.0012  0.1257 -0.1141
  965POPC   PO414068  15.741  16.651   6.088 -0.1974  0.0503 -0.0652
  965POPC   GL114069  15.867  16.953   6.405 -0.1691  0.0073 -0.1580
  965POPC   GL214070  15.794  17.299   6.374 -0.2099  0.0337  0.0672
  965POPC   C1A14071  16.216  17.023   6.720 -0.1315  0.0059  0.1274
  965POPC   D2A14072  16.546  16.788   6.796  0.1871 -0.3048 -0.0396
  965POPC   C3A14073  16.676  16.877   7.102  0.3766  0.0627 -0.2612
  965POPC   C4A14074  16.836  16.670   7.562  0.3064  0.3192 -0.2771
  965POPC   C1B14075  15.867  17.453   6.815  0.2510 -0.1243 -0.0319
  965POPC   C2B14076  15.841  17.517   7.184  0.0307  0.1036  0.0289
  965POPC   C3B14077  16.114  17.617   7.527 -0.2231 -0.2911 -0.1187
  965POPC   C4B14078  16.507  17.663   7.374 -0.1117 -0.0051  0.0047
  966POPC   NC314079   4.568   8.270   5.147 -0.0700  0.2324 -0.2013
  966POPC   PO414080   4.892   8.479   5.060  0.0916  0.2114  0.1614
  966POPC   GL114081   4.972   8.623   5.525 -0.0009 -0.2321 -0.1004
  966POPC   GL214082   5.273   8.503   5.594 -0.0211 -0.0484 -0.0617
  966POPC   C1A14083   5.094   8.727   5.972  0.2083 -0.1731  0.0311
  966POPC   D2A14084   5.235   8.996   6.347 -0.2087 -0.2360 -0.0005
  966POPC   C3A14085   5.572   9.408   6.406  0.0724 -0.1602 -0.1157
  966POPC   C4A14086   5.923   9.547   6.604  0.0774  0.1756  0.1155
  966POPC   C1B14087   5.054   8.239   5.845  0.0994 -0.2643 -0.3625
  966POPC   C2B14088   5.309   8.080   6.296 -0.2040 -0.1207 -0.2130
  966POPC   C3B14089   5.576   7.961   6.623  0.1146  0.0288  0.1136
  966POPC   C4B14090   5.458   7.734   6.934 -0.1861 -0.1343 -0.1088
  967POPC   NC314091  15.013   0.129   5.569 -0.1412 -0.1219  0.1681
  967POPC   PO414092  15.127   0.437   5.773  0.1193  0.1071  0.0745
  967POPC   GL114093  15.425   0.376   6.065  0.1781 -0.1368 -0.0127
  967POPC   GL214094  15.839   0.355   6.001  0.1580 -0.1185 -0.1909
  967POPC   C1A14095  15.559   0.544   6.411  0.0407 -0.2225 -0.0025
  967POPC   D2A14096  15.788   0.798   6.657  0.2743  0.3115  0.1569
  967POPC   C3A14097  15.913   0.849   7.146 -0.0387  0.0720  0.0629
  967POPC   C4A14098  16.209   0.573   7.333  0.1308  0.0277  0.4589
  967POPC   C1B14099  16.123   0.341   6.381  0.4373 -0.1805  0.1542
  967POPC   C2B14100  16.244   0.077   6.773  0.0086 -0.1880  0.2304
  967POPC   C3B14101  16.089   0.050   7.098 -0.1670 -0.0252  0.0814
  967POPC   C4B14102  16.046  -0.135   7.443 -0.4474 -0.3140  0.0007
  968POPC   NC314103   0.693  15.248   5.196 -0.1350  0.0096  0.2174
  968POPC   PO414104   0.380  15.397   5.458  0.1146  0.1028  0.0149
  968POPC   GL114105   0.427  15.440   5.920 -0.6076  0.2762  0.2599
  968POPC   GL214106   0.130  15.314   6.033  0.0216  0.0421 -0.1829
  968POPC   C1A14107   0.494  15.559   6.381  0.2527 -0.1054 -0.1039
  968POPC   D2A14108   0.541  15.769   6.764  0.2685  0.1181  0.0578
  968POPC   C3A14109   0.769  15.663   7.158 -0.0823  0.1933 -0.1323
  968POPC   C4A14110   0.683  15.391   7.478  0.1582 -0.1430 -0.3977
  968POPC   C1B14111   0.169  15.098   6.364  0.0663 -0.0932  0.1470
  968POPC   C2B14112   0.207  14.827   6.817  0.2023  0.0440  0.2609
  968POPC   C3B14113   0.226  14.573   7.141  0.0928 -0.2632 -0.2544
  968POPC   C4B14114   0.163  14.404   7.580 -0.1324 -0.1957  0.0664
  969POPC   NC314115   8.962  11.270   5.552  0.0199 -0.1600  0.4118
  969POPC   PO414116   8.543  11.183   5.620 -0.0425 -0.1548  0.0357
  969POPC   GL114117   8.767  11.105   5.984  0.4503 -0.3923 -0.0576
  969POPC   GL214118   8.704  11.481   5.990 -0.2815 -0.1451  0.0974
  969POPC   C1A14119   9.140  11.034   6.269  0.2506  0.0568  0.0516
  969POPC   D2A14120   9.538  11.111   6.343  0.0544  0.0292 -0.2261
  969POPC   C3A14121   9.449  10.978   6.763 -0.2084 -0.0923  0.0611
  969POPC   C4A14122   9.288  10.830   7.161 -0.3632 -0.2187 -0.2136
  969POPC   C1B14123   8.667  11.311   6.430 -0.1746 -0.0283 -0.0246
  969POPC   C2B14124   8.547  11.425   6.761  0.0673 -0.3318  0.2677
  969POPC   C3B14125   8.435  11.157   7.111  0.0868  0.0387 -0.0383
  969POPC   C4B14126   8.210  10.747   7.223 -0.0928  0.3104 -0.0497
  970POPC   NC314127  13.085   5.965   5.698 -0.1100  0.0303  0.2633
  970POPC   PO414128  12.899   6.349   5.558  0.0328 -0.0982  0.4143
  970POPC   GL114129  13.053   6.414   6.024 -0.1193  0.1474 -0.0975
  970POPC   GL214130  13.158   6.710   6.085  0.0818 -0.2097 -0.4870
  970POPC   C1A14131  13.163   6.253   6.400  0.0760  0.3010  0.3985
  970POPC   D2A14132  13.437   6.318   6.792 -0.0487 -0.0843 -0.0963
  970POPC   C3A14133  13.741   6.212   6.874 -0.1600  0.1537  0.1918
  970POPC   C4A14134  13.958   6.092   7.276 -0.1428 -0.1708  0.0115
  970POPC   C1B14135  13.380   6.749   6.463 -0.1239  0.1478 -0.3201
  970POPC   C2B14136  13.431   6.911   6.867  0.1992  0.0244 -0.0680
  970POPC   C3B14137  13.424   7.073   7.268 -0.0520  0.0678 -0.0557
  970POPC   C4B14138  13.792   7.150   7.622 -0.2070 -0.0354  0.1946
  971POPC   NC314139  18.116   7.810   5.426 -0.1497  0.3271 -0.0468
  971POPC   PO414140  18.467   7.386   5.284  0.0252 -0.3180 -0.3054
  971POPC   GL114141  18.590   7.615   5.673  0.1811 -0.3226 -0.1138
  971POPC   GL214142  18.314   7.511   5.840 -0.1913  0.0670 -0.1284
  971POPC   C1A14143  18.816   7.754   6.052  0.1532 -0.0532  0.3478
  971POPC   D2A14144  18.782   7.631   6.558  0.1710  0.0297  0.1268
  971POPC   C3A14145  18.925   7.724   6.948 -0.1143  0.1088  0.1051
  971POPC   C4A14146  19.100   7.850   7.411  0.1036  0.1073  0.0303
  971POPC   C1B14147  18.313   7.326   6.233 -0.2113 -0.2330 -0.0619
  971POPC   C2B14148  18.352   7.411   6.615  0.1351  0.1950 -0.0291
  971POPC   C3B14149  18.415   7.553   7.062 -0.0499 -0.2054 -0.0818
  971POPC   C4B14150  18.591   7.840   7.532  0.1187  0.0015  0.1996
  972POPC   NC314151  13.388  15.818   5.891 -0.1069 -0.0436 -0.1440
  972POPC   PO414152  13.585  15.394   5.815 -0.0859  0.0749 -0.1318
  972POPC   GL114153  13.687  15.552   6.174 -0.1432  0.0332 -0.2519
  972POPC   GL214154  13.822  15.877   6.313 -0.0156  0.0758  0.0649
  972POPC   C1A14155  13.888  15.430   6.658  0.0664  0.0269  0.1826
  972POPC   D2A14156  13.711  15.205   6.956  0.0467  0.3450 -0.2186
  972POPC   C3A14157  13.376  15.245   7.157 -0.0218  0.1412  0.1638
  972POPC   C4A14158  13.129  15.541   7.254  0.1476 -0.0119  0.1099
  972POPC   C1B14159  13.941  15.974   6.655  0.2383 -0.3023 -0.2985
  972POPC   C2B14160  14.074  15.829   7.035 -0.2147 -0.0824  0.0001
  972POPC   C3B14161  13.892  15.465   7.327 -0.0087  0.0949 -0.1928
  972POPC   C4B14162  13.482  15.317   7.637 -0.0410 -0.1437 -0.2365
  973POPC   NC314163  10.378  11.484   5.720  0.2492  0.2673 -0.2623
  973POPC   PO414164  10.093  11.146   5.551  0.0441 -0.0031 -0.2225
  973POPC   GL114165  10.263  11.062   6.038  0.1415 -0.1510  0.1837
  973POPC   GL214166  10.135  11.314   6.256 -0.2770  0.0285 -0.2040
  973POPC   C1A14167  10.037  10.826   6.299  0.2527  0.1375  0.2465
  973POPC   D2A14168   9.697  10.621   6.431  0.0292 -0.1117  0.1364
  973POPC   C3A14169   9.606  10.545   6.927 -0.0347  0.0596  0.3771
  973POPC   C4A14170   9.858  10.632   7.272 -0.1032  0.0549 -0.1737
  973POPC   C1B14171   9.992  11.225   6.623  0.0270  0.1769  0.0606
  973POPC   C2B14172   9.847  11.102   7.027  0.0923  0.0461  0.0130
  973POPC   C3B14173   9.772  11.117   7.438 -0.0660  0.2321  0.1667
  973POPC   C4B14174   9.559  11.232   7.857  0.1384 -0.0564 -0.3513
  974POPC   NC314175  14.581  15.713   5.824 -0.0601  0.1510 -0.0824
  974POPC   PO414176  14.770  16.015   6.046 -0.1662  0.0617 -0.1590
  974POPC   GL114177  14.613  16.041   6.401 -0.1072 -0.2228 -0.0083
  974POPC   GL214178  14.353  16.307   6.534 -0.1071 -0.0378 -0.4362
  974POPC   C1A14179  14.417  15.816   6.712  0.0460  0.1421 -0.0563
  974POPC   D2A14180  14.528  15.692   7.185  0.2840 -0.3797  0.2775
  974POPC   C3A14181  14.267  15.826   7.507  0.1386 -0.0156 -0.0024
  974POPC   C4A14182  14.393  15.903   7.872  0.4188 -0.2231 -0.0283
  974POPC   C1B14183  14.370  16.323   6.878  0.0462 -0.2072 -0.0863
  974POPC   C2B14184  14.526  16.173   7.292  0.0320  0.1132  0.4330
  974POPC   C3B14185  14.797  16.000   7.549 -0.1311 -0.0312 -0.3947
  974POPC   C4B14186  14.956  16.167   7.834 -0.0546  0.0393  0.0258
  975POPC   NC314187   8.840  18.227   5.509  0.0043 -0.0310  0.1081
  975POPC   PO414188   8.919  18.694   5.377 -0.2541 -0.0872 -0.0398
  975POPC   GL114189   8.720  18.873   5.765  0.2071 -0.0369 -0.1919
  975POPC   GL214190   8.936  19.066   5.951  0.1686  0.4788  0.4060
  975POPC   C1A14191   8.551  18.828   6.213 -0.1695 -0.0983 -0.1293
  975POPC   D2A14192   8.189  18.969   6.497 -0.1767 -0.2006  0.0325
  975POPC   C3A14193   8.245  19.068   6.915  0.0533 -0.1884 -0.2521
  975POPC   C4A14194   8.596  19.018   7.170  0.0619  0.1844 -0.3107
  975POPC   C1B14195   9.069  18.807   6.338 -0.0420 -0.3636 -0.0682
  975POPC   C2B14196   9.294  18.493   6.373 -0.1507 -0.0493 -0.0189
  975POPC   C3B14197   9.572  18.433   6.283  0.2286 -0.0231 -0.0053
  975POPC   C4B14198   9.843  18.204   6.451  0.0023  0.1403 -0.2952
  976POPC   NC314199   1.003   8.891   5.291  0.1193 -0.2539  0.1204
  976POPC   PO414200   1.443   8.983   5.388  0.2620  0.0910  0.1308
  976POPC   GL114201   1.327   9.162   5.788 -0.1826 -0.1265 -0.1465
  976POPC   GL214202   1.527   9.082   5.941  0.0452 -0.0717  0.1677
  976POPC   C1A14203   1.173   9.229   6.231  0.0785 -0.0300  0.2077
  976POPC   D2A14204   1.275   9.068   6.515 -0.2006  0.0537  0.2008
  976POPC   C3A14205   1.151   9.088   6.939 -0.0970  0.1406 -0.1198
  976POPC   C4A14206   1.028   8.778   7.196 -0.3031  0.1177  0.2364
  976POPC   C1B14207   1.712   9.327   6.241 -0.0335 -0.1124 -0.4758
  976POPC   C2B14208   2.102   9.371   6.427  0.1207  0.3083  0.2783
  976POPC   C3B14209   2.325   9.597   6.700  0.1214  0.0033 -0.0962
  976POPC   C4B14210   2.286   9.618   7.195 -0.0302  0.0110 -0.0344
  977POPC   NC314211  15.835  15.583   6.128 -0.0052 -0.1573  0.1366
  977POPC   PO414212  15.547  15.788   6.129 -0.2117  0.2503  0.1700
  977POPC   GL114213  15.694  15.678   6.575 -0.3011  0.0780 -0.0040
  977POPC   GL214214  15.390  15.619   6.830  0.3102 -0.1492 -0.0204
  977POPC   C1A14215  15.874  15.372   6.911  0.0028 -0.2120  0.3185
  977POPC   D2A14216  16.242  15.342   7.157  0.2048 -0.2809  0.3436
  977POPC   C3A14217  16.357  15.291   7.544 -0.5107  0.3318 -0.0569
  977POPC   C4A14218  16.502  15.244   7.980  0.1646 -0.2730  0.4467
  977POPC   C1B14219  15.465  15.284   7.184  0.1163  0.0030 -0.3317
  977POPC   C2B14220  15.318  15.121   7.659 -0.0524  0.0048  0.2539
  977POPC   C3B14221  15.147  14.797   7.912 -0.1351 -0.0638  0.0833
  977POPC   C4B14222  14.610  14.901   8.019  0.1194 -0.0425 -0.0672
  978POPC   NC314223   8.150  11.890   5.221  0.2311  0.0240  0.0779
  978POPC   PO414224   8.103  11.734   5.665 -0.1621 -0.0467 -0.1107
  978POPC   GL114225   8.266  11.613   6.065  0.3683  0.0995 -0.1250
  978POPC   GL214226   8.230  11.274   6.026  0.0995  0.3389 -0.0091
  978POPC   C1A14227   8.495  11.767   6.412 -0.1219 -0.2454  0.4125
  978POPC   D2A14228   8.803  11.789   6.714  0.0225 -0.1175 -0.0050
  978POPC   C3A14229   8.706  12.000   7.092 -0.0872 -0.2031 -0.1780
  978POPC   C4A14230   8.805  12.243   7.494  0.4616 -0.0624  0.0987
  978POPC   C1B14231   8.086  11.264   6.440  0.1053  0.0821 -0.0365
  978POPC   C2B14232   8.009  11.192   6.878  0.0528 -0.2575  0.1381
  978POPC   C3B14233   7.883  11.411   7.104 -0.2907 -0.1597  0.1574
  978POPC   C4B14234   7.489  11.573   7.147 -0.1606  0.4101 -0.1992
  979POPC   NC314235   3.443   4.029   5.188  0.0321  0.1636 -0.1801
  979POPC   PO414236   3.529   3.646   5.110  0.0232  0.0015  0.0528
  979POPC   GL114237   3.572   3.638   5.511  0.0725  0.0579 -0.1690
  979POPC   GL214238   3.771   3.823   5.598  0.0044  0.3112  0.2890
  979POPC   C1A14239   3.318   3.445   5.881 -0.0661  0.0586  0.2968
  979POPC   D2A14240   3.359   3.375   6.261  0.0859  0.0803 -0.1722
  979POPC   C3A14241   3.347   3.495   6.760  0.0436 -0.0471  0.0501
  979POPC   C4A14242   2.854   3.650   6.917 -0.4557 -0.0869  0.1141
  979POPC   C1B14243   3.738   3.672   6.022 -0.0159 -0.0279  0.1786
  979POPC   C2B14244   3.660   3.703   6.468  0.0454  0.0731 -0.0270
  979POPC   C3B14245   3.729   3.827   6.928 -0.1304  0.1293  0.1737
  979POPC   C4B14246   3.776   4.244   7.177 -0.0486  0.1152 -0.2212
  980POPC   NC314247   3.813  10.457   4.961  0.0215 -0.0556 -0.3043
  980POPC   PO414248   4.136  10.593   4.876  0.1111  0.0235  0.1067
  980POPC   GL114249   4.087  10.620   5.324  0.0337  0.2159  0.0638
  980POPC   GL214250   3.732  10.622   5.462 -0.0713  0.0470  0.1316
  980POPC   C1A14251   4.143  10.444   5.776 -0.2089  0.1744  0.1850
  980POPC   D2A14252   4.010  10.661   6.037 -0.0548 -0.2584 -0.1533
  980POPC   C3A14253   4.026  10.533   6.586  0.1117  0.0622  0.2657
  980POPC   C4A14254   4.316  10.502   7.017  0.1994  0.0430 -0.1773
  980POPC   C1B14255   3.641  10.436   5.845  0.0881 -0.1709 -0.2361
  980POPC   C2B14256   3.708  10.346   6.236 -0.0090  0.2043  0.1021
  980POPC   C3B14257   3.849   9.966   6.481  0.0550  0.0513  0.0267
  980POPC   C4B14258   4.102   9.691   6.831  0.1185  0.0946  0.0936
  981YOPC   NC314259  18.329   7.018   5.598 -0.2403  0.1671  0.0163
  981YOPC   PO414260  17.964   6.800   5.528 -0.2091 -0.0627  0.0479
  981YOPC   GL114261  17.990   6.683   5.969  0.0827  0.1966  0.1078
  981YOPC   GL214262  17.668   6.786   6.152 -0.2570 -0.0775  0.3083
  981YOPC   C1A14263  18.205   6.895   6.441  0.2798 -0.1363  0.0667
  981YOPC   D2A14264  18.367   6.887   6.882 -0.1547 -0.3736  0.1645
  981YOPC   C3A14265  18.418   7.093   7.311 -0.1544  0.1747  0.1414
  981YOPC   C4A14266  18.303   7.437   7.619  0.0562  0.1211  0.0804
  981YOPC   C1B14267  17.791   6.742   6.566  0.3866  0.1417 -0.1140
  981YOPC   C2B14268  17.909   6.740   6.961 -0.0620  0.0720 -0.2225
  981YOPC   D3B14269  17.607   6.704   7.323  0.1285  0.3806 -0.0118
  981YOPC   C4B14270  17.648   6.830   7.706 -0.1071 -0.1009  0.0636
  982YOPC   NC314271  17.806  16.104   4.960  0.0777  0.1300 -0.1373
  982YOPC   PO414272  17.967  16.180   5.447  0.0318 -0.0075  0.0617
  982YOPC   GL114273  18.099  16.291   5.821  0.3686  0.0879  0.1306
  982YOPC   GL214274  18.116  16.065   6.140 -0.0445  0.0825  0.0168
  982YOPC   C1A14275  17.961  16.674   6.083 -0.0133 -0.3336  0.0092
  982YOPC   D2A14276  17.898  16.948   6.367  0.1621 -0.1869 -0.0947
  982YOPC   C3A14277  17.639  16.898   6.729 -0.4447  0.0723  0.0677
  982YOPC   C4A14278  17.545  16.880   7.146 -0.1608  0.1360  0.2801
  982YOPC   C1B14279  18.334  16.010   6.569  0.0305 -0.1283 -0.0925
  982YOPC   C2B14280  18.132  16.058   6.993 -0.1460  0.1784 -0.2282
  982YOPC   D3B14281  18.078  15.696   7.243 -0.1628 -0.2048  0.0467
  982YOPC   C4B14282  18.395  15.530   7.590  0.1668 -0.0387  0.0445
  983YOPC   NC314283   0.197  18.767   5.394 -0.4010 -0.1395  0.2452
  983YOPC   PO414284   0.418  19.044   5.302 -0.1042  0.0624  0.0414
  983YOPC   GL114285   0.578  19.100   5.691 -0.4425 -0.0516 -0.0041
  983YOPC   GL214286   0.312  19.053   5.922  0.1246  0.2045  0.0512
  983YOPC   C1A14287   0.845  18.905   6.138  0.4506 -0.1988 -0.1452
  983YOPC   D2A14288   0.897  18.639   6.532 -0.1645 -0.0313 -0.0396
  983YOPC   C3A14289   0.682  18.532   6.924 -0.0794  0.1977  0.0149
  983YOPC   C4A14290   0.397  18.430   7.261  0.1283 -0.2049 -0.0154
  983YOPC   C1B14291   0.285  19.279   6.264 -0.0476  0.0582  0.0721
  983YOPC   C2B14292   0.238  19.593   6.450  0.1301 -0.1004  0.0388
  983YOPC   D3B14293   0.522  19.691   6.735 -0.3766  0.1255 -0.2423
  983YOPC   C4B14294   0.550  19.874   7.230 -0.0730  0.1896 -0.0989
  984YOPC   NC314295  16.806   7.652   5.567  0.0043  0.0750 -0.1989
  984YOPC   PO414296  16.415   7.541   5.750 -0.1552  0.2064 -0.2304
  984YOPC   GL114297  16.460   7.476   6.205 -0.1146  0.0602  0.2230
  984YOPC   GL214298  16.806   7.209   6.390 -0.1029  0.2048 -0.1767
  984YOPC   C1A14299  16.549   7.564   6.576  0.1839  0.0844 -0.1126
  984YOPC   D2A14300  16.730   7.407   6.870 -0.2387  0.1006 -0.0743
  984YOPC   C3A14301  16.605   7.267   7.261 -0.0237  0.2316 -0.2304
  984YOPC   C4A14302  16.686   6.898   7.539  0.2491 -0.0172  0.3303
  984YOPC   C1B14303  17.153   7.221   6.596 -0.0032 -0.1702 -0.0961
  984YOPC   C2B14304  17.451   6.983   6.892  0.1269 -0.2628 -0.2808
  984YOPC   D3B14305  17.357   7.078   7.379  0.2123  0.0912  0.2034
  984YOPC   C4B14306  17.292   7.123   7.872 -0.0605 -0.1501 -0.0942
  985YOPC   NC314307   7.329  12.512   6.174  0.0015  0.0683 -0.3257
  985YOPC   PO414308   7.230  12.816   5.871  0.2137  0.0653  0.0416
  985YOPC   GL114309   7.353  13.028   6.172 -0.0987 -0.2455 -0.2393
  985YOPC   GL214310   7.581  13.253   6.242  0.2347 -0.0777 -0.4382
  985YOPC   C1A14311   7.346  12.986   6.646 -0.1538 -0.3172 -0.0370
  985YOPC   D2A14312   7.519  12.928   6.994  0.2061  0.3874 -0.4473
  985YOPC   C3A14313   7.668  13.117   7.256 -0.1448 -0.0798  0.3154
  985YOPC   C4A14314   7.786  13.242   7.559  0.2536  0.0630  0.3099
  985YOPC   C1B14315   7.592  13.429   6.686  0.1446 -0.2947  0.3317
  985YOPC   C2B14316   7.595  13.557   7.064  0.1945  0.0369  0.1042
  985YOPC   D3B14317   7.322  13.420   7.504 -0.0004  0.1683 -0.3579
  985YOPC   C4B14318   7.031  13.367   7.841 -0.1527 -0.1905 -0.3370
  986YOPC   NC314319  17.678  13.804   5.002 -0.1992 -0.0808  0.0253
  986YOPC   PO414320  17.667  13.471   5.201  0.2344 -0.2593 -0.0278
  986YOPC   GL114321  17.453  13.431   5.648 -0.1773 -0.0074 -0.0805
  986YOPC   GL214322  17.668  13.319   5.952 -0.0987  0.1002 -0.1779
  986YOPC   C1A14323  17.061  13.421   6.024 -0.0705  0.0279 -0.1308
  986YOPC   D2A14324  16.866  13.223   6.437 -0.1113  0.0671 -0.3433
  986YOPC   C3A14325  17.096  13.045   6.521  0.0640  0.1671 -0.0861
  986YOPC   C4A14326  17.392  12.914   6.242 -0.3088  0.0626  0.2831
  986YOPC   C1B14327  17.495  13.425   6.320  0.0784  0.0383  0.4349
  986YOPC   C2B14328  17.367  13.491   6.766  0.0965 -0.4395  0.3254
  986YOPC   D3B14329  17.495  13.599   7.202 -0.1865 -0.0137  0.2310
  986YOPC   C4B14330  17.591  13.372   7.405  0.0051  0.1185  0.4124
  987YOPC   NC314331  10.079   1.344   5.320  0.0683 -0.1549 -0.1488
  987YOPC   PO414332   9.690   1.422   5.569  0.3948 -0.1060 -0.0735
  987YOPC   GL114333   9.837   1.763   5.885  0.0813  0.1554 -0.2102
  987YOPC   GL214334   9.638   1.957   5.974  0.1060 -0.0409  0.0877
  987YOPC   C1A14335  10.107   1.787   6.263  0.1553  0.1309 -0.0559
  987YOPC   D2A14336  10.180   1.967   6.681 -0.1114  0.1402  0.0498
  987YOPC   C3A14337  10.486   1.876   6.928 -0.2119 -0.0486  0.0725
  987YOPC   C4A14338  10.709   1.541   7.131 -0.4168 -0.2214  0.0664
  987YOPC   C1B14339   9.532   1.900   6.279  0.1150  0.0999 -0.3444
  987YOPC   C2B14340   9.416   1.895   6.736  0.1333 -0.1197 -0.1408
  987YOPC   D3B14341   9.776   1.759   6.919 -0.1313 -0.2681  0.0982
  987YOPC   C4B14342   9.779   1.865   7.421 -0.1016 -0.4748 -0.2804
  988YOPC   NC314343   0.790  11.323   5.183 -0.1347 -0.1174 -0.0890
  988YOPC   PO414344   0.555  11.533   5.456 -0.0737  0.1477 -0.0928
  988YOPC   GL114345   0.680  11.387   5.909 -0.1428  0.2228 -0.0882
  988YOPC   GL214346   0.556  11.187   6.014  0.1082 -0.3091 -0.2687
  988YOPC   C1A14347   0.991  11.570   6.093  0.0635  0.2711  0.0637
  988YOPC   D2A14348   1.071  11.682   6.543 -0.1636  0.2295  0.1310
  988YOPC   C3A14349   0.869  11.580   6.939 -0.1633  0.0403  0.2636
  988YOPC   C4A14350   0.849  11.491   7.355 -0.0420  0.0943 -0.0608
  988YOPC   C1B14351   0.349  11.059   6.308 -0.1297 -0.2585  0.3679
  988YOPC   C2B14352   0.302  10.894   6.660  0.1586 -0.0979  0.0770
  988YOPC   D3B14353   0.053  11.129   7.080 -0.0082 -0.0048  0.0327
  988YOPC   C4B14354  -0.215  11.015   7.423  0.1570  0.0916  0.2414
  989YOPC   NC314355  10.913   7.012   5.165 -0.0000 -0.3556 -0.1218
  989YOPC   PO414356  11.060   6.713   5.440  0.2728 -0.0885  0.4025
  989YOPC   GL114357  11.149   6.730   5.791 -0.3913  0.0532 -0.3991
  989YOPC   GL214358  11.160   6.980   5.867 -0.0733 -0.0362  0.2566
  989YOPC   C1A14359  11.080   6.557   6.158  0.3067 -0.0537  0.2092
  989YOPC   D2A14360  11.249   6.478   6.591  0.1560 -0.2381 -0.2944
  989YOPC   C3A14361  11.516   6.843   6.764 -0.1612  0.2675  0.0452
  989YOPC   C4A14362  11.837   7.246   6.704  0.1292  0.1873  0.1570
  989YOPC   C1B14363  10.722   6.940   6.085 -0.0054 -0.0809 -0.1350
  989YOPC   C2B14364  10.326   7.070   6.309  0.2773 -0.2185  0.1886
  989YOPC   D3B14365  10.133   6.918   6.710  0.2366  0.2367  0.1202
  989YOPC   C4B14366   9.814   6.906   6.972  0.0683  0.1500 -0.2371
  990YOPC   NC314367  17.927   9.019   5.791  0.1015 -0.1434 -0.2931
  990YOPC   PO414368  17.752   8.595   5.780 -0.2280 -0.0518 -0.1083
  990YOPC   GL114369  17.462   8.316   5.881  0.0682 -0.1111 -0.0196
  990YOPC   GL214370  17.099   8.330   5.828 -0.0237  0.0347 -0.0274
  990YOPC   C1A14371  17.505   8.130   6.207 -0.1487  0.1599 -0.2151
  990YOPC   D2A14372  17.713   8.037   6.606  0.1414 -0.0144 -0.0843
  990YOPC   C3A14373  17.591   7.681   6.812  0.1992  0.1493  0.1152
  990YOPC   C4A14374  17.304   7.474   7.006 -0.0641 -0.2757  0.1974
  990YOPC   C1B14375  16.725   8.466   5.960  0.0155 -0.1113 -0.0401
  990YOPC   C2B14376  16.240   8.298   6.177 -0.3204  0.0985 -0.1478
  990YOPC   D3B14377  15.926   8.450   6.526  0.2617  0.1866 -0.3205
  990YOPC   C4B14378  15.521   8.221   6.414 -0.2802  0.1245 -0.0247
  991YOPC   NC314379   3.052  12.188   5.207  0.1925  0.0353 -0.0580
  991YOPC   PO414380   3.383  12.320   5.475 -0.1662  0.2188  0.1349
  991YOPC   GL114381   3.463  12.292   5.912 -0.1042 -0.0942  0.0244
  991YOPC   GL214382   3.218  12.447   6.027  0.1811  0.0193 -0.0766
  991YOPC   C1A14383   3.678  12.131   6.246  0.1893 -0.1148 -0.0031
  991YOPC   D2A14384   3.616  11.962   6.709  0.1490  0.0525  0.2613
  991YOPC   C3A14385   3.432  11.597   6.865  0.0419 -0.1198 -0.2204
  991YOPC   C4A14386   3.265  11.177   6.958  0.2001 -0.1386 -0.5032
  991YOPC   C1B14387   3.379  12.492   6.526 -0.0674 -0.0836  0.2833
  991YOPC   C2B14388   3.266  12.729   6.960 -0.1380 -0.0338  0.1496
  991YOPC   D3B14389   3.460  12.709   7.345  0.2550 -0.2133  0.0365
  991YOPC   C4B14390   3.293  12.598   7.730  0.0052 -0.2436 -0.3210
  992YOPC   NC314391  15.666   5.174   5.351 -0.0297 -0.0725  0.2998
  992YOPC   PO414392  15.850   4.715   5.473  0.5543  0.1597 -0.1285
  992YOPC   GL114393  15.889   4.947   5.865 -0.1203  0.0897  0.1100
  992YOPC   GL214394  15.601   4.950   6.023 -0.1782  0.0133  0.0437
  992YOPC   C1A14395  16.091   4.971   6.283  0.0182  0.1215  0.1518
  992YOPC   D2A14396  16.097   4.933   6.744  0.3045 -0.2915  0.3450
  992YOPC   C3A14397  16.173   5.075   7.109  0.0519  0.1960  0.0958
  992YOPC   C4A14398  16.152   5.313   7.445  0.1768  0.0613  0.1258
  992YOPC   C1B14399  15.550   4.597   6.352 -0.1526 -0.1146 -0.2722
  992YOPC   C2B14400  15.713   4.609   6.785  0.1084 -0.2009 -0.2630
  992YOPC   D3B14401  15.350   4.711   7.051 -0.0244 -0.4230  0.1901
  992YOPC   C4B14402  15.119   4.827   7.410 -0.0781 -0.2211 -0.0156
  993YOPC   NC314403  12.812  14.921   5.881 -0.2085  0.0967 -0.1486
  993YOPC   PO414404  12.586  15.374   5.869  0.1687  0.0799 -0.0921
  993YOPC   GL114405  12.574  15.230   6.225 -0.1101  0.2756  0.2200
  993YOPC   GL214406  12.800  15.512   6.356 -0.2193 -0.1000 -0.0531
  993YOPC   C1A14407  12.590  15.132   6.652  0.4405 -0.3114  0.1511
  993YOPC   D2A14408  12.297  15.153   7.002  0.2354  0.0283 -0.0707
  993YOPC   C3A14409  11.799  15.280   7.002  0.1128 -0.0228  0.3266
  993YOPC   C4A14410  11.510  15.311   6.722  0.0379 -0.0146 -0.0295
  993YOPC   C1B14411  12.866  15.563   6.812  0.0477  0.0926 -0.0810
  993YOPC   C2B14412  12.570  15.583   7.169 -0.0626 -0.1043  0.1870
  993YOPC   D3B14413  12.720  15.431   7.554 -0.0641  0.1281  0.1756
  993YOPC   C4B14414  13.020  15.165   7.636 -0.0206  0.1724  0.0201
  994YOPC   NC314415  14.851  10.720   5.734  0.1009  0.0396 -0.1919
  994YOPC   PO414416  15.302  10.562   5.939  0.0215  0.2048 -0.0479
  994YOPC   GL114417  15.524  10.376   6.251 -0.0128  0.0816 -0.4045
  994YOPC   GL214418  15.677  10.556   6.445  0.1516 -0.2739 -0.0564
  994YOPC   C1A14419  15.648  10.041   6.509  0.0308 -0.0906  0.3869
  994YOPC   D2A14420  15.687   9.548   6.697 -0.2876 -0.1498  0.1216
  994YOPC   C3A14421  15.567   9.305   7.150 -0.1507  0.0652  0.0411
  994YOPC   C4A14422  15.709   8.921   7.373  0.0335  0.0364  0.0045
  994YOPC   C1B14423  16.053  10.404   6.465 -0.0868  0.4223 -0.1420
  994YOPC   C2B14424  16.283  10.357   6.881 -0.0539 -0.2340 -0.1426
  994YOPC   D3B14425  16.070  10.172   7.275  0.3303  0.0225  0.2010
  994YOPC   C4B14426  16.072  10.037   7.682  0.2071  0.3361 -0.2308
  995YOPC   NC314427   5.969   8.088   5.196  0.1747 -0.2457  0.0038
  995YOPC   PO414428   5.751   8.496   5.428 -0.1456 -0.1919  0.2415
  995YOPC   GL114429   5.669   8.920   5.649  0.1684  0.0563 -0.0539
  995YOPC   GL214430   5.356   9.014   5.558  0.2408 -0.1962 -0.0351
  995YOPC   C1A14431   5.621   9.069   6.040  0.0651 -0.2120 -0.1074
  995YOPC   D2A14432   5.735   8.893   6.426  0.1304 -0.1080 -0.0326
  995YOPC   C3A14433   5.499   9.025   6.830  0.1112  0.2937 -0.1695
  995YOPC   C4A14434   5.228   9.036   7.196  0.1689 -0.1491  0.1391
  995YOPC   C1B14435   5.129   9.275   5.789  0.2680  0.0928 -0.1106
  995YOPC   C2B14436   5.122   9.565   6.050 -0.1488 -0.3293  0.0344
  995YOPC   D3B14437   5.039   9.483   6.521  0.0491  0.2256  0.1374
  995YOPC   C4B14438   5.045   9.615   6.975 -0.2685 -0.1733 -0.4503
  996YOPC   NC314439  15.228   5.197   5.188 -0.0692  0.3503  0.1131
  996YOPC   PO414440  15.114   5.615   5.297  0.0320 -0.0334  0.0238
  996YOPC   GL114441  15.034   5.751   5.780  0.0809 -0.1430  0.1743
  996YOPC   GL214442  15.158   6.023   5.962 -0.4023 -0.0474  0.0779
  996YOPC   C1A14443  14.671   5.844   6.073 -0.1077 -0.1391  0.4482
  996YOPC   D2A14444  14.106   5.838   6.092 -0.1553  0.2800  0.1826
  996YOPC   C3A14445  13.745   5.654   6.201 -0.1445 -0.3139 -0.0196
  996YOPC   C4A14446  13.316   5.721   6.404 -0.0957 -0.0713 -0.0563
  996YOPC   C1B14447  15.161   5.753   6.232  0.3417  0.0072 -0.1128
  996YOPC   C2B14448  15.317   5.430   6.231 -0.1104 -0.0918 -0.3007
  996YOPC   D3B14449  15.338   5.346   6.664 -0.0926 -0.2171 -0.3885
  996YOPC   C4B14450  15.072   5.562   6.729 -0.1276 -0.2246 -0.0879
  997YOPC   NC314451  13.758  17.423   5.582  0.1510 -0.0228  0.0390
  997YOPC   PO414452  14.139  17.475   5.871  0.0433  0.1242  0.0499
  997YOPC   GL114453  13.944  17.271   6.210  0.2417  0.2466  0.1738
  997YOPC   GL214454  13.827  17.015   6.336  0.0415  0.1201 -0.0728
  997YOPC   C1A14455  13.998  17.377   6.659 -0.0460 -0.1376 -0.0123
  997YOPC   D2A14456  14.126  17.268   7.027  0.0224  0.1682 -0.2420
  997YOPC   C3A14457  14.281  17.346   7.521  0.0934  0.0969  0.0180
  997YOPC   C4A14458  14.348  17.250   7.969 -0.1985  0.1014 -0.0005
  997YOPC   C1B14459  13.819  16.948   6.737  0.2674 -0.3484  0.0792
  997YOPC   C2B14460  13.779  16.908   7.112  0.1468 -0.0203  0.3980
  997YOPC   D3B14461  13.835  17.084   7.425  0.2138  0.1068 -0.2323
  997YOPC   C4B14462  13.806  17.288   7.757 -0.4659  0.3530  0.0412
  998YOPC   NC314463  15.088  18.159   5.583 -0.0998  0.1935  0.0892
  998YOPC   PO414464  15.271  18.512   5.581  0.0782  0.0526  0.0989
  998YOPC   GL114465  15.372  18.484   5.970  0.2511 -0.1242 -0.0172
  998YOPC   GL214466  15.615  18.689   6.064 -0.3232 -0.1213 -0.4291
  998YOPC   C1A14467  15.305  18.499   6.410  0.2916  0.0639 -0.1200
  998YOPC   D2A14468  15.362  18.371   6.780 -0.2644 -0.0858  0.1007
  998YOPC   C3A14469  15.627  18.608   7.036 -0.0547  0.0343 -0.0463
  998YOPC   C4A14470  15.619  18.929   7.308 -0.2333  0.1681 -0.1474
  998YOPC   C1B14471  15.863  18.715   6.480  0.0773 -0.0669 -0.0242
  998YOPC   C2B14472  15.835  18.382   6.655  0.0181  0.1716 -0.2682
  998YOPC   D3B14473  16.056  18.312   7.072  0.1167 -0.0883  0.3439
  998YOPC   C4B14474  16.492  18.139   7.265 -0.0561  0.0378 -0.1210
  999YOPC   NC314475   8.364   9.168   4.973 -0.2811 -0.0563  0.0415
  999YOPC   PO414476   8.531   9.407   5.338  0.2731  0.3178 -0.0217
  999YOPC   GL114477   8.646   9.258   5.703  0.1643 -0.0823  0.2276
  999YOPC   GL214478   8.540   9.369   5.921  0.2502  0.2847 -0.1212
  999YOPC   C1A14479   9.015   9.238   5.982  0.3640  0.0100  0.0288
  999YOPC   D2A14480   9.207   9.244   6.272 -0.0088 -0.0726  0.1163
  999YOPC   C3A14481   9.599   9.439   6.228  0.1796  0.0960 -0.1352
  999YOPC   C4A14482  10.089   9.335   6.037 -0.0608  0.0264 -0.1487
  999YOPC   C1B14483   8.677   9.446   6.371  0.1771 -0.1145  0.0341
  999YOPC   C2B14484   8.959   9.310   6.678  0.0934  0.1464 -0.1436
  999YOPC   D3B14485   8.879   9.340   7.139  0.0666 -0.2231 -0.3489
  999YOPC   C4B14486   9.012   9.238   7.461  0.0148  0.4141  0.0447
 1000YOPC   NC314487   9.016  12.223   5.847 -0.2775  0.1429 -0.1250
 1000YOPC   PO414488   9.080  11.763   5.686  0.0107 -0.1909  0.0405
 1000YOPC   GL114489   9.170  11.825   6.071 -0.1230  0.2469 -0.2988
 1000YOPC   GL214490   9.074  11.608   6.302  0.3779  0.0717 -0.2608
 1000YOPC   C1A14491   9.276  12.009   6.528  0.0791 -0.1858  0.0704
 1000YOPC   D2A14492   9.247  11.913   6.941 -0.1639 -0.4144 -0.3032
 1000YOPC   C3A14493   9.164  11.847   7.404 -0.0979 -0.0146  0.0695
 1000YOPC   C4A14494   9.169  12.000   7.911 -0.2675 -0.0053  0.0681
 1000YOPC   C1B14495   9.062  11.367   6.702 -0.2388  0.0744 -0.2197
 1000YOPC   C2B14496   8.912  11.297   7.111  0.1575 -0.0904 -0.1675
 1000YOPC   D3B14497   8.709  11.181   7.514 -0.0204 -0.0503 -0.0512
 1000YOPC   C4B14498   8.957  10.935   7.924 -0.0549  0.1576 -0.0581
 1001YOPC   NC314499   6.482   6.003   5.510 -0.1598 -0.1543 -0.0177
 1001YOPC   PO414500   6.074   6.236   5.468 -0.0031 -0.4097  0.2047
 1001YOPC   GL114501   6.174   6.377   5.879 -0.0331  0.0660  0.1550
 1001YOPC   GL214502   6.419   6.317   6.132  0.3046 -0.0421  0.0171
 1001YOPC   C1A14503   5.939   6.525   6.141  0.0938 -0.1743  0.0804
 1001YOPC   D2A14504   5.487   6.599   6.399 -0.0031  0.0852 -0.1435
 1001YOPC   C3A14505   5.394   6.669   6.805 -0.1607  0.1564 -0.4518
 1001YOPC   C4A14506   5.413   6.914   7.150 -0.1201  0.0213 -0.0415
 1001YOPC   C1B14507   6.312   6.264   6.623  0.2335 -0.1222  0.3802
 1001YOPC   C2B14508   6.249   6.282   6.981 -0.0505 -0.0144  0.1628
 1001YOPC   D3B14509   6.072   6.201   7.419  0.1254  0.4664  0.2334
 1001YOPC   C4B14510   6.102   5.992   7.851 -0.1080  0.1970  0.1502
 1002YOPC   NC314511   3.883  16.349   5.007  0.1427 -0.2309  0.1190
 1002YOPC   PO414512   3.821  15.952   4.984  0.2923  0.1936 -0.1242
 1002YOPC   GL114513   3.970  16.074   5.463 -0.0881 -0.1616  0.0809
 1002YOPC   GL214514   3.814  15.841   5.638 -0.0133 -0.0375 -0.0210
 1002YOPC   C1A14515   4.203  16.016   5.950 -0.0449  0.1788 -0.0426
 1002YOPC   D2A14516   4.125  16.168   6.379  0.2441 -0.1949 -0.0725
 1002YOPC   C3A14517   3.901  15.915   6.753 -0.2735  0.0247  0.2470
 1002YOPC   C4A14518   3.783  15.702   7.055 -0.0902 -0.1023 -0.1114
 1002YOPC   C1B14519   3.627  15.734   5.994 -0.0858 -0.1833 -0.1400
 1002YOPC   C2B14520   3.856  15.627   6.333 -0.4985 -0.2635 -0.3830
 1002YOPC   D3B14521   3.750  15.352   6.630 -0.2071 -0.2054  0.0035
 1002YOPC   C4B14522   3.467  15.183   7.010 -0.2259 -0.0030 -0.2493
 1003YOPC   NC314523   1.485   7.741   4.725  0.1438  0.1486 -0.1394
 1003YOPC   PO414524   1.410   7.940   5.191 -0.0803  0.1680 -0.3124
 1003YOPC   GL114525   1.398   7.902   5.609 -0.1494  0.1324  0.2326
 1003YOPC   GL214526   1.571   7.720   5.812  0.0143 -0.1744  0.1538
 1003YOPC   C1A14527   1.245   7.993   6.017  0.0722  0.0298  0.2653
 1003YOPC   D2A14528   1.209   8.223   6.427 -0.1179  0.1271  0.1536
 1003YOPC   C3A14529   1.379   8.140   6.620 -0.1865 -0.1720 -0.3624
 1003YOPC   C4A14530   1.796   8.215   6.777  0.0054 -0.0885  0.0628
 1003YOPC   C1B14531   1.646   7.853   6.279  0.0461 -0.1235  0.0978
 1003YOPC   C2B14532   2.087   7.851   6.526  0.2072  0.1544  0.0774
 1003YOPC   D3B14533   2.382   8.187   6.582 -0.0147 -0.2922  0.0609
 1003YOPC   C4B14534   2.487   8.566   6.242 -0.1422 -0.0795  0.1462
 1004YOPC   NC314535   7.752  10.699   5.522 -0.0835 -0.1528  0.2025
 1004YOPC   PO414536   8.171  10.821   5.320  0.1370 -0.1820  0.1907
 1004YOPC   GL114537   8.233  10.817   5.805  0.1203 -0.0589 -0.0004
 1004YOPC   GL214538   7.865  10.858   6.031 -0.0852 -0.0284  0.0398
 1004YOPC   C1A14539   8.347  10.829   6.253 -0.1337  0.1944 -0.0538
 1004YOPC   D2A14540   8.356  10.848   6.693  0.1851  0.2776 -0.1541
 1004YOPC   C3A14541   8.505  10.497   6.829  0.0822  0.0563  0.0422
 1004YOPC   C4A14542   8.536  10.359   7.248 -0.3331  0.2371 -0.0965
 1004YOPC   C1B14543   7.858  10.750   6.495 -0.1243 -0.0460  0.0318
 1004YOPC   C2B14544   7.734  10.361   6.725 -0.1833 -0.1855 -0.2750
 1004YOPC   D3B14545   7.345  10.343   7.005 -0.0593 -0.1526 -0.2196
 1004YOPC   C4B14546   7.050  10.673   7.084 -0.0339 -0.0404 -0.0157
 1005YOPC   NC314547   5.509  13.169   5.170 -0.1018  0.1369 -0.1331
 1005YOPC   PO414548   5.787  12.970   5.514  0.2485  0.0932  0.1534
 1005YOPC   GL114549   5.744  12.767   5.926 -0.2316  0.3155 -0.1021
 1005YOPC   GL214550   5.468  12.860   5.998  0.3389  0.3368 -0.0812
 1005YOPC   C1A14551   5.789  12.439   6.182  0.3623 -0.3643 -0.0693
 1005YOPC   D2A14552   5.435  12.179   6.288 -0.0464  0.0198  0.1141
 1005YOPC   C3A14553   5.155  12.136   6.536 -0.0016 -0.2273 -0.0332
 1005YOPC   C4A14554   5.177  12.062   6.967 -0.0959  0.0566 -0.1869
 1005YOPC   C1B14555   5.563  12.838   6.496  0.0744 -0.0001  0.0462
 1005YOPC   C2B14556   5.684  12.825   6.886 -0.2105 -0.3686  0.0804
 1005YOPC   D3B14557   5.660  12.960   7.273  0.2600 -0.2488 -0.1961
 1005YOPC   C4B14558   5.748  12.784   7.607 -0.1200 -0.2542  0.0408
 1006YOPC   NC314559  10.852   0.234   5.881  0.0670  0.0601 -0.1013
 1006YOPC   PO414560  10.644  -0.001   6.102  0.0090  0.0342  0.0930
 1006YOPC   GL114561  10.474   0.192   6.342  0.1139 -0.0083  0.2214
 1006YOPC   GL214562  10.634   0.542   6.295  0.4115  0.2293  0.1980
 1006YOPC   C1A14563  10.513   0.359   6.775 -0.1927  0.1480 -0.2436
 1006YOPC   D2A14564  10.599   0.804   7.008 -0.2592 -0.2431  0.0585
 1006YOPC   C3A14565  10.616   1.181   6.752 -0.0671  0.1203  0.0405
 1006YOPC   C4A14566  10.553   1.529   6.491  0.0111 -0.1156 -0.0815
 1006YOPC   C1B14567  10.401   0.766   6.501 -0.2011  0.1601 -0.2082
 1006YOPC   C2B14568  10.133   0.964   6.822  0.1366 -0.0219 -0.0410
 1006YOPC   D3B14569  10.159   0.916   7.226 -0.0175 -0.0320 -0.0964
 1006YOPC   C4B14570  10.038   0.605   7.626  0.2720 -0.2232  0.0508
 1007YOPC   NC314571   8.925  16.120   5.322  0.1294 -0.0586 -0.0101
 1007YOPC   PO414572   8.767  15.829   5.564  0.1467 -0.0567 -0.0411
 1007YOPC   GL114573   8.691  15.664   6.014  0.0746 -0.0474 -0.0805
 1007YOPC   GL214574   8.464  15.502   6.064 -0.1422  0.0279  0.0784
 1007YOPC   C1A14575   8.668  15.886   6.404  0.2237 -0.2281 -0.1402
 1007YOPC   D2A14576   8.703  15.783   6.910 -0.1161  0.0787 -0.1466
 1007YOPC   C3A14577   9.119  15.604   6.825 -0.0755 -0.2954  0.0010
 1007YOPC   C4A14578   9.459  15.322   6.836  0.2453 -0.0029 -0.1629
 1007YOPC   C1B14579   8.327  15.541   6.549 -0.1311  0.1636 -0.0714
 1007YOPC   C2B14580   8.054  15.401   6.929  0.1025 -0.1247 -0.0759
 1007YOPC   D3B14581   7.887  15.129   7.217 -0.0021 -0.2205  0.0639
 1007YOPC   C4B14582   7.795  15.002   7.624 -0.1027 -0.0868 -0.3488
 1008YOPC   NC314583  13.463  14.549   5.608 -0.1893  0.1988  0.2823
 1008YOPC   PO414584  13.338  14.928   5.853 -0.1343 -0.0637 -0.0996
 1008YOPC   GL114585  13.280  14.967   6.257 -0.1100 -0.1074 -0.1056
 1008YOPC   GL214586  13.586  15.080   6.365 -0.2151 -0.3690 -0.2798
 1008YOPC   C1A14587  13.077  15.006   6.571  0.0334 -0.3887 -0.2049
 1008YOPC   D2A14588  12.762  14.677   6.794  0.0025  0.0824 -0.2244
 1008YOPC   C3A14589  12.343  14.627   6.997  0.3365 -0.0658  0.2048
 1008YOPC   C4A14590  12.262  14.284   7.327  0.0179  0.0887 -0.0442
 1008YOPC   C1B14591  13.599  14.696   6.713 -0.0686  0.1946  0.0179
 1008YOPC   C2B14592  13.600  14.667   7.111 -0.0156 -0.0267 -0.2670
 1008YOPC   D3B14593  13.295  14.769   7.556 -0.2040  0.2442  0.0630
 1008YOPC   C4B14594  13.526  14.853   7.886  0.2230  0.0365  0.0417
 1009YOPC   NC314595   1.295  16.472   5.142 -0.1387 -0.4808 -0.0790
 1009YOPC   PO414596   1.613  16.247   5.235  0.3702  0.2319 -0.1597
 1009YOPC   GL114597   1.579  16.057   5.636 -0.3469 -0.1020 -0.1422
 1009YOPC   GL214598   1.811  15.797   5.710 -0.2644  0.0039  0.1340
 1009YOPC   C1A14599   1.427  15.783   5.987 -0.0678 -0.0363 -0.0919
 1009YOPC   D2A14600   1.401  15.633   6.369  0.0334  0.2019 -0.1852
 1009YOPC   C3A14601   1.539  16.015   6.693 -0.0889 -0.0099 -0.0394
 1009YOPC   C4A14602   1.590  15.987   7.183 -0.1440  0.2291 -0.2268
 1009YOPC   C1B14603   2.102  16.150   5.868 -0.1866 -0.1177  0.0910
 1009YOPC   C2B14604   2.362  16.572   5.870  0.1164 -0.0575  0.0250
 1009YOPC   D3B14605   2.355  16.484   6.274  0.2374 -0.0226 -0.0944
 1009YOPC   C4B14606   2.387  16.400   6.766 -0.2029  0.3979  0.1740
 1010YOPC   NC314607   9.297   7.546   5.639  0.2653 -0.3604 -0.2496
 1010YOPC   PO414608   9.273   7.072   5.698 -0.0093  0.1083 -0.0169
 1010YOPC   GL114609   9.297   6.974   6.154  0.0981 -0.2499  0.0865
 1010YOPC   GL214610   9.140   6.714   6.091 -0.0474  0.0246  0.0033
 1010YOPC   C1A14611   9.378   6.951   6.649  0.1116  0.0885 -0.1185
 1010YOPC   D2A14612   9.290   6.862   7.116  0.0261  0.1387  0.1630
 1010YOPC   C3A14613   9.562   6.823   7.441 -0.1070  0.1795 -0.0998
 1010YOPC   C4A14614   9.611   6.792   7.845  0.1634  0.0095  0.1172
 1010YOPC   C1B14615   8.843   6.686   6.440 -0.5223 -0.1257 -0.0304
 1010YOPC   C2B14616   8.873   6.701   6.876  0.2545 -0.0776  0.1787
 1010YOPC   D3B14617   8.596   6.485   7.167 -0.0934  0.2256 -0.4453
 1010YOPC   C4B14618   8.587   6.382   7.577 -0.0230  0.0666  0.0832
 1011YOPC   NC314619   6.728   6.054   5.016  0.1799  0.0646  0.2338
 1011YOPC   PO414620   6.548   5.682   5.120  0.1968  0.0207  0.1094
 1011YOPC   GL114621   6.692   5.583   5.526 -0.1218  0.1522 -0.2675
 1011YOPC   GL214622   7.003   5.722   5.666  0.0774 -0.2703 -0.0863
 1011YOPC   C1A14623   6.892   5.306   5.927  0.0140  0.5232  0.1032
 1011YOPC   D2A14624   7.109   5.152   6.400  0.0511 -0.0026 -0.0376
 1011YOPC   C3A14625   7.043   5.165   6.895 -0.0544  0.1179 -0.0801
 1011YOPC   C4A14626   7.078   5.058   7.349  0.2847 -0.0751  0.2099
 1011YOPC   C1B14627   7.243   5.714   5.949  0.2620 -0.1375 -0.2059
 1011YOPC   C2B14628   7.329   6.068   6.273  0.1077 -0.1514 -0.0679
 1011YOPC   D3B14629   7.593   6.301   6.344 -0.1867 -0.3032  0.0016
 1011YOPC   C4B14630   7.921   6.266   6.571 -0.0351  0.1566 -0.1059
 1012YOPC   NC314631   0.787   0.054   4.945 -0.1167  0.0690 -0.0330
 1012YOPC   PO414632   0.804  -0.151   5.379  0.1516 -0.1194  0.0551
 1012YOPC   GL114633   1.093  -0.068   5.621  0.1899  0.0219  0.3479
 1012YOPC   GL214634   1.178   0.195   5.826 -0.0519  0.2653 -0.2261
 1012YOPC   C1A14635   1.301  -0.307   5.874  0.1495  0.1254  0.3281
 1012YOPC   D2A14636   1.363  -0.024   6.247 -0.2611 -0.1138 -0.2268
 1012YOPC   C3A14637   1.375  -0.217   6.657  0.1236 -0.0083  0.0444
 1012YOPC   C4A14638   1.189  -0.180   7.079  0.1264  0.0425 -0.2501
 1012YOPC   C1B14639   1.595   0.294   6.008 -0.5423 -0.0396  0.2494
 1012YOPC   C2B14640   1.884   0.279   6.377 -0.1067  0.0373  0.1485
 1012YOPC   D3B14641   1.820   0.175   6.847  0.0592 -0.1166  0.0041
 1012YOPC   C4B14642   1.643  -0.042   7.129  0.3575 -0.2139 -0.2401
 1013YOPC   NC314643   6.877   2.968   5.269  0.2274  0.2840 -0.0967
 1013YOPC   PO414644   7.341   3.048   5.120 -0.0150  0.0985  0.0428
 1013YOPC   GL114645   7.379   3.103   5.552 -0.0923 -0.1194  0.1960
 1013YOPC   GL214646   7.322   3.357   5.682 -0.2049  0.0664 -0.1548
 1013YOPC   C1A14647   7.485   2.989   5.946  0.2689 -0.0263 -0.1901
 1013YOPC   D2A14648   7.409   3.120   6.280 -0.0349  0.0235  0.0085
 1013YOPC   C3A14649   7.441   2.998   6.757  0.1388  0.0329  0.0133
 1013YOPC   C4A14650   7.454   3.076   7.187  0.3062 -0.2048 -0.2190
 1013YOPC   C1B14651   7.072   3.232   5.950  0.1449 -0.2442 -0.1897
 1013YOPC   C2B14652   6.699   3.412   6.287  0.0941  0.0349 -0.5007
 1013YOPC   D3B14653   6.866   3.675   6.571  0.3838  0.1000  0.0863
 1013YOPC   C4B14654   7.078   3.952   6.890  0.0399 -0.0608  0.1337
 1014YOPC   NC314655   3.476  15.560   4.978  0.0983 -0.0351 -0.0289
 1014YOPC   PO414656   3.368  15.816   5.361  0.1688 -0.2972  0.2995
 1014YOPC   GL114657   3.253  15.915   5.782  0.0241  0.1412  0.1238
 1014YOPC   GL214658   2.927  15.882   5.753  0.1048  0.0754  0.1559
 1014YOPC   C1A14659   3.070  16.169   6.122  0.0371 -0.1771 -0.2793
 1014YOPC   D2A14660   2.813  16.131   6.428  0.0087  0.0300 -0.1602
 1014YOPC   C3A14661   2.830  16.183   6.809 -0.1098 -0.2690 -0.1663
 1014YOPC   C4A14662   3.108  16.507   7.053 -0.0055 -0.1059 -0.3047
 1014YOPC   C1B14663   2.607  15.987   5.950  0.1356  0.2567  0.0870
 1014YOPC   C2B14664   2.270  15.953   6.303  0.0346 -0.4187  0.4527
 1014YOPC   D3B14665   2.296  15.838   6.709  0.0400  0.0061 -0.1528
 1014YOPC   C4B14666   2.098  15.879   7.111  0.1068 -0.4153  0.1055
 1015YOPC   NC314667  18.722   9.204   5.553 -0.3032  0.0908  0.2211
 1015YOPC   PO414668  18.423   9.116   5.831  0.1550 -0.3190 -0.0344
 1015YOPC   GL114669  18.234   9.181   6.148  0.2728  0.1143  0.0904
 1015YOPC   GL214670  18.132   8.771   6.198  0.1584 -0.0594 -0.1529
 1015YOPC   C1A14671  18.432   9.034   6.468  0.1395 -0.0153 -0.0184
 1015YOPC   D2A14672  18.479   8.992   6.866  0.1527 -0.0273  0.0078
 1015YOPC   C3A14673  18.609   8.867   7.280  0.3086 -0.1619  0.1873
 1015YOPC   C4A14674  18.999   8.729   7.422  0.0605 -0.5015  0.0232
 1015YOPC   C1B14675  17.999   8.971   6.698  0.1798 -0.1045  0.1360
 1015YOPC   C2B14676  18.077   9.319   6.770  0.2058 -0.0920 -0.1110
 1015YOPC   D3B14677  18.072   9.620   7.139  0.0015  0.2002 -0.0099
 1015YOPC   C4B14678  17.695   9.874   7.141 -0.0729  0.0770 -0.2296
 1016YOPC   NC314679   4.325  11.911   5.076 -0.2863  0.3510 -0.1128
 1016YOPC   PO414680   4.452  11.451   5.214  0.0715 -0.4400 -0.1369
 1016YOPC   GL114681   4.400  11.343   5.637 -0.1250 -0.4384 -0.2544
 1016YOPC   GL214682   4.366  11.000   5.647 -0.0186 -0.2249  0.1698
 1016YOPC   C1A14683   4.070  11.328   5.995  0.1922 -0.2892  0.0376
 1016YOPC   D2A14684   3.875  11.192   6.275 -0.1778 -0.1976  0.0295
 1016YOPC   C3A14685   4.176  11.127   6.606 -0.4060 -0.0058  0.0304
 1016YOPC   C4A14686   4.508  11.026   6.980  0.2021  0.0519 -0.0902
 1016YOPC   C1B14687   4.468  10.885   6.091  0.2162 -0.1159  0.0133
 1016YOPC   C2B14688   4.445  10.735   6.516 -0.1600 -0.1585  0.0580
 1016YOPC   D3B14689   4.815  10.755   6.752 -0.4060  0.2122  0.2378
 1016YOPC   C4B14690   4.814  10.622   7.145  0.0702  0.0869  0.2353
 1017YOPC   NC314691  11.665  12.212   5.911 -0.3157  0.0170  0.1066
 1017YOPC   PO414692  11.973  12.186   6.160  0.1044 -0.2174  0.1130
 1017YOPC   GL114693  12.047  12.255   6.686  0.0501  0.1419  0.0085
 1017YOPC   GL214694  12.346  12.319   6.906  0.3942  0.2403  0.0945
 1017YOPC   C1A14695  11.950  12.298   7.198  0.0516  0.0398  0.1028
 1017YOPC   D2A14696  11.874  12.161   7.574  0.1913  0.1485 -0.2693
 1017YOPC   C3A14697  11.689  12.383   7.798 -0.2440  0.2472 -0.4209
 1017YOPC   C4A14698  11.677  12.508   8.207 -0.0172 -0.0527 -0.3568
 1017YOPC   C1B14699  12.405  12.054   7.287 -0.0376 -0.2362  0.1959
 1017YOPC   C2B14700  12.257  11.810   7.613  0.0327 -0.2027 -0.1231
 1017YOPC   D3B14701  12.414  11.922   8.011 -0.0630  0.3063  0.2204
 1017YOPC   C4B14702  12.769  12.211   8.041  0.2416 -0.4515  0.2872
 1018YOPC   NC314703   9.578  17.649   5.505  0.1843  0.2820  0.1559
 1018YOPC   PO414704   9.469  17.230   5.789 -0.1545  0.2973 -0.1328
 1018YOPC   GL114705   9.446  17.221   6.280 -0.1450 -0.0544  0.0969
 1018YOPC   GL214706   9.189  16.936   6.308  0.0484 -0.1000 -0.0854
 1018YOPC   C1A14707   9.474  17.307   6.689  0.7442 -0.2249  0.1144
 1018YOPC   D2A14708   9.378  17.095   7.020 -0.2594 -0.1085  0.0924
 1018YOPC   C3A14709   9.349  17.402   7.245  0.2528 -0.0641  0.0889
 1018YOPC   C4A14710   9.051  17.662   7.399  0.0249  0.0354 -0.1247
 1018YOPC   C1B14711   9.183  16.794   6.609 -0.0370 -0.2781  0.5357
 1018YOPC   C2B14712   8.998  16.630   6.935  0.0410  0.1349 -0.1623
 1018YOPC   D3B14713   9.012  16.610   7.449 -0.2166  0.0127  0.1009
 1018YOPC   C4B14714   9.236  16.758   7.816  0.0561 -0.1543 -0.2994
 1019YOPC   NC314715  14.602   0.549   5.672 -0.1946  0.1930 -0.1514
 1019YOPC   PO414716  14.515   0.093   5.684 -0.1918  0.1235 -0.2218
 1019YOPC   GL114717  14.782   0.203   6.037  0.2014 -0.1856  0.1981
 1019YOPC   GL214718  15.019   0.044   6.112  0.2509 -0.3568 -0.1633
 1019YOPC   C1A14719  14.890   0.456   6.427  0.0297 -0.2781 -0.0158
 1019YOPC   D2A14720  15.038   0.372   6.867  0.0447 -0.0655 -0.3224
 1019YOPC   C3A14721  15.406   0.593   7.129 -0.3140  0.1650  0.1340
 1019YOPC   C4A14722  15.784   0.551   7.497 -0.0224  0.1687  0.2816
 1019YOPC   C1B14723  14.873  -0.115   6.541  0.1286 -0.2150 -0.2704
 1019YOPC   C2B14724  14.920  -0.178   6.981 -0.0663 -0.0088 -0.1534
 1019YOPC   D3B14725  15.110   0.123   7.280  0.1427  0.2146  0.0097
 1019YOPC   C4B14726  15.084   0.520   7.512 -0.0560 -0.2277  0.0638
 1020YOPC   NC314727   7.807   7.197   5.621  0.4618 -0.0129  0.3413
 1020YOPC   PO414728   8.139   7.066   5.509 -0.3550 -0.2360  0.1645
 1020YOPC   GL114729   8.184   7.289   5.911  0.3869 -0.0281  0.0792
 1020YOPC   GL214730   8.413   7.431   6.062 -0.0189 -0.0874 -0.0757
 1020YOPC   C1A14731   7.855   7.373   6.288  0.0931  0.0185 -0.1352
 1020YOPC   D2A14732   7.453   7.434   6.459  0.4339  0.0202  0.0010
 1020YOPC   C3A14733   7.291   7.643   6.743  0.1856  0.2465  0.2190
 1020YOPC   C4A14734   7.195   7.997   7.160  0.0402 -0.0112  0.1804
 1020YOPC   C1B14735   8.267   7.691   6.286  0.0980  0.0703  0.1774
 1020YOPC   C2B14736   8.341   8.069   6.391 -0.2242  0.1834  0.1666
 1020YOPC   D3B14737   8.290   8.196   6.737  0.2922  0.1616 -0.1381
 1020YOPC   C4B14738   8.067   8.197   7.067  0.0084  0.4438 -0.1000
 1021YOPC   NC314739  15.439  12.795   6.062  0.1583  0.0480 -0.0615
 1021YOPC   PO414740  15.709  12.554   6.216 -0.0321  0.0059  0.1333
 1021YOPC   GL114741  15.708  12.740   6.590  0.3387  0.0713  0.1279
 1021YOPC   GL214742  15.836  12.944   6.418 -0.1095 -0.3813  0.1375
 1021YOPC   C1A14743  15.699  12.684   6.975  0.1446  0.4981 -0.1344
 1021YOPC   D2A14744  15.721  12.492   7.239  0.0551 -0.0557  0.0860
 1021YOPC   C3A14745  15.847  12.747   7.616  0.0801  0.2312  0.4219
 1021YOPC   C4A14746  15.966  12.827   8.033  0.0400  0.0709 -0.1059
 1021YOPC   C1B14747  16.022  13.051   6.696  0.0315 -0.1599 -0.5118
 1021YOPC   C2B14748  15.951  13.075   7.016  0.1534 -0.2199  0.1142
 1021YOPC   D3B14749  16.340  13.175   7.171  0.0163  0.1845 -0.0741
 1021YOPC   C4B14750  16.734  13.116   7.425  0.0201  0.2441 -0.0538
 1022YOPC   NC314751   3.901   4.624   4.771 -0.2236 -0.0035 -0.2265
 1022YOPC   PO414752   3.755   4.450   5.083 -0.0035  0.0441  0.3630
 1022YOPC   GL114753   3.670   4.404   5.470  0.0812 -0.2668 -0.1789
 1022YOPC   GL214754   3.782   4.670   5.698  0.0595  0.0182  0.1756
 1022YOPC   C1A14755   3.508   4.162   5.864  0.1755 -0.1408 -0.0302
 1022YOPC   D2A14756   3.542   4.111   6.279 -0.0225  0.0121  0.1649
 1022YOPC   C3A14757   3.630   4.329   6.624  0.1152 -0.0670  0.0633
 1022YOPC   C4A14758   3.769   4.673   6.919  0.2578  0.2247 -0.2084
 1022YOPC   C1B14759   4.042   4.702   6.076  0.1024 -0.2559 -0.1556
 1022YOPC   C2B14760   4.141   4.672   6.487  0.4334  0.1228 -0.0811
 1022YOPC   D3B14761   4.108   5.022   6.824  0.1928 -0.5620 -0.3841
 1022YOPC   C4B14762   4.335   5.195   7.284 -0.0913  0.1473  0.1214
 1023YOPC   NC314763   2.252   2.628   5.450  0.0158  0.2295  0.2398
 1023YOPC   PO414764   2.380   2.196   5.408 -0.1525 -0.0682 -0.0966
 1023YOPC   GL114765   2.372   2.033   5.791 -0.0176  0.0811  0.0087
 1023YOPC   GL214766   2.743   1.954   5.847  0.4949  0.3324 -0.0411
 1023YOPC   C1A14767   2.410   1.835   6.185  0.0075 -0.0602 -0.2183
 1023YOPC   D2A14768   2.245   1.654   6.596 -0.2272  0.0352  0.3540
 1023YOPC   C3A14769   2.465   1.545   7.007  0.2925  0.1623 -0.0762
 1023YOPC   C4A14770   2.437   1.508   7.527  0.1230 -0.1044  0.0864
 1023YOPC   C1B14771   2.952   1.788   6.229  0.1948 -0.1235 -0.6842
 1023YOPC   C2B14772   3.091   1.812   6.630  0.0017 -0.0188  0.0559
 1023YOPC   D3B14773   2.794   1.820   6.771  0.0003  0.0242 -0.3468
 1023YOPC   C4B14774   2.613   2.001   7.199  0.1026  0.3109  0.2174
 1024YOPC   NC314775   2.320   3.471   5.264 -0.1171 -0.0404  0.1008
 1024YOPC   PO414776   2.584   3.826   5.243 -0.2142 -0.2598 -0.2032
 1024YOPC   GL114777   2.585   3.642   5.637  0.0445  0.2453 -0.0854
 1024YOPC   GL214778   2.706   3.404   5.832 -0.0795  0.2495 -0.0268
 1024YOPC   C1A14779   2.410   3.703   6.026  0.0258  0.0638 -0.0915
 1024YOPC   D2A14780   2.498   3.739   6.463  0.0091 -0.1347  0.0342
 1024YOPC   C3A14781   2.227   3.773   6.752 -0.1552  0.3085  0.5418
 1024YOPC   C4A14782   1.981   3.455   6.881 -0.1908  0.0602 -0.0893
 1024YOPC   C1B14783   2.888   3.249   6.131  0.2782  0.1791 -0.1204
 1024YOPC   C2B14784   2.881   3.350   6.493  0.0403 -0.0480  0.0222
 1024YOPC   D3B14785   2.898   3.163   6.933  0.1922 -0.0554  0.1316
 1024YOPC   C4B14786   2.977   2.907   7.304  0.1008 -0.2355  0.2492
 1025YOPC   NC314787  15.555   2.041   5.770 -0.0833 -0.1512 -0.2418
 1025YOPC   PO414788  15.924   1.885   5.636  0.0693  0.0581  0.0933
 1025YOPC   GL114789  16.060   1.802   5.995 -0.3650  0.1859  0.0624
 1025YOPC   GL214790  15.802   1.519   6.031 -0.0880 -0.1099  0.1671
 1025YOPC   C1A14791  16.279   1.877   6.389  0.1863 -0.1616 -0.0879
 1025YOPC   D2A14792  16.346   1.465   6.666  0.1908 -0.0096  0.1848
 1025YOPC   C3A14793  16.477   1.450   7.062  0.0834  0.2310 -0.3690
 1025YOPC   C4A14794  16.756   1.076   7.350  0.2493 -0.0210  0.1048
 1025YOPC   C1B14795  15.955   1.478   6.392  0.1512 -0.1205 -0.0592
 1025YOPC   C2B14796  15.872   1.280   6.824  0.0030 -0.2728 -0.1349
 1025YOPC   D3B14797  15.664   1.541   7.110  0.4293 -0.0449 -0.0203
 1025YOPC   C4B14798  15.648   1.899   7.216  0.2021 -0.0492  0.0852
 1026YOPC   NC314799  14.677   4.571   5.373 -0.2144 -0.0956  0.1221
 1026YOPC   PO414800  14.584   4.252   5.688 -0.0436 -0.3169 -0.0270
 1026YOPC   GL114801  14.442   4.502   5.896 -0.1841  0.0667 -0.5315
 1026YOPC   GL214802  14.106   4.471   5.944 -0.2119 -0.1127  0.0446
 1026YOPC   C1A14803  14.541   4.923   6.175 -0.1648 -0.1519 -0.0594
 1026YOPC   D2A14804  14.240   4.938   6.429  0.1446 -0.0558 -0.2164
 1026YOPC   C3A14805  13.971   5.340   6.534 -0.2913  0.1843 -0.0879
 1026YOPC   C4A14806  13.826   5.400   7.037  0.0457  0.0129 -0.4179
 1026YOPC   C1B14807  14.166   4.450   6.337  0.0429  0.2035 -0.0827
 1026YOPC   C2B14808  14.161   4.547   6.817  0.0263 -0.1487 -0.1483
 1026YOPC   D3B14809  14.184   4.446   7.253 -0.0743  0.1254  0.0214
 1026YOPC   C4B14810  14.069   4.409   7.714 -0.2988  0.1656 -0.2947
 1027YOPC   NC314811   5.867  14.536   5.153  0.2054 -0.0273  0.2129
 1027YOPC   PO414812   5.670  14.426   5.517  0.0308 -0.0401 -0.0333
 1027YOPC   GL114813   5.620  14.516   5.943  0.0127  0.2660 -0.1086
 1027YOPC   GL214814   5.619  14.196   6.237 -0.2951 -0.0816 -0.1745
 1027YOPC   C1A14815   5.725  14.659   6.346  0.0572 -0.0421 -0.0155
 1027YOPC   D2A14816   5.689  14.985   6.617 -0.1679  0.1278 -0.1588
 1027YOPC   C3A14817   6.110  14.995   6.865  0.1008  0.0242 -0.1469
 1027YOPC   C4A14818   6.447  14.741   6.791 -0.1190 -0.0092 -0.1168
 1027YOPC   C1B14819   5.794  13.861   6.444  0.1510  0.3926  0.1410
 1027YOPC   C2B14820   6.021  13.478   6.430 -0.1897 -0.3393  0.1885
 1027YOPC   D3B14821   6.169  13.452   6.827  0.2420 -0.1148 -0.0086
 1027YOPC   C4B14822   5.998  13.284   7.170 -0.1506  0.1402  0.0256
 1028YOPC   NC314823   6.097   0.736   5.414 -0.0127 -0.0734  0.0733
 1028YOPC   PO414824   5.747   1.112   5.323 -0.4071  0.0651  0.0312
 1028YOPC   GL114825   5.857   1.129   5.741  0.0870  0.2193  0.0092
 1028YOPC   GL214826   5.926   1.411   5.838  0.1125 -0.1102 -0.0047
 1028YOPC   C1A14827   5.517   1.170   6.134 -0.1473 -0.0217 -0.1070
 1028YOPC   D2A14828   5.375   1.395   6.448  0.1705 -0.0732 -0.2603
 1028YOPC   C3A14829   5.011   1.336   6.741  0.2005 -0.1549  0.4198
 1028YOPC   C4A14830   4.987   1.184   7.169 -0.1392  0.0027 -0.0904
 1028YOPC   C1B14831   5.888   1.473   6.279  0.1173  0.0718  0.1378
 1028YOPC   C2B14832   6.098   1.516   6.559  0.1257  0.0478 -0.2695
 1028YOPC   D3B14833   5.812   1.533   6.847 -0.1938 -0.1110  0.2329
 1028YOPC   C4B14834   5.424   1.270   6.913 -0.0315 -0.2543  0.2107
 1029YOPC   NC314835   4.953  10.198   5.289  0.1201 -0.2407  0.3031
 1029YOPC   PO414836   4.766   9.878   5.088 -0.0557 -0.1597 -0.2436
 1029YOPC   GL114837   4.531  10.003   5.503 -0.2128  0.0480  0.1262
 1029YOPC   GL214838   4.215   9.754   5.588  0.0534  0.3350 -0.0006
 1029YOPC   C1A14839   4.546   9.961   5.895  0.1855 -0.0570 -0.1089
 1029YOPC   D2A14840   4.621   9.714   6.215  0.0964  0.1232  0.0982
 1029YOPC   C3A14841   4.361   9.914   6.534 -0.1372 -0.1145  0.2004
 1029YOPC   C4A14842   4.012  10.155   6.886  0.0219 -0.1459  0.0883
 1029YOPC   C1B14843   4.192   9.457   5.956 -0.1209 -0.0142  0.2884
 1029YOPC   C2B14844   4.171   9.491   6.370 -0.0041 -0.1785  0.2698
 1029YOPC   D3B14845   4.169   9.093   6.586  0.3600 -0.0553 -0.1409
 1029YOPC   C4B14846   4.173   9.170   7.016 -0.1224  0.1035  0.1036
 1030YOPC   NC314847   3.015  18.435   4.812 -0.1250  0.0289 -0.1609
 1030YOPC   PO414848   3.090  18.573   5.280  0.2382  0.2275 -0.2556
 1030YOPC   GL114849   2.923  18.695   5.682 -0.2983 -0.0505  0.1244
 1030YOPC   GL214850   2.640  18.598   5.587  0.2156  0.0380  0.0261
 1030YOPC   C1A14851   3.007  18.634   6.107  0.0251  0.2811 -0.0310
 1030YOPC   D2A14852   3.138  18.607   6.515  0.2942  0.2296  0.3817
 1030YOPC   C3A14853   2.862  18.625   6.850 -0.1644  0.0863  0.2179
 1030YOPC   C4A14854   2.540  18.663   7.107  0.0918  0.0099  0.0219
 1030YOPC   C1B14855   2.516  18.596   6.072  0.2856 -0.3497  0.0487
 1030YOPC   C2B14856   2.443  18.534   6.459  0.1742 -0.1249 -0.0771
 1030YOPC   D3B14857   2.295  18.900   6.700 -0.0789 -0.0740 -0.2265
 1030YOPC   C4B14858   2.195  19.284   6.744  0.0764  0.0916 -0.0225
 1031YOPC   NC314859   7.604   9.023   5.138  0.4804 -0.0638  0.1646
 1031YOPC   PO414860   7.288   8.705   5.300 -0.1372 -0.3779 -0.0241
 1031YOPC   GL114861   7.468   8.715   5.662  0.1720  0.1486 -0.2107
 1031YOPC   GL214862   7.788   8.765   5.602 -0.1307 -0.2511 -0.4456
 1031YOPC   C1A14863   7.605   8.615   6.027 -0.1711 -0.0840 -0.0805
 1031YOPC   D2A14864   7.541   8.453   6.448  0.0327  0.0869 -0.0873
 1031YOPC   C3A14865   7.359   8.761   6.636  0.1299  0.0619 -0.1818
 1031YOPC   C4A14866   7.385   9.108   6.750  0.1062 -0.0791 -0.2236
 1031YOPC   C1B14867   7.732   9.207   5.836  0.0021 -0.1929 -0.4098
 1031YOPC   C2B14868   7.643   9.488   6.091 -0.0897  0.2948  0.1675
 1031YOPC   D3B14869   7.680   9.433   6.537 -0.1729 -0.0952  0.0938
 1031YOPC   C4B14870   7.902   9.489   6.964  0.1913  0.0210  0.1421
 1032YOPC   NC314871   8.856   4.813   4.970  0.0813 -0.0691 -0.0764
 1032YOPC   PO414872   8.849   4.610   5.368 -0.0425  0.3087 -0.0800
 1032YOPC   GL114873   9.113   4.676   5.693 -0.0687 -0.0298  0.1463
 1032YOPC   GL214874   8.839   4.936   5.785 -0.3805 -0.0244 -0.0580
 1032YOPC   C1A14875   9.459   4.769   5.910 -0.0037  0.2039 -0.0333
 1032YOPC   D2A14876   9.663   5.116   6.002  0.3209  0.1693 -0.2557
 1032YOPC   C3A14877   9.829   5.100   6.386 -0.2425 -0.1016  0.1201
 1032YOPC   C4A14878  10.118   5.144   6.769  0.1901 -0.2926 -0.2909
 1032YOPC   C1B14879   8.920   4.747   6.125 -0.1144 -0.2736  0.3115
 1032YOPC   C2B14880   8.819   4.616   6.490 -0.0054  0.0519 -0.1923
 1032YOPC   D3B14881   8.684   4.869   6.886  0.2288 -0.1154  0.0784
 1032YOPC   C4B14882   8.779   5.005   7.209 -0.1470 -0.0196 -0.1153
 1033YOPC   NC314883  16.400   3.695   5.442  0.0690 -0.0138 -0.0214
 1033YOPC   PO414884  15.991   3.832   5.412  0.3263 -0.1418 -0.2396
 1033YOPC   GL114885  16.207   4.147   5.688  0.1281  0.1945  0.2327
 1033YOPC   GL214886  16.448   4.038   5.923  0.0176 -0.1126  0.0365
 1033YOPC   C1A14887  16.237   4.536   6.041 -0.0511 -0.1618  0.1742
 1033YOPC   D2A14888  16.546   4.782   6.083 -0.0521 -0.0107  0.1659
 1033YOPC   C3A14889  16.659   4.838   6.496  0.0218  0.1052 -0.0198
 1033YOPC   C4A14890  16.686   5.010   6.920 -0.0471  0.0974 -0.1117
 1033YOPC   C1B14891  16.510   4.266   6.311  0.1398 -0.2238  0.3433
 1033YOPC   C2B14892  16.152   4.492   6.543 -0.3411  0.0953  0.1616
 1033YOPC   D3B14893  16.175   4.561   7.021  0.0136 -0.0167  0.1083
 1033YOPC   C4B14894  15.818   4.804   7.240  0.3811  0.1094 -0.1319
 1034YOPC   NC314895   1.654   2.720   5.399 -0.0065 -0.1356 -0.2780
 1034YOPC   PO414896   1.926   2.988   5.410 -0.1656  0.0385 -0.0050
 1034YOPC   GL114897   1.907   2.866   5.832 -0.0265  0.0599 -0.1733
 1034YOPC   GL214898   2.094   2.675   5.942 -0.3498  0.0041 -0.1412
 1034YOPC   C1A14899   1.660   2.940   6.113  0.1805  0.2150 -0.2412
 1034YOPC   D2A14900   1.783   3.094   6.487 -0.1612 -0.0369 -0.1261
 1034YOPC   C3A14901   1.499   3.298   6.834  0.0871 -0.1322 -0.0337
 1034YOPC   C4A14902   1.558   3.463   7.218  0.3289 -0.1287 -0.0717
 1034YOPC   C1B14903   2.061   2.726   6.401 -0.0351 -0.0018  0.0553
 1034YOPC   C2B14904   2.148   2.836   6.807 -0.2255 -0.0915 -0.2767
 1034YOPC   D3B14905   2.001   2.578   6.983  0.0617 -0.0750  0.0575
 1034YOPC   C4B14906   1.879   2.518   7.393 -0.0671 -0.0220  0.0149
 1035YOPC   NC314907  14.938  13.379   6.034  0.1006  0.2610  0.2721
 1035YOPC   PO414908  15.229  13.569   5.846  0.0842  0.1379  0.1651
 1035YOPC   GL114909  15.556  13.738   6.187  0.0986  0.0547  0.0932
 1035YOPC   GL214910  15.917  13.808   6.103  0.1441 -0.2918  0.1983
 1035YOPC   C1A14911  15.744  13.613   6.599  0.0681  0.2883  0.0367
 1035YOPC   D2A14912  16.111  13.585   6.839 -0.2712  0.2715 -0.0639
 1035YOPC   C3A14913  16.180  13.736   7.295  0.2528 -0.3726  0.0313
 1035YOPC   C4A14914  16.412  13.512   7.598 -0.2137  0.1459 -0.2544
 1035YOPC   C1B14915  15.997  14.086   6.442 -0.1309 -0.0824 -0.0834
 1035YOPC   C2B14916  16.140  14.392   6.627  0.1714  0.1051  0.0654
 1035YOPC   D3B14917  15.748  14.474   6.823 -0.1233  0.1578 -0.2579
 1035YOPC   C4B14918  15.524  14.442   7.152 -0.1987  0.0594 -0.0997
 1036YOPC   NC314919  11.093   7.893   5.782  0.1566  0.0822  0.1174
 1036YOPC   PO414920  11.487   8.061   5.716 -0.2138  0.0805 -0.1777
 1036YOPC   GL114921  11.370   8.141   6.119  0.4942  0.0706  0.0825
 1036YOPC   GL214922  10.970   8.044   6.271 -0.2512  0.0702 -0.0930
 1036YOPC   C1A14923  11.530   8.379   6.517  0.1528  0.1144  0.2347
 1036YOPC   D2A14924  11.781   8.424   6.899 -0.0192  0.0768  0.0828
 1036YOPC   C3A14925  11.933   8.019   6.970  0.1616  0.0028 -0.1383
 1036YOPC   C4A14926  11.824   7.701   7.236  0.1104 -0.0153 -0.0907
 1036YOPC   C1B14927  11.035   7.822   6.713 -0.1527 -0.0561 -0.0400
 1036YOPC   C2B14928  10.729   7.616   6.982  0.2597  0.0878  0.2771
 1036YOPC   D3B14929  10.384   7.780   7.021  0.0993 -0.1713  0.2462
 1036YOPC   C4B14930  10.151   8.038   6.857 -0.2302 -0.0262 -0.1003
 1037YOPC   NC314931   5.843  10.879   5.568 -0.0201  0.2356 -0.0428
 1037YOPC   PO414932   5.648  11.211   5.451 -0.0429 -0.0530 -0.0077
 1037YOPC   GL114933   5.715  11.251   5.867  0.0137 -0.0573 -0.0869
 1037YOPC   GL214934   5.573  11.519   5.920 -0.0427  0.3609 -0.2159
 1037YOPC   C1A14935   5.891  11.272   6.254 -0.0100 -0.2227  0.4917
 1037YOPC   D2A14936   5.652  11.375   6.565 -0.2884 -0.2477  0.1232
 1037YOPC   C3A14937   5.651  11.437   6.823  0.1725 -0.0096 -0.0356
 1037YOPC   C4A14938   5.356  11.418   7.182 -0.2066 -0.2252  0.3553
 1037YOPC   C1B14939   5.413  11.699   6.330 -0.1973  0.0746  0.0907
 1037YOPC   C2B14940   5.572  11.886   6.756  0.0713  0.0350  0.0729
 1037YOPC   D3B14941   5.666  12.270   6.754 -0.0893 -0.1167  0.4682
 1037YOPC   C4B14942   5.968  12.556   6.580 -0.1507 -0.1347 -0.1839
 1038YOPC   NC314943  12.507   1.339   5.917 -0.1268  0.2045 -0.1411
 1038YOPC   PO414944  12.568   0.883   5.979 -0.0018 -0.1227 -0.1626
 1038YOPC   GL114945  12.696   1.115   6.371 -0.0379  0.0534 -0.1664
 1038YOPC   GL214946  12.985   1.022   6.463 -0.2168 -0.1291 -0.0633
 1038YOPC   C1A14947  12.359   0.990   6.707 -0.0624 -0.0190  0.0022
 1038YOPC   D2A14948  12.213   0.609   6.731 -0.1437  0.1962 -0.1776
 1038YOPC   C3A14949  12.564   0.396   6.903  0.0686 -0.4867  0.0461
 1038YOPC   C4A14950  12.996   0.454   7.002 -0.1081 -0.4403  0.2022
 1038YOPC   C1B14951  12.813   0.954   6.851  0.2411  0.1201  0.2642
 1038YOPC   C2B14952  12.858   0.855   7.289  0.2962 -0.0959  0.0760
 1038YOPC   D3B14953  12.969   0.420   7.498  0.1237 -0.0842 -0.1267
 1038YOPC   C4B14954  12.959   0.026   7.669 -0.2280 -0.0965  0.0151
 1039YOPC   NC314955  17.145  14.710   5.777 -0.1787  0.1683  0.1868
 1039YOPC   PO414956  17.306  14.446   5.942  0.0729  0.2456  0.0837
 1039YOPC   GL114957  17.392  14.580   6.302 -0.0940 -0.4446  0.1436
 1039YOPC   GL214958  17.463  14.902   6.172 -0.1128 -0.0260  0.2130
 1039YOPC   C1A14959  17.601  14.537   6.662  0.1594 -0.0553  0.1795
 1039YOPC   D2A14960  17.734  14.560   7.032  0.3388  0.0364 -0.0107
 1039YOPC   C3A14961  17.925  14.803   7.314 -0.2144 -0.0380 -0.1237
 1039YOPC   C4A14962  18.101  14.766   7.794  0.0453  0.1201 -0.3050
 1039YOPC   C1B14963  17.709  15.036   6.441 -0.3360  0.1985  0.2187
 1039YOPC   C2B14964  17.830  15.024   6.897 -0.0264 -0.3185  0.1147
 1039YOPC   D3B14965  18.235  15.209   7.117 -0.1649  0.1339 -0.1296
 1039YOPC   C4B14966  18.657  15.290   7.136  0.0894 -0.0071 -0.2062
 1040YOPC   NC314967   7.263  17.460   5.429  0.2499 -0.3062 -0.2371
 1040YOPC   PO414968   6.849  17.545   5.616  0.1251 -0.1738 -0.0683
 1040YOPC   GL114969   6.814  17.601   6.081 -0.4117  0.1735 -0.1529
 1040YOPC   GL214970   6.705  17.318   6.120 -0.2419  0.0841  0.0705
 1040YOPC   C1A14971   7.055  17.445   6.485 -0.2055  0.2192  0.0279
 1040YOPC   D2A14972   7.159  17.363   6.934  0.0966  0.0045  0.0466
 1040YOPC   C3A14973   6.918  17.334   7.252  0.2593  0.1520  0.1663
 1040YOPC   C4A14974   6.792  17.064   7.578  0.1082  0.0762 -0.0894
 1040YOPC   C1B14975   6.505  17.215   6.520  0.1132  0.3511  0.1438
 1040YOPC   C2B14976   6.179  17.250   6.778 -0.0129  0.0988 -0.0732
 1040YOPC   D3B14977   6.170  17.479   7.225 -0.1378  0.0115 -0.0513
 1040YOPC   C4B14978   6.034  17.480   7.631 -0.1257 -0.0433 -0.2892
 1041YOPC   NC314979  13.788   7.146   5.543  0.1236 -0.1837  0.2752
 1041YOPC   PO414980  13.550   6.854   5.734  0.0108 -0.3091  0.1616
 1041YOPC   GL114981  13.409   7.211   5.953  0.0380 -0.1033 -0.0600
 1041YOPC   GL214982  13.330   7.552   5.989  0.2570  0.0393  0.1243
 1041YOPC   C1A14983  13.400   7.212   6.449 -0.3123 -0.3187 -0.0062
 1041YOPC   D2A14984  13.741   7.138   6.589 -0.2235  0.0572 -0.1898
 1041YOPC   C3A14985  13.889   7.171   7.026 -0.0658  0.0676  0.1647
 1041YOPC   C4A14986  14.181   6.999   7.305  0.2780  0.1226  0.2885
 1041YOPC   C1B14987  13.075   7.905   6.217  0.1499 -0.1832 -0.1281
 1041YOPC   C2B14988  12.917   8.078   6.552 -0.1832  0.2878 -0.0853
 1041YOPC   D3B14989  12.791   7.815   6.889  0.1404 -0.2725  0.0271
 1041YOPC   C4B14990  12.583   7.387   6.750  0.1628  0.1160 -0.2582
 1042YOPC   NC314991   7.814  18.219   5.311  0.3439 -0.1628  0.3274
 1042YOPC   PO414992   7.531  17.832   5.388 -0.2296 -0.2993  0.0081
 1042YOPC   GL114993   7.663  17.906   5.750 -0.0772 -0.0655 -0.3437
 1042YOPC   GL214994   7.681  18.100   5.936 -0.0144  0.0938  0.1401
 1042YOPC   C1A14995   7.718  17.680   6.159 -0.0981  0.2355 -0.2521
 1042YOPC   D2A14996   7.921  17.393   6.385 -0.2113  0.1895 -0.1021
 1042YOPC   C3A14997   7.928  17.331   6.843 -0.1282  0.1050  0.0475
 1042YOPC   C4A14998   8.236  17.253   7.219  0.1193 -0.3785 -0.0981
 1042YOPC   C1B14999   7.698  18.227   6.384  0.1487  0.1137  0.0137
 1042YOPC   C2B15000   7.575  18.309   6.757  0.0820 -0.1267 -0.1416
 1042YOPC   D3B15001   7.178  18.379   6.901 -0.1274  0.0351  0.0528
 1042YOPC   C4B15002   6.990  18.604   7.175 -0.1637 -0.3169 -0.2228
 1043YOPC   NC315003   9.427  12.987   5.630 -0.1609  0.1310 -0.3000
 1043YOPC   PO415004   9.160  12.833   5.928  0.3675 -0.2462  0.1741
 1043YOPC   GL115005   9.002  13.008   6.299 -0.3574  0.2345 -0.0611
 1043YOPC   GL215006   8.976  13.287   6.395 -0.0286  0.2050  0.4004
 1043YOPC   C1A15007   8.828  12.814   6.754 -0.0575  0.1670  0.0171
 1043YOPC   D2A15008   8.714  12.519   7.071 -0.1833  0.2489  0.4247
 1043YOPC   C3A15009   8.414  12.562   7.372 -0.1939  0.1143 -0.0322
 1043YOPC   C4A15010   8.020  12.747   7.684 -0.2294 -0.0445  0.0660
 1043YOPC   C1B15011   9.089  13.604   6.591  0.2093 -0.0118 -0.0796
 1043YOPC   C2B15012   8.946  13.624   7.072 -0.0432  0.4293  0.0859
 1043YOPC   D3B15013   9.352  13.508   7.343  0.0024 -0.1030 -0.4043
 1043YOPC   C4B15014   9.246  13.192   7.548 -0.7533  0.0921  0.2103
 1044YOPC   NC315015   2.766   4.254   5.033  0.1184 -0.0622  0.0044
 1044YOPC   PO415016   3.202   4.444   5.183 -0.0608  0.0580  0.2085
 1044YOPC   GL115017   3.149   4.490   5.583 -0.0698  0.1020  0.0002
 1044YOPC   GL215018   2.904   4.665   5.606  0.0401 -0.0613  0.0175
 1044YOPC   C1A15019   3.118   4.517   6.011  0.1675  0.1255 -0.2387
 1044YOPC   D2A15020   3.066   4.412   6.361 -0.1396  0.0987  0.0422
 1044YOPC   C3A15021   2.994   4.512   6.873  0.3287  0.0238  0.1470
 1044YOPC   C4A15022   3.258   4.473   7.102  0.1290 -0.2826  0.0247
 1044YOPC   C1B15023   2.917   5.101   5.734 -0.0076 -0.3086  0.1573
 1044YOPC   C2B15024   2.701   5.293   6.144 -0.0751  0.3908 -0.3557
 1044YOPC   D3B15025   2.604   5.569   6.436 -0.2245 -0.2686  0.0620
 1044YOPC   C4B15026   2.432   5.490   6.902 -0.0534 -0.0100 -0.1032
 1045YOPC   NC315027   3.165   6.630   5.087  0.1565  0.2063  0.0714
 1045YOPC   PO415028   3.297   6.244   5.268 -0.0385  0.2687  0.4423
 1045YOPC   GL115029   3.156   6.076   5.650 -0.2142  0.2017  0.1131
 1045YOPC   GL215030   3.012   5.849   5.649 -0.0479  0.0522  0.6021
 1045YOPC   C1A15031   3.366   5.983   6.006  0.0878  0.1994  0.0079
 1045YOPC   D2A15032   3.794   6.097   6.191  0.1545 -0.0890  0.2480
 1045YOPC   C3A15033   3.929   6.183   6.649 -0.1168 -0.1055  0.2103
 1045YOPC   C4A15034   3.646   6.494   6.805 -0.0906  0.3021  0.0525
 1045YOPC   C1B15035   3.127   5.457   6.001  0.0663 -0.2176 -0.1244
 1045YOPC   C2B15036   3.078   5.340   6.489 -0.5682  0.0385  0.0214
 1045YOPC   D3B15037   3.265   5.564   6.842 -0.0708  0.1104  0.1380
 1045YOPC   C4B15038   3.507   5.445   7.142 -0.0141 -0.0572 -0.0423
 1046YOPC   NC315039   8.138   5.467   5.171  0.0862 -0.0015 -0.0426
 1046YOPC   PO415040   7.768   5.792   5.204  0.0325 -0.0041 -0.0563
 1046YOPC   GL115041   7.646   5.820   5.631 -0.0813 -0.0289  0.0556
 1046YOPC   GL215042   7.391   6.122   5.777  0.0434 -0.0393 -0.0309
 1046YOPC   C1A15043   7.718   5.558   6.023  0.0456  0.2338  0.1371
 1046YOPC   D2A15044   7.454   5.540   6.378  0.0071  0.0272 -0.1358
 1046YOPC   C3A15045   7.484   5.632   6.817 -0.0683 -0.0034 -0.0686
 1046YOPC   C4A15046   7.445   5.553   7.275  0.1978  0.3110 -0.0274
 1046YOPC   C1B15047   7.343   6.595   5.963 -0.0928  0.1036  0.0967
 1046YOPC   C2B15048   7.275   7.041   6.105  0.0687 -0.1064 -0.0175
 1046YOPC   D3B15049   7.025   7.098   6.434 -0.0659 -0.0414 -0.0685
 1046YOPC   C4B15050   7.252   7.137   6.809  0.0844 -0.1696 -0.0585
 1047YOPC   NC315051  14.649  17.483   5.967  0.2296  0.3752 -0.0678
 1047YOPC   PO415052  15.005  17.739   5.898 -0.1785  0.3103  0.2068
 1047YOPC   GL115053  15.137  17.437   6.257  0.0481 -0.0157 -0.2665
 1047YOPC   GL215054  14.904  17.406   6.446 -0.0128 -0.0221 -0.1570
 1047YOPC   C1A15055  15.359  17.374   6.583 -0.2935 -0.1543  0.2220
 1047YOPC   D2A15056  15.624  17.022   6.805  0.0089  0.1308 -0.0627
 1047YOPC   C3A15057  15.510  16.946   7.170  0.1874  0.0980 -0.5164
 1047YOPC   C4A15058  15.793  17.145   7.519  0.0558 -0.1944  0.4268
 1047YOPC   C1B15059  14.972  17.592   6.914  0.0779  0.3901  0.3237
 1047YOPC   C2B15060  14.959  17.739   7.404 -0.1455  0.5097 -0.1277
 1047YOPC   D3B15061  15.312  18.022   7.690  0.0332 -0.1996 -0.2740
 1047YOPC   C4B15062  15.333  18.205   8.118  0.0892  0.0399 -0.0985
 1048YOPC   NC315063   0.928  15.384   4.647  0.0739  0.0091  0.1543
 1048YOPC   PO415064   0.818  15.686   4.982 -0.0966 -0.1176 -0.0748
 1048YOPC   GL115065   0.860  15.689   5.438  0.2212  0.0607  0.0807
 1048YOPC   GL215066   1.249  15.692   5.522 -0.1124  0.0484  0.0851
 1048YOPC   C1A15067   0.884  15.710   5.914 -0.0273 -0.2409  0.1182
 1048YOPC   D2A15068   0.947  15.465   6.210 -0.1920  0.0151 -0.0882
 1048YOPC   C3A15069   0.923  15.507   6.617  0.3231 -0.1196 -0.3017
 1048YOPC   C4A15070   0.761  15.185   7.002  0.1558  0.0668 -0.0804
 1048YOPC   C1B15071   1.278  15.364   5.824  0.0684 -0.1398 -0.0862
 1048YOPC   C2B15072   1.399  15.153   6.165 -0.0659 -0.2006  0.4659
 1048YOPC   D3B15073   1.372  15.125   6.656  0.1059  0.0105  0.2146
 1048YOPC   C4B15074   1.325  14.887   7.027 -0.0767  0.2893 -0.1199
 1049YOPC   NC315075  17.585   2.436   5.490  0.1667 -0.2138 -0.3959
 1049YOPC   PO415076  17.211   2.317   5.529 -0.4247 -0.1563 -0.0068
 1049YOPC   GL115077  17.143   2.215   5.890  0.2036 -0.2117  0.2424
 1049YOPC   GL215078  16.823   2.106   5.995 -0.1717  0.0359 -0.2494
 1049YOPC   C1A15079  17.091   2.396   6.265  0.1586  0.2452  0.2744
 1049YOPC   D2A15080  16.909   2.353   6.584  0.1779 -0.1059 -0.1229
 1049YOPC   C3A15081  16.825   2.510   6.881 -0.2377 -0.1428  0.3438
 1049YOPC   C4A15082  16.739   2.523   7.307 -0.1308  0.0189 -0.1444
 1049YOPC   C1B15083  16.791   1.905   6.341 -0.4284 -0.0393  0.2990
 1049YOPC   C2B15084  16.655   2.001   6.765 -0.3663 -0.0940  0.0968
 1049YOPC   D3B15085  16.784   2.044   7.132 -0.0552  0.1144  0.1642
 1049YOPC   C4B15086  16.786   1.690   7.412  0.1765  0.1493 -0.0344
 1050YOPC   NC315087  15.987   3.356   5.197 -0.0035  0.1664  0.0970
 1050YOPC   PO415088  15.700   3.372   5.621  0.0640 -0.0253  0.4733
 1050YOPC   GL115089  15.617   3.418   6.151 -0.2561  0.3822  0.2669
 1050YOPC   GL215090  15.319   3.288   6.362  0.2006 -0.0465 -0.1560
 1050YOPC   C1A15091  15.719   3.576   6.542  0.1859 -0.2756  0.0792
 1050YOPC   D2A15092  15.852   3.708   6.938 -0.0896  0.0381 -0.2366
 1050YOPC   C3A15093  16.004   3.635   7.357 -0.0315  0.0879 -0.2124
 1050YOPC   C4A15094  16.041   3.626   7.842 -0.2239  0.0980  0.0658
 1050YOPC   C1B15095  15.129   3.349   6.760 -0.1307  0.2451  0.0989
 1050YOPC   C2B15096  14.769   3.314   7.082  0.0811 -0.2605  0.0713
 1050YOPC   D3B15097  14.649   3.601   7.388  0.2310  0.0190  0.1404
 1050YOPC   C4B15098  14.530   3.603   7.815  0.0552 -0.1315  0.0464
 1051YOPC   NC315099   9.806   0.349   5.695 -0.1250  0.1508  0.1089
 1051YOPC   PO415100  10.109   0.477   5.470  0.2323 -0.0433 -0.1153
 1051YOPC   GL115101  10.174   0.621   5.934  0.0044  0.2858  0.2704
 1051YOPC   GL215102  10.073   0.470   6.271 -0.0273 -0.1653  0.0835
 1051YOPC   C1A15103  10.061   1.026   6.157 -0.1925 -0.0876 -0.0939
 1051YOPC   D2A15104  10.108   1.342   6.471 -0.1114 -0.3941  0.1974
 1051YOPC   C3A15105  10.131   1.440   6.906  0.0533  0.2947 -0.0770
 1051YOPC   C4A15106  10.144   1.619   7.205  0.0541 -0.2201 -0.1926
 1051YOPC   C1B15107  10.021   0.489   6.724  0.2821 -0.0073  0.0640
 1051YOPC   C2B15108  10.215   0.450   7.121  0.2955  0.2863  0.0341
 1051YOPC   D3B15109  10.494   0.422   7.432  0.1621  0.0575 -0.0105
 1051YOPC   C4B15110  10.853   0.146   7.484  0.3028 -0.3340 -0.0079
 1052YOPC   NC315111   1.263  18.290   5.293  0.3530 -0.0660  0.1502
 1052YOPC   PO415112   1.740  18.266   5.197 -0.0043 -0.1057 -0.3189
 1052YOPC   GL115113   1.938  18.148   5.635  0.0219 -0.0864  0.1306
 1052YOPC   GL215114   2.159  18.334   5.795  0.0504 -0.1301 -0.0826
 1052YOPC   C1A15115   2.033  17.834   6.047 -0.0934  0.2176  0.3502
 1052YOPC   D2A15116   2.166  17.558   6.362  0.1539  0.0399  0.0235
 1052YOPC   C3A15117   1.960  17.305   6.718  0.1310  0.2626  0.0582
 1052YOPC   C4A15118   1.686  17.055   7.063 -0.0418 -0.0937 -0.1351
 1052YOPC   C1B15119   2.313  18.184   6.155  0.2809 -0.1399 -0.1639
 1052YOPC   C2B15120   2.287  18.018   6.544  0.1325 -0.0521  0.1104
 1052YOPC   D3B15121   2.079  18.028   6.844 -0.1113 -0.0153  0.2901
 1052YOPC   C4B15122   1.896  17.937   7.236 -0.0988 -0.1982  0.0867
 1053YOPC   NC315123   2.094   1.854   5.269  0.1835  0.2317 -0.0559
 1053YOPC   PO415124   1.810   2.270   5.183 -0.1458  0.0952 -0.0198
 1053YOPC   GL115125   1.821   2.306   5.624  0.2389  0.2776  0.2286
 1053YOPC   GL215126   1.562   2.024   5.799 -0.3675 -0.2087 -0.2808
 1053YOPC   C1A15127   1.985   2.140   6.091  0.2949 -0.3138  0.1968
 1053YOPC   D2A15128   2.025   2.233   6.584  0.1039 -0.1236 -0.0890
 1053YOPC   C3A15129   2.232   1.980   6.913  0.2761 -0.4223 -0.2336
 1053YOPC   C4A15130   2.128   1.840   7.293  0.0346 -0.0557  0.3766
 1053YOPC   C1B15131   1.510   1.927   6.131 -0.2400  0.0904 -0.0353
 1053YOPC   C2B15132   1.382   2.059   6.482 -0.2151 -0.0797 -0.0109
 1053YOPC   D3B15133   1.461   1.972   6.813  0.4216 -0.1379  0.0073
 1053YOPC   C4B15134   1.278   1.786   7.158 -0.0342  0.2453  0.3493
 1054YOPC   NC315135   2.874  13.931   5.107 -0.0491 -0.0779  0.2341
 1054YOPC   PO415136   2.981  14.253   5.439 -0.2957  0.0071 -0.0066
 1054YOPC   GL115137   3.092  14.305   5.825 -0.1164  0.2554 -0.0548
 1054YOPC   GL215138   3.353  14.198   6.083  0.1761  0.1870 -0.1388
 1054YOPC   C1A15139   3.081  14.585   6.227  0.1542 -0.0090  0.0124
 1054YOPC   D2A15140   3.099  14.615   6.750  0.0893 -0.4664 -0.1370
 1054YOPC   C3A15141   2.821  14.783   6.804  0.0729 -0.2360  0.0278
 1054YOPC   C4A15142   2.354  14.841   6.722  0.0148 -0.1780  0.0362
 1054YOPC   C1B15143   3.431  14.323   6.465  0.3490 -0.0269 -0.5100
 1054YOPC   C2B15144   3.524  14.453   6.926  0.2701  0.0668 -0.0552
 1054YOPC   D3B15145   3.290  14.734   7.232 -0.1785  0.1874 -0.1170
 1054YOPC   C4B15146   3.340  15.052   7.523  0.3239 -0.0808  0.0011
 1055YOPC   NC315147  15.372  14.863   6.148 -0.2326  0.1895 -0.1365
 1055YOPC   PO415148  15.232  14.494   5.977  0.0011  0.0212  0.0098
 1055YOPC   GL115149  15.203  14.195   6.306  0.0811 -0.3192 -0.1515
 1055YOPC   GL215150  15.098  13.968   6.160 -0.0223 -0.1600 -0.3207
 1055YOPC   C1A15151  15.538  14.063   6.601  0.2648  0.0573  0.1128
 1055YOPC   D2A15152  15.827  14.000   6.921 -0.1372 -0.0569 -0.0410
 1055YOPC   C3A15153  15.588  13.969   7.365  0.0445  0.0611  0.2195
 1055YOPC   C4A15154  15.364  13.826   7.770 -0.0328 -0.2075 -0.1070
 1055YOPC   C1B15155  15.158  13.691   6.491 -0.0204  0.1848 -0.0337
 1055YOPC   C2B15156  15.368  13.671   6.900  0.3578  0.3194 -0.1009
 1055YOPC   D3B15157  15.729  13.494   7.181  0.3009 -0.0539 -0.0861
 1055YOPC   C4B15158  15.839  13.303   7.517 -0.0166  0.0178  0.0950
 1056YOPC   NC315159   1.284   9.569   5.469  0.3368  0.0526 -0.0659
 1056YOPC   PO415160   0.806   9.697   5.491 -0.0069  0.1751  0.2418
 1056YOPC   GL115161   0.838   9.724   5.935 -0.2232 -0.1024 -0.1961
 1056YOPC   GL215162   0.919  10.073   6.096 -0.0916 -0.0076 -0.0965
 1056YOPC   C1A15163   0.756   9.707   6.347 -0.0483  0.2242 -0.0000
 1056YOPC   D2A15164   1.051   9.526   6.630  0.1848  0.1644 -0.2157
 1056YOPC   C3A15165   1.437   9.465   6.734  0.0449  0.0193  0.2090
 1056YOPC   C4A15166   1.759   9.221   6.765  0.2262 -0.0777  0.0066
 1056YOPC   C1B15167   0.813  10.120   6.640 -0.2900 -0.1176  0.0390
 1056YOPC   C2B15168   0.764  10.121   7.066  0.2421  0.2272  0.0264
 1056YOPC   D3B15169   0.952  10.002   7.496  0.0565  0.0850  0.1685
 1056YOPC   C4B15170   1.217   9.652   7.633 -0.2557 -0.0790 -0.0409
 1057YOPC   NC315171  14.969  12.853   5.378  0.0377  0.3167 -0.1296
 1057YOPC   PO415172  14.905  12.916   5.865 -0.1174 -0.0580 -0.1428
 1057YOPC   GL115173  14.974  12.846   6.300 -0.1430 -0.1141  0.0104
 1057YOPC   GL215174  14.847  13.157   6.419 -0.1425  0.1656  0.0617
 1057YOPC   C1A15175  14.907  12.758   6.746  0.1544  0.1631 -0.0182
 1057YOPC   D2A15176  14.882  12.795   7.091  0.0604  0.0933 -0.1955
 1057YOPC   C3A15177  14.966  13.141   7.312  0.2616  0.0197 -0.1429
 1057YOPC   C4A15178  15.233  13.506   7.381 -0.0123 -0.0748  0.1190
 1057YOPC   C1B15179  14.941  13.390   6.775 -0.2093  0.2593 -0.0439
 1057YOPC   C2B15180  14.720  13.612   7.127  0.3250 -0.0052 -0.3454
 1057YOPC   D3B15181  14.433  13.886   6.918 -0.1377 -0.3488  0.1818
 1057YOPC   C4B15182  14.247  14.021   6.566  0.2867 -0.1918 -0.1593
 1058YOPC   NC315183   6.096  10.256   5.329  0.0985 -0.0726  0.0115
 1058YOPC   PO415184   6.166   9.882   5.167 -0.1394  0.0050  0.0131
 1058YOPC   GL115185   6.409   9.725   5.425  0.2298  0.0349  0.1695
 1058YOPC   GL215186   6.876   9.795   5.478 -0.0102 -0.0020  0.4468
 1058YOPC   C1A15187   6.557   9.525   5.795 -0.1537 -0.1362  0.1166
 1058YOPC   D2A15188   6.691   9.530   6.225  0.0893 -0.0040  0.0734
 1058YOPC   C3A15189   6.598   9.361   6.663 -0.0029  0.0826  0.1089
 1058YOPC   C4A15190   6.872   9.222   6.859  0.1167 -0.1181 -0.0828
 1058YOPC   C1B15191   6.980   9.394   5.417 -0.1171 -0.0245  0.0050
 1058YOPC   C2B15192   6.824   8.992   5.473 -0.1223  0.1375  0.0920
 1058YOPC   D3B15193   6.778   9.088   5.924 -0.0222  0.1405 -0.0932
 1058YOPC   C4B15194   6.745   8.898   6.286 -0.1510 -0.1457  0.0954
 1059YOPC   NC315195   4.696  12.619   5.715  0.1916  0.1725 -0.0943
 1059YOPC   PO415196   5.122  12.475   5.849 -0.1868  0.1034 -0.3655
 1059YOPC   GL115197   4.851  12.506   6.196  0.1860 -0.0417  0.1090
 1059YOPC   GL215198   5.112  12.623   6.371 -0.1361 -0.0097 -0.0425
 1059YOPC   C1A15199   4.673  12.704   6.574 -0.0798  0.0546  0.1545
 1059YOPC   D2A15200   4.290  12.674   6.865  0.4130  0.2571 -0.0571
 1059YOPC   C3A15201   4.282  12.381   7.231  0.4106  0.2983  0.0184
 1059YOPC   C4A15202   4.434  12.375   7.676  0.2243  0.1223 -0.0240
 1059YOPC   C1B15203   5.197  12.567   6.862 -0.1590 -0.0339  0.1062
 1059YOPC   C2B15204   5.439  12.489   7.259 -0.3610  0.0523  0.0908
 1059YOPC   D3B15205   5.626  12.098   7.496 -0.0367 -0.0613 -0.3511
 1059YOPC   C4B15206   5.754  11.742   7.228 -0.1872 -0.0595 -0.0530
 1060YOPC   NC315207   1.913   4.936   4.749 -0.0665  0.1059  0.0799
 1060YOPC   PO415208   1.993   5.035   5.111 -0.0901 -0.3645  0.1191
 1060YOPC   GL115209   2.114   5.209   5.579 -0.0742 -0.3192  0.0865
 1060YOPC   GL215210   2.395   5.105   5.632  0.0139  0.2431  0.2006
 1060YOPC   C1A15211   2.143   5.476   5.935 -0.0736  0.0334 -0.1238
 1060YOPC   D2A15212   2.160   5.550   6.283 -0.0783 -0.0325 -0.0600
 1060YOPC   C3A15213   2.013   5.423   6.572  0.0468 -0.1115 -0.2168
 1060YOPC   C4A15214   1.695   5.089   6.722 -0.0372 -0.1716  0.2158
 1060YOPC   C1B15215   2.602   4.810   5.958 -0.0638 -0.1484 -0.0051
 1060YOPC   C2B15216   2.756   4.834   6.428  0.0329  0.0519  0.0720
 1060YOPC   D3B15217   2.765   5.136   6.720  0.0156 -0.1199 -0.0306
 1060YOPC   C4B15218   2.904   5.334   7.032 -0.2006  0.0886 -0.2857
 1061YOPC   NC315219   7.649   2.168   5.440  0.1240 -0.0127 -0.1003
 1061YOPC   PO415220   7.480   1.738   5.492 -0.0777 -0.1996 -0.3022
 1061YOPC   GL115221   7.302   1.749   5.885 -0.0984 -0.1097  0.2910
 1061YOPC   GL215222   7.408   1.513   6.126  0.1229  0.0621 -0.1679
 1061YOPC   C1A15223   7.010   1.967   6.087 -0.0428 -0.3992  0.3062
 1061YOPC   D2A15224   7.046   2.282   6.334  0.1501  0.0418  0.1198
 1061YOPC   C3A15225   6.828   2.380   6.714 -0.3065 -0.1415 -0.2420
 1061YOPC   C4A15226   6.583   2.617   7.013 -0.1178 -0.0473  0.3126
 1061YOPC   C1B15227   7.502   1.921   6.304  0.3439 -0.1288  0.0363
 1061YOPC   C2B15228   7.382   2.141   6.652  0.1210  0.1066 -0.0502
 1061YOPC   D3B15229   7.494   2.474   6.846 -0.0920  0.1615 -0.2250
 1061YOPC   C4B15230   7.806   2.754   6.976 -0.3086  0.0088  0.0928
 1062YOPC   NC315231  12.697   8.064   5.603 -0.0444 -0.0295  0.1214
 1062YOPC   PO415232  12.950   8.405   5.803 -0.0187  0.1720 -0.0111
 1062YOPC   GL115233  13.180   8.396   6.125  0.0071 -0.0302 -0.0023
 1062YOPC   GL215234  13.430   8.348   6.101 -0.1378  0.0956  0.2231
 1062YOPC   C1A15235  13.301   8.551   6.514 -0.4707  0.0540 -0.4829
 1062YOPC   D2A15236  13.333   8.571   6.960 -0.1267 -0.2318  0.1761
 1062YOPC   C3A15237  13.735   8.784   7.185  0.1692 -0.1966 -0.1969
 1062YOPC   C4A15238  13.853   9.080   7.430 -0.0109  0.2239 -0.1300
 1062YOPC   C1B15239  13.472   8.105   6.441  0.0782 -0.3010 -0.0286
 1062YOPC   C2B15240  13.285   7.787   6.723 -0.1874 -0.0408 -0.0546
 1062YOPC   D3B15241  13.310   8.052   7.082  0.0751  0.0398  0.0661
 1062YOPC   C4B15242  13.135   8.312   7.436  0.0453 -0.0722 -0.2420
 1063YOPC   NC315243   8.662  12.998   5.941  0.0968  0.0543  0.0850
 1063YOPC   PO415244   8.600  13.451   6.136  0.3205  0.2559  0.3155
 1063YOPC   GL115245   8.503  13.135   6.428  0.1376  0.2578  0.3505
 1063YOPC   GL215246   8.484  12.777   6.386  0.1331 -0.1295  0.0791
 1063YOPC   C1A15247   8.641  13.295   6.850  0.0540  0.0971  0.0864
 1063YOPC   D2A15248   8.520  13.336   7.345  0.1127  0.1738  0.3157
 1063YOPC   C3A15249   8.812  13.256   7.706 -0.3101 -0.1796 -0.1320
 1063YOPC   C4A15250   8.980  13.012   8.061 -0.1197 -0.0342  0.0234
 1063YOPC   C1B15251   8.345  12.783   6.769  0.1317 -0.0063  0.2764
 1063YOPC   C2B15252   7.993  12.756   7.025 -0.4013  0.0021 -0.1051
 1063YOPC   D3B15253   8.173  13.003   7.304  0.1904  0.1682  0.1114
 1063YOPC   C4B15254   8.260  13.165   7.720  0.1475  0.2140  0.0553
 1064YOPC   NC315255   0.263   4.772   5.128 -0.2424 -0.1083  0.3843
 1064YOPC   PO415256   0.659   4.668   4.901 -0.0620  0.2135  0.0920
 1064YOPC   GL115257   0.581   4.392   5.251  0.1598  0.1111 -0.1715
 1064YOPC   GL215258   0.745   4.606   5.463 -0.0321 -0.0503 -0.4302
 1064YOPC   C1A15259   0.507   4.154   5.634 -0.0717  0.0544  0.2663
 1064YOPC   D2A15260   0.534   4.307   5.993  0.2496 -0.0921  0.2101
 1064YOPC   C3A15261   0.334   4.628   6.045 -0.1860 -0.0442 -0.0950
 1064YOPC   C4A15262  -0.061   4.706   6.305  0.0256 -0.2746  0.2369
 1064YOPC   C1B15263   0.949   4.598   5.914  0.0481 -0.1457 -0.3546
 1064YOPC   C2B15264   1.097   4.535   6.346 -0.1426  0.1735 -0.2119
 1064YOPC   D3B15265   0.922   4.618   6.670  0.0656  0.0651  0.1344
 1064YOPC   C4B15266   0.746   4.974   6.786  0.0182 -0.0367 -0.2814
 1065YOPC   NC315267   1.184   6.175   4.997  0.0596 -0.3016 -0.0574
 1065YOPC   PO415268   1.439   6.448   5.100 -0.2167  0.3331 -0.1266
 1065YOPC   GL115269   1.539   6.084   5.409 -0.0865 -0.0946  0.0711
 1065YOPC   GL215270   1.409   6.203   5.749 -0.3871  0.0087 -0.1860
 1065YOPC   C1A15271   1.661   5.683   5.669  0.0925 -0.1752 -0.0177
 1065YOPC   D2A15272   1.664   5.358   5.842  0.0293 -0.1362  0.1552
 1065YOPC   C3A15273   1.741   4.984   5.761 -0.3908  0.1145 -0.0952
 1065YOPC   C4A15274   2.127   4.748   5.813 -0.1803  0.1408 -0.0374
 1065YOPC   C1B15275   1.320   6.120   6.087 -0.1990 -0.2353 -0.0765
 1065YOPC   C2B15276   1.572   6.304   6.534  0.2210  0.1526  0.2090
 1065YOPC   D3B15277   2.011   6.450   6.394  0.1481 -0.0141 -0.0930
 1065YOPC   C4B15278   2.312   6.543   6.187 -0.2290  0.0607  0.1158
 1066YOPC   NC315279   8.011   4.457   5.043  0.0764  0.1196  0.0732
 1066YOPC   PO415280   8.196   4.000   5.067 -0.0467  0.0440 -0.3564
 1066YOPC   GL115281   8.252   3.874   5.447 -0.1992  0.2212  0.1066
 1066YOPC   GL215282   8.635   3.842   5.430 -0.0759  0.0739  0.1467
 1066YOPC   C1A15283   7.988   4.035   5.733 -0.0269  0.0024  0.0249
 1066YOPC   D2A15284   8.099   4.385   6.062  0.0884  0.1132 -0.0390
 1066YOPC   C3A15285   7.845   4.646   6.216  0.0624  0.0125 -0.1043
 1066YOPC   C4A15286   8.014   5.167   6.199  0.0326  0.0174  0.1336
 1066YOPC   C1B15287   8.454   3.976   5.847 -0.2996  0.2983 -0.0818
 1066YOPC   C2B15288   8.249   3.866   6.281  0.1526  0.0383  0.0404
 1066YOPC   D3B15289   8.397   3.510   6.522  0.0777 -0.0923  0.0182
 1066YOPC   C4B15290   8.816   3.325   6.733 -0.3948 -0.1075  0.3870
 1067YOPC   NC315291  14.053   8.823   5.838 -0.1200 -0.1452  0.2220
 1067YOPC   PO415292  13.730   8.775   6.096  0.2209 -0.0916  0.3386
 1067YOPC   GL115293  14.079   8.812   6.357  0.2752 -0.0500  0.1807
 1067YOPC   GL215294  14.302   8.534   6.281  0.0613 -0.0980 -0.1335
 1067YOPC   C1A15295  14.119   8.875   6.805  0.0571 -0.2022  0.3183
 1067YOPC   D2A15296  14.282   9.138   7.186  0.4123  0.1335 -0.2259
 1067YOPC   C3A15297  14.320   9.527   7.406 -0.0687  0.1999 -0.2739
 1067YOPC   C4A15298  14.259   9.976   7.589 -0.4514  0.2681  0.1382
 1067YOPC   C1B15299  14.337   8.407   6.669 -0.0127  0.1408 -0.1127
 1067YOPC   C2B15300  14.373   8.457   7.059 -0.2057  0.1261  0.4031
 1067YOPC   D3B15301  14.214   8.692   7.304 -0.1891 -0.0034 -0.1149
 1067YOPC   C4B15302  14.333   8.886   7.661 -0.4367 -0.0065 -0.2184
 1068YOPC   NC315303   2.427  11.088   5.229 -0.1097 -0.3260  0.0644
 1068YOPC   PO415304   2.066  10.881   5.313 -0.0414  0.2575  0.0128
 1068YOPC   GL115305   2.010  10.741   5.656  0.2367 -0.0200 -0.0168
 1068YOPC   GL215306   1.859  10.465   5.615 -0.0350 -0.0095  0.1097
 1068YOPC   C1A15307   2.268  10.749   6.000  0.0838  0.1612 -0.1860
 1068YOPC   D2A15308   2.200  10.712   6.295  0.0045  0.0475  0.2743
 1068YOPC   C3A15309   2.374  10.945   6.690 -0.1358 -0.1335 -0.3065
 1068YOPC   C4A15310   2.543  11.386   6.763  0.1662 -0.2345  0.1308
 1068YOPC   C1B15311   1.755  10.636   6.102 -0.1428 -0.3029  0.0083
 1068YOPC   C2B15312   1.797  10.309   6.432 -0.1036  0.2140 -0.0421
 1068YOPC   D3B15313   2.030  10.253   6.815  0.0814  0.2696 -0.1406
 1068YOPC   C4B15314   2.135  10.476   7.082 -0.0162 -0.0416 -0.0587
 1069YOPC   NC315315  18.092  17.247   5.326 -0.4062 -0.0646 -0.0003
 1069YOPC   PO415316  17.806  17.555   5.585  0.0890 -0.0221 -0.2109
 1069YOPC   GL115317  18.045  17.820   5.813 -0.2472 -0.2001  0.0554
 1069YOPC   GL215318  18.270  17.636   5.876  0.0875 -0.2587 -0.1286
 1069YOPC   C1A15319  18.252  17.981   6.267 -0.3519  0.0037  0.1686
 1069YOPC   D2A15320  18.286  17.822   6.699 -0.0182  0.0833 -0.0156
 1069YOPC   C3A15321  17.894  17.956   7.027  0.2416  0.0870 -0.1531
 1069YOPC   C4A15322  17.462  17.798   7.044  0.1125  0.0522 -0.1046
 1069YOPC   C1B15323  18.158  17.511   6.210  0.0794 -0.1089 -0.0952
 1069YOPC   C2B15324  18.034  17.367   6.659  0.1059  0.1694 -0.1500
 1069YOPC   D3B15325  18.221  17.472   7.119 -0.0266 -0.0920 -0.0255
 1069YOPC   C4B15326  18.304  17.762   7.282  0.1974 -0.1646  0.0720
 1070YOPC   NC315327   0.897   5.225   4.596  0.2218 -0.0928  0.0338
 1070YOPC   PO415328   1.133   5.365   4.965 -0.1140 -0.1391 -0.0708
 1070YOPC   GL115329   0.937   5.399   5.282  0.1343  0.0156 -0.1084
 1070YOPC   GL215330   0.783   5.225   5.483  0.0193  0.1495 -0.0670
 1070YOPC   C1A15331   1.162   5.567   5.647 -0.2062  0.0198 -0.0044
 1070YOPC   D2A15332   1.182   5.637   6.106  0.0808  0.1567 -0.1223
 1070YOPC   C3A15333   1.607   5.531   6.289 -0.0908 -0.1676 -0.0692
 1070YOPC   C4A15334   1.833   5.047   6.226 -0.3352  0.0601 -0.2007
 1070YOPC   C1B15335   0.622   4.975   5.834 -0.1886 -0.2098  0.0288
 1070YOPC   C2B15336   0.702   4.880   6.297  0.0947 -0.0741 -0.2654
 1070YOPC   D3B15337   0.365   4.676   6.579  0.1206  0.0705  0.0126
 1070YOPC   C4B15338   0.469   4.569   6.987 -0.4043 -0.0411  0.0928
 1071YOPC   NC315339  18.468  16.783   4.756  0.0276  0.0662  0.2746
 1071YOPC   PO415340  18.498  16.883   5.141 -0.2236 -0.0772 -0.0095
 1071YOPC   GL115341  18.434  16.980   5.673  0.1308 -0.0073 -0.1104
 1071YOPC   GL215342  18.634  17.192   5.677  0.1412 -0.2564  0.0402
 1071YOPC   C1A15343  18.367  16.976   6.050  0.1180  0.2580 -0.3889
 1071YOPC   D2A15344  18.600  17.266   6.346 -0.0821  0.1338  0.1267
 1071YOPC   C3A15345  18.559  17.345   6.762 -0.0360  0.0861  0.1794
 1071YOPC   C4A15346  18.718  17.480   7.060  0.3190  0.0350 -0.0743
 1071YOPC   C1B15347  18.826  16.973   5.980 -0.1320 -0.1168  0.0681
 1071YOPC   C2B15348  18.799  16.785   6.420 -0.0038  0.2134 -0.1837
 1071YOPC   D3B15349  18.339  16.890   6.596 -0.0383 -0.3705 -0.0205
 1071YOPC   C4B15350  18.086  16.934   6.926  0.1006  0.0908 -0.1496
 1072YOPC   NC315351  18.555   6.967   5.116 -0.0678 -0.0054 -0.2648
 1072YOPC   PO415352  18.979   7.133   5.348 -0.0015 -0.0429 -0.0143
 1072YOPC   GL115353  19.013   7.327   5.702  0.1292 -0.0535  0.0866
 1072YOPC   GL215354  19.321   7.237   5.892 -0.1325  0.0811  0.0020
 1072YOPC   C1A15355  18.948   7.180   6.231 -0.0778 -0.0076 -0.0378
 1072YOPC   D2A15356  18.663   7.096   6.525 -0.1113  0.1436 -0.4627
 1072YOPC   C3A15357  18.758   7.204   6.895  0.1489  0.1140 -0.2216
 1072YOPC   C4A15358  18.822   7.428   7.358  0.1456 -0.0406 -0.0774
 1072YOPC   C1B15359  19.515   7.069   6.244  0.4034 -0.0728  0.0946
 1072YOPC   C2B15360  19.465   6.748   6.632 -0.0052  0.2299 -0.2227
 1072YOPC   D3B15361  19.597   6.735   6.989  0.2684 -0.0502 -0.1029
 1072YOPC   C4B15362  19.634   6.512   7.390  0.0461 -0.1061 -0.0829
 1073YOPC   NC315363   8.000   8.120   5.519  0.2408 -0.2741  0.0099
 1073YOPC   PO415364   7.663   7.821   5.462 -0.0523 -0.1484 -0.1981
 1073YOPC   GL115365   7.474   8.022   5.855 -0.2598  0.1225  0.0153
 1073YOPC   GL215366   7.236   8.304   5.762 -0.2155  0.2233 -0.0149
 1073YOPC   C1A15367   7.325   8.029   6.285 -0.2475  0.0186  0.0547
 1073YOPC   D2A15368   7.095   8.181   6.622  0.1339 -0.1919 -0.1139
 1073YOPC   C3A15369   7.344   8.343   6.905 -0.1264 -0.2309 -0.3110
 1073YOPC   C4A15370   7.655   8.442   6.971  0.2123  0.2648  0.1559
 1073YOPC   C1B15371   7.061   8.462   6.215 -0.2453  0.0340  0.0642
 1073YOPC   C2B15372   6.893   8.601   6.652  0.0281 -0.2553 -0.3070
 1073YOPC   D3B15373   7.069   8.778   7.017  0.0059 -0.1441  0.0715
 1073YOPC   C4B15374   6.949   9.008   7.322 -0.0013 -0.3632 -0.1308
 1074YOPC   NC315375  13.203  14.043   5.941  0.2006  0.2192  0.4268
 1074YOPC   PO415376  13.571  14.051   5.721 -0.2868  0.0045 -0.0469
 1074YOPC   GL115377  13.619  14.173   6.112 -0.0567 -0.0852 -0.2145
 1074YOPC   GL215378  13.529  13.883   6.250  0.4131 -0.2311  0.1095
 1074YOPC   C1A15379  13.774  14.229   6.482  0.1531 -0.4139  0.0588
 1074YOPC   D2A15380  13.886  14.209   6.846  0.1870 -0.1902  0.2902
 1074YOPC   C3A15381  13.714  14.140   7.189 -0.1781  0.1980  0.0153
 1074YOPC   C4A15382  13.808  13.972   7.622 -0.1828 -0.1709 -0.0997
 1074YOPC   C1B15383  13.835  13.677   6.518  0.3740 -0.2846 -0.0451
 1074YOPC   C2B15384  13.954  13.210   6.686  0.0339  0.0059  0.0067
 1074YOPC   D3B15385  13.956  13.191   7.088 -0.0442 -0.2067  0.0954
 1074YOPC   C4B15386  13.806  13.491   7.492  0.1068 -0.1076  0.1315
 1075YOPC   NC315387   1.283  12.976   5.665  0.2199  0.1481 -0.0375
 1075YOPC   PO415388   1.084  13.302   5.902 -0.1567  0.1964 -0.1153
 1075YOPC   GL115389   1.023  13.063   6.238 -0.1315  0.1063 -0.2711
 1075YOPC   GL215390   1.201  13.294   6.427 -0.1399 -0.0688 -0.0191
 1075YOPC   C1A15391   0.873  12.935   6.698 -0.1834 -0.0497  0.0169
 1075YOPC   D2A15392   0.577  13.156   6.941  0.2117 -0.1806  0.2108
 1075YOPC   C3A15393   0.808  13.210   7.349 -0.0211 -0.1663  0.0149
 1075YOPC   C4A15394   0.850  13.126   7.819  0.2113 -0.0777 -0.1667
 1075YOPC   C1B15395   1.425  13.030   6.638  0.4356  0.0194 -0.1165
 1075YOPC   C2B15396   1.595  13.126   7.088  0.1909  0.1638 -0.1732
 1075YOPC   D3B15397   1.613  12.673   7.178  0.0726  0.0203 -0.1625
 1075YOPC   C4B15398   2.008  12.477   7.443  0.0278  0.1296  0.0199
 1076YOPC   NC315399   6.863  12.020   5.382 -0.1795  0.0587 -0.0254
 1076YOPC   PO415400   6.883  11.645   5.508  0.2632  0.0065  0.0636
 1076YOPC   GL115401   6.732  11.521   5.909 -0.1484  0.0258  0.0288
 1076YOPC   GL215402   6.778  11.779   6.014 -0.3520  0.0237  0.2359
 1076YOPC   C1A15403   6.702  11.217   6.231 -0.3178 -0.0058  0.2131
 1076YOPC   D2A15404   6.828  10.906   6.343 -0.0739 -0.1658 -0.2744
 1076YOPC   C3A15405   6.637  10.774   6.744  0.2589  0.0353  0.2305
 1076YOPC   C4A15406   6.489  11.001   7.051  0.2859  0.1221 -0.2541
 1076YOPC   C1B15407   6.873  11.674   6.449  0.1338 -0.0458  0.0968
 1076YOPC   C2B15408   7.154  11.720   6.792  0.3109  0.3510  0.0147
 1076YOPC   D3B15409   7.250  12.020   7.117 -0.1278  0.1104 -0.0555
 1076YOPC   C4B15410   7.178  12.240   7.518 -0.0314 -0.2202 -0.3181
 1077YOPC   NC315411  12.509   9.439   5.779 -0.1372  0.0214 -0.0208
 1077YOPC   PO415412  13.015   9.329   5.736 -0.2943 -0.1687  0.0521
 1077YOPC   GL115413  12.816   9.250   6.175 -0.1559 -0.0356  0.1140
 1077YOPC   GL215414  13.188   9.054   6.349 -0.1052  0.1254  0.3167
 1077YOPC   C1A15415  12.645   9.132   6.435 -0.3034 -0.1425 -0.2155
 1077YOPC   D2A15416  12.457   8.761   6.599 -0.1498  0.2813  0.2104
 1077YOPC   C3A15417  12.635   8.439   6.710 -0.0672 -0.1607 -0.1463
 1077YOPC   C4A15418  12.810   8.246   7.027  0.1289  0.1535 -0.1687
 1077YOPC   C1B15419  12.980   8.874   6.739 -0.0649  0.0622  0.1968
 1077YOPC   C2B15420  12.997   8.846   7.246  0.1422 -0.0461 -0.0951
 1077YOPC   D3B15421  13.327   8.797   7.477  0.2815  0.0807  0.3289
 1077YOPC   C4B15422  13.564   8.397   7.654 -0.0545 -0.0343  0.0434
 1078YOPC   NC315423   4.484  18.788   5.057 -0.1726  0.2739 -0.2420
 1078YOPC   PO415424   4.061  18.622   5.021  0.2601  0.0870  0.0620
 1078YOPC   GL115425   3.832  18.540   5.434 -0.3459  0.2820  0.1341
 1078YOPC   GL215426   3.767  18.225   5.424 -0.0350  0.1345 -0.1066
 1078YOPC   C1A15427   3.945  18.540   5.884 -0.1240  0.5908  0.1597
 1078YOPC   D2A15428   4.039  18.363   6.381  0.1704  0.0209 -0.2907
 1078YOPC   C3A15429   3.981  17.989   6.701 -0.1202  0.1318  0.1373
 1078YOPC   C4A15430   4.101  17.753   6.944  0.0145 -0.2456  0.2041
 1078YOPC   C1B15431   3.569  17.782   5.330  0.2365  0.0533  0.3980
 1078YOPC   C2B15432   3.419  17.350   5.552  0.0251 -0.0516 -0.1664
 1078YOPC   D3B15433   3.501  17.286   5.986  0.0140 -0.1730 -0.0825
 1078YOPC   C4B15434   3.655  17.094   6.345 -0.0269  0.0710  0.0880
 1079YOPC   NC315435  13.869   7.098   6.014  0.0564  0.0063 -0.1360
 1079YOPC   PO415436  14.078   6.728   5.846  0.2433  0.4744 -0.3280
 1079YOPC   GL115437  13.832   6.672   6.281  0.1595 -0.0122 -0.3347
 1079YOPC   GL215438  13.643   6.504   6.201  0.2474  0.2900 -0.0890
 1079YOPC   C1A15439  13.846   6.670   6.703 -0.1879 -0.0940  0.0758
 1079YOPC   D2A15440  13.849   6.608   7.246 -0.1408 -0.2814 -0.1493
 1079YOPC   C3A15441  13.653   6.698   7.604  0.0581  0.1701  0.2858
 1079YOPC   C4A15442  13.392   6.909   7.868 -0.0016 -0.1473 -0.2725
 1079YOPC   C1B15443  13.775   6.127   6.324  0.1471 -0.1463 -0.0108
 1079YOPC   C2B15444  13.693   5.771   6.683  0.0538  0.0241 -0.3726
 1079YOPC   D3B15445  13.516   5.852   7.083 -0.0275  0.2857 -0.3688
 1079YOPC   C4B15446  13.113   5.686   7.380  0.2840  0.0552 -0.1052
 1080YOPC   NC315447   8.655   1.537   5.248 -0.0469 -0.0377 -0.0533
 1080YOPC   PO415448   8.894   1.847   5.462  0.0945  0.0200 -0.0453
 1080YOPC   GL115449   8.571   1.866   5.748  0.0295 -0.1309 -0.0428
 1080YOPC   GL215450   8.315   1.977   5.638  0.0304  0.1496  0.2875
 1080YOPC   C1A15451   8.613   1.807   6.124 -0.1283 -0.0781  0.0375
 1080YOPC   D2A15452   8.622   1.789   6.522 -0.2881 -0.3303 -0.0122
 1080YOPC   C3A15453   8.728   1.414   6.735  0.0040  0.2085 -0.0346
 1080YOPC   C4A15454   8.771   0.988   6.598  0.0706 -0.0250 -0.0729
 1080YOPC   C1B15455   8.490   2.347   5.866 -0.1428  0.1489 -0.1964
 1080YOPC   C2B15456   8.251   2.707   6.079  0.1364 -0.0810 -0.3472
 1080YOPC   D3B15457   8.403   3.105   6.031 -0.3548 -0.1356  0.0011
 1080YOPC   C4B15458   8.249   3.498   5.919 -0.1622  0.0404 -0.0980
 1081YOPC   NC315459   2.386  18.214   5.313  0.0755  0.4705 -0.0484
 1081YOPC   PO415460   2.758  18.180   5.154  0.0727  0.0826  0.0354
 1081YOPC   GL115461   2.961  18.143   5.500  0.3926 -0.1454  0.2674
 1081YOPC   GL215462   3.157  17.835   5.666  0.0356  0.0620 -0.0839
 1081YOPC   C1A15463   2.864  18.105   5.935 -0.4363  0.1578 -0.1776
 1081YOPC   D2A15464   2.808  18.166   6.311 -0.3712 -0.0675 -0.0032
 1081YOPC   C3A15465   2.777  18.066   6.847  0.0908  0.1047  0.3231
 1081YOPC   C4A15466   2.721  17.762   7.117  0.0921  0.1344  0.2956
 1081YOPC   C1B15467   3.597  17.856   5.810 -0.0243  0.3169 -0.3225
 1081YOPC   C2B15468   3.991  18.054   5.977 -0.0611  0.1203 -0.2745
 1081YOPC   D3B15469   4.444  18.104   5.936  0.3297  0.0514  0.1902
 1081YOPC   C4B15470   4.814  18.165   6.153 -0.1059  0.1207  0.0171
 1082YOPC   NC315471   7.158   9.475   4.681  0.0960 -0.0336 -0.0659
 1082YOPC   PO415472   7.480   9.567   5.001  0.0687  0.2127 -0.1857
 1082YOPC   GL115473   7.471   9.408   5.459 -0.2137 -0.0440  0.3509
 1082YOPC   GL215474   7.664   9.597   5.558  0.4397  0.1271  0.0907
 1082YOPC   C1A15475   7.247   9.176   5.791  0.2341 -0.0179  0.1839
 1082YOPC   D2A15476   7.256   8.972   6.169  0.0155  0.2129  0.3087
 1082YOPC   C3A15477   7.684   9.056   6.308 -0.0672  0.3410  0.2871
 1082YOPC   C4A15478   7.853   8.963   6.593  0.4040 -0.1409  0.0516
 1082YOPC   C1B15479   7.196   9.705   5.847 -0.0566 -0.1669  0.0091
 1082YOPC   C2B15480   6.835   9.996   6.094 -0.0511  0.1458 -0.5210
 1082YOPC   D3B15481   6.867   9.881   6.514 -0.0193  0.0472 -0.2454
 1082YOPC   C4B15482   7.184   9.623   6.769 -0.1838  0.0259  0.0851
 1083YOPC   NC315483   6.245  13.720   5.053 -0.3579  0.0164 -0.2087
 1083YOPC   PO415484   6.241  13.897   5.454 -0.0306 -0.2483 -0.0883
 1083YOPC   GL115485   6.276  13.694   5.843  0.1540  0.0657  0.2173
 1083YOPC   GL215486   6.281  13.951   6.116  0.2100  0.3907 -0.3102
 1083YOPC   C1A15487   6.460  13.521   6.206 -0.1065  0.0631  0.1735
 1083YOPC   D2A15488   6.600  13.441   6.565  0.0738 -0.0876 -0.2145
 1083YOPC   C3A15489   7.043  13.399   6.667  0.0987  0.1030  0.0559
 1083YOPC   C4A15490   7.151  13.246   7.035 -0.1277  0.0369  0.0533
 1083YOPC   C1B15491   6.317  13.885   6.523 -0.0308 -0.0310 -0.2691
 1083YOPC   C2B15492   6.247  14.010   6.891  0.0195 -0.2259 -0.1541
 1083YOPC   D3B15493   5.973  14.127   7.193  0.0798 -0.1987  0.0110
 1083YOPC   C4B15494   5.612  14.324   7.234 -0.2017  0.1642 -0.1739
 1084YOPC   NC315495   3.888  12.219   5.595  0.2004  0.6087  0.1502
 1084YOPC   PO415496   4.388  12.285   5.593 -0.0072 -0.1922  0.0245
 1084YOPC   GL115497   4.485  12.102   5.962 -0.0129  0.0939  0.0455
 1084YOPC   GL215498   4.601  11.741   5.899 -0.1558 -0.2324  0.2856
 1084YOPC   C1A15499   4.620  12.033   6.427  0.0301 -0.1550  0.0902
 1084YOPC   D2A15500   4.643  12.098   6.877  0.0522 -0.1448  0.0383
 1084YOPC   C3A15501   4.852  11.800   7.218 -0.0840 -0.1832  0.1884
 1084YOPC   C4A15502   4.775  11.880   7.637 -0.0130 -0.1378  0.0533
 1084YOPC   C1B15503   4.482  11.486   6.277  0.1337  0.1200  0.1581
 1084YOPC   C2B15504   4.701  11.158   6.449  0.2980 -0.0928 -0.0965
 1084YOPC   D3B15505   4.939  10.809   6.153 -0.3534  0.0401  0.0262
 1084YOPC   C4B15506   5.160  10.586   5.827 -0.1323 -0.1490 -0.0816
 1085YOPC   NC315507  14.186   3.135   5.256 -0.2418 -0.2183 -0.1461
 1085YOPC   PO415508  14.169   3.427   5.700 -0.1251  0.0110 -0.2495
 1085YOPC   GL115509  14.202   3.557   6.081  0.1956 -0.5579  0.1005
 1085YOPC   GL215510  13.996   3.404   6.327 -0.0391  0.1372  0.1007
 1085YOPC   C1A15511  14.065   3.862   6.443  0.0036  0.0482 -0.2163
 1085YOPC   D2A15512  14.306   3.994   6.844 -0.0322 -0.0770  0.1064
 1085YOPC   C3A15513  14.279   3.937   7.275  0.0338 -0.0126 -0.2228
 1085YOPC   C4A15514  14.537   4.012   7.611 -0.2377 -0.3085 -0.0348
 1085YOPC   C1B15515  14.327   3.232   6.641  0.0324 -0.1659 -0.1146
 1085YOPC   C2B15516  14.359   2.835   6.929 -0.1365 -0.0282 -0.1445
 1085YOPC   D3B15517  13.975   2.532   6.943  0.1086  0.0563 -0.1220
 1085YOPC   C4B15518  13.530   2.626   7.000  0.0185 -0.3022 -0.3790
 1086YOPC   NC315519  12.384  12.492   6.332  0.0345  0.1173  0.1216
 1086YOPC   PO415520  12.249  12.980   6.256  0.1100 -0.0482  0.1294
 1086YOPC   GL115521  12.592  12.983   6.437  0.2324  0.3033  0.1663
 1086YOPC   GL215522  12.740  13.249   6.491  0.1017 -0.0163  0.0865
 1086YOPC   C1A15523  12.773  12.800   6.786 -0.2078  0.0950  0.1110
 1086YOPC   D2A15524  12.770  12.717   7.128  0.0189 -0.1114  0.1002
 1086YOPC   C3A15525  12.810  12.344   7.388  0.2114  0.1112  0.0130
 1086YOPC   C4A15526  12.788  11.923   7.590  0.1764  0.0041 -0.1798
 1086YOPC   C1B15527  12.701  13.232   6.952  0.1250 -0.1822 -0.0291
 1086YOPC   C2B15528  12.521  13.100   7.284 -0.0897  0.0655  0.1399
 1086YOPC   D3B15529  12.721  13.046   7.688  0.0909  0.3949  0.0671
 1086YOPC   C4B15530  13.026  13.059   7.872 -0.1964 -0.2410 -0.0929
 1087YOPC   NC315531  18.497  18.309   4.809  0.1967  0.2547  0.0444
 1087YOPC   PO415532  18.718  18.141   5.116  0.0547 -0.3346  0.1541
 1087YOPC   GL115533  18.721  18.198   5.456 -0.0716 -0.0971 -0.0168
 1087YOPC   GL215534  18.462  18.135   5.640 -0.1021 -0.1173 -0.1108
 1087YOPC   C1A15535  19.053  18.125   5.783  0.0814  0.3247  0.3038
 1087YOPC   D2A15536  19.340  17.937   6.004  0.1685 -0.2752  0.1473
 1087YOPC   C3A15537  19.335  17.801   6.377 -0.0479  0.0162  0.0414
 1087YOPC   C4A15538  19.540  17.730   6.696  0.1161 -0.1436  0.1797
 1087YOPC   C1B15539  18.658  18.310   5.975  0.2374  0.1467 -0.0980
 1087YOPC   C2B15540  18.613  18.283   6.360  0.3291  0.0831 -0.0911
 1087YOPC   D3B15541  18.744  18.495   6.688 -0.0423 -0.0303 -0.2754
 1087YOPC   C4B15542  19.002  18.798   6.936 -0.3523  0.1096  0.1103
 1088YOPC   NC315543  17.328   0.642   5.600 -0.1007 -0.1371  0.1145
 1088YOPC   PO415544  17.725   0.318   5.543  0.1078 -0.1023  0.2152
 1088YOPC   GL115545  17.933   0.304   5.857 -0.1885 -0.0422 -0.0084
 1088YOPC   GL215546  17.971   0.643   5.862  0.1100 -0.3524 -0.0087
 1088YOPC   C1A15547  17.954   0.213   6.254 -0.2532  0.0159  0.0510
 1088YOPC   D2A15548  18.096   0.371   6.619  0.1498 -0.1259  0.0466
 1088YOPC   C3A15549  18.190   0.795   6.791  0.1361  0.0845 -0.0532
 1088YOPC   C4A15550  18.126   0.998   7.134  0.0522  0.0160 -0.0403
 1088YOPC   C1B15551  18.079   0.833   6.198 -0.1501 -0.2438  0.1745
 1088YOPC   C2B15552  18.427   1.097   6.314  0.2592  0.3486 -0.1435
 1088YOPC   D3B15553  18.296   1.263   6.737  0.0783  0.1584 -0.0366
 1088YOPC   C4B15554  18.132   1.505   7.080  0.0053  0.1096  0.0460
 1089YOPC   NC315555  14.977   3.867   5.425 -0.2501  0.3028 -0.0339
 1089YOPC   PO415556  15.183   4.284   5.465 -0.2663  0.2248  0.1172
 1089YOPC   GL115557  15.425   4.333   5.863 -0.2700 -0.0930  0.0799
 1089YOPC   GL215558  15.695   4.479   5.875 -0.0687  0.0506  0.1082
 1089YOPC   C1A15559  15.154   4.290   6.347 -0.2175  0.6662  0.0035
 1089YOPC   D2A15560  15.121   4.327   6.735 -0.1913 -0.0214 -0.2016
 1089YOPC   C3A15561  15.257   4.122   7.075  0.3960  0.1741  0.0133
 1089YOPC   C4A15562  15.005   3.956   7.364 -0.0435  0.1045  0.0595
 1089YOPC   C1B15563  15.953   4.177   6.149 -0.3309  0.2671  0.0440
 1089YOPC   C2B15564  16.099   3.871   6.440 -0.1615 -0.0679 -0.1149
 1089YOPC   D3B15565  16.233   4.053   6.728 -0.0039  0.0910  0.0745
 1089YOPC   C4B15566  16.239   4.052   7.140  0.0795 -0.0833 -0.0012
 1090YOPC   NC315567   8.232  15.945   5.924  0.2614  0.1218  0.0666
 1090YOPC   PO415568   8.592  16.195   5.837  0.2416  0.0720 -0.0050
 1090YOPC   GL115569   8.813  16.418   6.093  0.1561  0.2908 -0.0271
 1090YOPC   GL215570   8.729  16.707   6.207 -0.1065 -0.0016  0.3881
 1090YOPC   C1A15571   8.881  16.339   6.536  0.1112  0.0484 -0.1525
 1090YOPC   D2A15572   9.084  16.130   6.853 -0.1029 -0.0764 -0.2429
 1090YOPC   C3A15573   9.193  16.204   7.278  0.2671 -0.1678 -0.0405
 1090YOPC   C4A15574   9.246  16.118   7.666  0.0741  0.2899  0.0366
 1090YOPC   C1B15575   8.636  16.817   6.653 -0.0150  0.2372  0.2266
 1090YOPC   C2B15576   8.558  16.903   6.989  0.0627  0.3350 -0.0245
 1090YOPC   D3B15577   8.523  16.691   7.318  0.2112 -0.3339  0.2737
 1090YOPC   C4B15578   8.508  16.480   7.675  0.2171  0.0599  0.1027
 1091YOPC   NC315579   2.026  14.160   5.088 -0.5636 -0.1646  0.1793
 1091YOPC   PO415580   2.520  14.311   5.152  0.1087  0.1828 -0.2841
 1091YOPC   GL115581   2.512  14.604   5.521 -0.1463  0.0983  0.1148
 1091YOPC   GL215582   2.456  14.873   5.532  0.1294 -0.0627  0.2493
 1091YOPC   C1A15583   2.645  14.689   5.926  0.0429 -0.1753 -0.2887
 1091YOPC   D2A15584   2.660  14.813   6.300  0.0671 -0.1818 -0.0449
 1091YOPC   C3A15585   2.665  15.241   6.431  0.1310  0.1490 -0.1158
 1091YOPC   C4A15586   2.583  15.587   6.244  0.2286  0.2350  0.0536
 1091YOPC   C1B15587   2.035  14.843   5.599  0.0007 -0.1174 -0.0832
 1091YOPC   C2B15588   1.612  14.664   5.575 -0.4020  0.0838  0.0516
 1091YOPC   D3B15589   1.253  14.904   5.770  0.0002  0.0015  0.1124
 1091YOPC   C4B15590   0.986  14.783   6.115  0.1487  0.0300 -0.0799
 1092YOPC   NC315591   2.351  13.416   5.028 -0.0470  0.0201  0.1679
 1092YOPC   PO415592   2.257  13.658   5.314 -0.0447 -0.3681 -0.3333
 1092YOPC   GL115593   2.051  14.032   5.613  0.0558  0.1469 -0.2497
 1092YOPC   GL215594   2.154  14.353   5.619  0.0360  0.4126 -0.0365
 1092YOPC   C1A15595   1.795  14.064   5.939 -0.0544 -0.0231 -0.1814
 1092YOPC   D2A15596   1.354  14.248   5.826  0.0209 -0.0704 -0.0495
 1092YOPC   C3A15597   1.219  14.299   6.251 -0.0035 -0.1791 -0.0723
 1092YOPC   C4A15598   1.333  14.572   6.610 -0.2847 -0.0917  0.0669
 1092YOPC   C1B15599   2.120  14.440   5.985 -0.0488 -0.2297  0.2814
 1092YOPC   C2B15600   2.135  14.802   6.213  0.1293  0.0241  0.1336
 1092YOPC   D3B15601   2.362  15.130   6.002 -0.0816  0.1411  0.4742
 1092YOPC   C4B15602   2.606  15.346   5.746 -0.0012 -0.1791  0.0658
 1093YOPC   NC315603   9.710   3.951   5.435  0.1208 -0.0465  0.0911
 1093YOPC   PO415604  10.205   3.866   5.433 -0.0497  0.1029  0.1094
 1093YOPC   GL115605  10.481   3.541   5.716 -0.0433 -0.1494 -0.1107
 1093YOPC   GL215606  10.358   3.650   6.002  0.4289 -0.3226 -0.0672
 1093YOPC   C1A15607  10.522   3.154   5.996 -0.5140 -0.0371 -0.3694
 1093YOPC   D2A15608  10.625   2.824   6.146  0.3048 -0.0714 -0.1098
 1093YOPC   C3A15609  11.034   2.856   6.376 -0.1625  0.0131 -0.4180
 1093YOPC   C4A15610  11.284   3.226   6.606 -0.2915  0.1300 -0.3019
 1093YOPC   C1B15611  10.364   3.509   6.302  0.0642  0.2647 -0.1569
 1093YOPC   C2B15612  10.255   3.400   6.711  0.2345  0.2249 -0.1274
 1093YOPC   D3B15613  10.405   3.052   7.014 -0.0858  0.0422  0.0472
 1093YOPC   C4B15614  10.704   2.813   7.228 -0.2459 -0.0630  0.0539
 1094YOPC   NC315615  15.203   2.364   5.746 -0.0462  0.0953  0.3560
 1094YOPC   PO415616  14.988   2.820   5.707  0.0621 -0.1768  0.2667
 1094YOPC   GL115617  14.863   3.057   6.132  0.3258  0.2422  0.2243
 1094YOPC   GL215618  14.727   3.380   6.188  0.0534 -0.0432 -0.0297
 1094YOPC   C1A15619  14.748   2.949   6.583  0.0378  0.0421  0.2121
 1094YOPC   D2A15620  14.776   2.490   6.847 -0.0393 -0.0420  0.1381
 1094YOPC   C3A15621  14.765   2.594   7.222  0.1706 -0.2110  0.0183
 1094YOPC   C4A15622  15.068   2.787   7.477  0.0637  0.0702  0.1855
 1094YOPC   C1B15623  14.671   3.692   6.462 -0.1291 -0.0151 -0.1358
 1094YOPC   C2B15624  14.774   3.818   6.904 -0.0681 -0.0465 -0.0066
 1094YOPC   D3B15625  14.685   4.173   7.068  0.0134 -0.0311 -0.1280
 1094YOPC   C4B15626  14.896   4.461   7.174 -0.1872  0.0062  0.0539
 1095YOPC   NC315627  11.647   6.760   5.685  0.1298 -0.1766  0.2596
 1095YOPC   PO415628  12.140   6.885   5.550  0.0090  0.0826  0.1392
 1095YOPC   GL115629  12.123   6.798   6.019  0.1708  0.0162  0.1205
 1095YOPC   GL215630  11.893   6.997   6.205  0.2550  0.0958  0.1130
 1095YOPC   C1A15631  12.250   6.526   6.286 -0.3298 -0.4134  0.1688
 1095YOPC   D2A15632  12.246   6.286   6.661 -0.4124  0.0699  0.0006
 1095YOPC   C3A15633  12.661   6.041   6.960 -0.3620 -0.1938 -0.3195
 1095YOPC   C4A15634  13.084   6.066   7.001  0.2113  0.0521  0.1323
 1095YOPC   C1B15635  11.427   6.909   6.272 -0.1499  0.2447 -0.0702
 1095YOPC   C2B15636  11.067   6.967   6.409  0.3747 -0.0585  0.2683
 1095YOPC   D3B15637  11.025   7.071   6.827  0.2909  0.2503 -0.3402
 1095YOPC   C4B15638  11.279   6.950   7.264 -0.0858  0.1883  0.1183
 1096YOPC   NC315639   3.029   8.509   5.432 -0.4126 -0.3452  0.0896
 1096YOPC   PO415640   2.578   8.445   5.458 -0.2829  0.0816 -0.0156
 1096YOPC   GL115641   2.641   8.160   5.716 -0.0662  0.2970  0.2499
 1096YOPC   GL215642   2.944   8.092   5.735 -0.2875  0.3173 -0.0176
 1096YOPC   C1A15643   2.498   8.095   6.091 -0.0186  0.2207  0.0276
 1096YOPC   D2A15644   2.562   7.727   6.411 -0.1075 -0.3289  0.0651
 1096YOPC   C3A15645   2.974   7.613   6.566  0.0266  0.0244 -0.2810
 1096YOPC   C4A15646   3.285   7.567   6.812  0.0210 -0.0025  0.1055
 1096YOPC   C1B15647   2.932   8.378   6.072 -0.0042  0.0553  0.2744
 1096YOPC   C2B15648   2.945   8.424   6.494  0.2917 -0.1070  0.2720
 1096YOPC   D3B15649   2.921   8.063   6.671  0.0126  0.0448 -0.2070
 1096YOPC   C4B15650   2.649   7.732   6.914 -0.1897 -0.0354  0.2266
 1097YOPC   NC315651   5.216   0.025   4.684 -0.0209 -0.0477  0.3380
 1097YOPC   PO415652   4.992   0.023   5.079 -0.2598  0.0893  0.1932
 1097YOPC   GL115653   5.161  -0.270   5.331 -0.2738 -0.0218 -0.0452
 1097YOPC   GL215654   5.362  -0.082   5.618  0.0258 -0.0262 -0.2718
 1097YOPC   C1A15655   5.100  -0.484   5.700 -0.0991  0.0841  0.0182
 1097YOPC   D2A15656   4.899  -0.883   5.639 -0.2583 -0.0139 -0.4373
 1097YOPC   C3A15657   4.875  -1.109   6.008 -0.2718  0.1524  0.0700
 1097YOPC   C4A15658   4.845  -1.292   6.352 -0.1633  0.3455  0.1967
 1097YOPC   C1B15659   5.020  -0.101   5.988  0.1292  0.0811 -0.1541
 1097YOPC   C2B15660   4.908  -0.210   6.500 -0.0719  0.0396 -0.0140
 1097YOPC   D3B15661   4.618  -0.017   6.653 -0.0796 -0.1442  0.1464
 1097YOPC   C4B15662   4.422  -0.145   7.037 -0.2875 -0.1845 -0.2596
 1098YOPC   NC315663   7.688   0.990   4.935 -0.2199 -0.0129 -0.0151
 1098YOPC   PO415664   7.607   0.970   5.374  0.1725 -0.2026 -0.1363
 1098YOPC   GL115665   7.579   0.877   5.810 -0.0001 -0.1706  0.0923
 1098YOPC   GL215666   7.434   1.007   5.974  0.0461  0.4395  0.0414
 1098YOPC   C1A15667   7.204   0.557   6.112  0.1755  0.2403 -0.1925
 1098YOPC   D2A15668   7.287   0.525   6.512  0.0710  0.0858 -0.1187
 1098YOPC   C3A15669   7.009   0.777   6.703  0.0729 -0.2086 -0.0895
 1098YOPC   C4A15670   6.796   1.076   7.094  0.1880 -0.0921  0.1074
 1098YOPC   C1B15671   7.628   1.067   6.313  0.2367  0.1220  0.0742
 1098YOPC   C2B15672   7.797   0.981   6.662  0.2197 -0.0276 -0.0097
 1098YOPC   D3B15673   7.557   0.778   6.916 -0.1941  0.1628  0.0747
 1098YOPC   C4B15674   7.261   1.119   6.994 -0.0085 -0.2671  0.1386
 1099YOPC   NC315675   6.339  13.112   5.703  0.1156  0.1115  0.5082
 1099YOPC   PO415676   6.633  12.760   5.680  0.1623 -0.1499 -0.3684
 1099YOPC   GL115677   6.678  12.871   6.056  0.3423  0.1315  0.2367
 1099YOPC   GL215678   6.904  12.736   6.255 -0.1058 -0.0336 -0.0994
 1099YOPC   C1A15679   6.491  12.557   6.496  0.3198  0.0781  0.0543
 1099YOPC   D2A15680   6.493  12.503   6.987 -0.2100  0.1140  0.3157
 1099YOPC   C3A15681   6.603  12.202   7.230  0.0487  0.1677  0.0899
 1099YOPC   C4A15682   6.693  12.083   7.657  0.0531 -0.0438  0.1218
 1099YOPC   C1B15683   6.823  12.919   6.661  0.0229 -0.0394 -0.0152
 1099YOPC   C2B15684   6.681  12.964   7.059  0.4201  0.1089 -0.1720
 1099YOPC   D3B15685   6.934  13.014   7.465 -0.2231 -0.2513 -0.0844
 1099YOPC   C4B15686   6.981  12.861   7.901  0.1183 -0.1048 -0.0161
 1100YOPC   NC315687   3.297  15.010   4.794  0.2918 -0.0260 -0.1061
 1100YOPC   PO415688   3.361  15.074   5.228  0.0382  0.0441  0.0382
 1100YOPC   GL115689   3.515  15.355   5.586  0.1948 -0.0605 -0.0507
 1100YOPC   GL215690   3.864  15.337   5.738  0.1074  0.1116 -0.2778
 1100YOPC   C1A15691   3.180  15.421   5.894  0.0436  0.0122 -0.1966
 1100YOPC   D2A15692   3.108  15.639   6.223 -0.1846  0.2541  0.0907
 1100YOPC   C3A15693   3.395  15.798   6.417  0.0746  0.0961  0.1951
 1100YOPC   C4A15694   3.667  16.122   6.297  0.3833  0.1498  0.2272
 1100YOPC   C1B15695   3.832  15.167   6.169  0.0329 -0.1584  0.3257
 1100YOPC   C2B15696   3.648  14.822   6.610 -0.0391 -0.0385  0.1855
 1100YOPC   D3B15697   3.846  14.885   6.873 -0.0113 -0.0579  0.0085
 1100YOPC   C4B15698   3.923  15.023   7.250  0.3254  0.2866  0.3720
 1101YOPC   NC315699   6.284   2.427   5.391  0.1710 -0.2789 -0.0643
 1101YOPC   PO415700   6.649   2.571   5.274 -0.1078 -0.0302 -0.2238
 1101YOPC   GL115701   6.523   2.765   5.730  0.1414 -0.4635  0.0208
 1101YOPC   GL215702   6.197   2.701   5.822 -0.1423  0.0414 -0.0577
 1101YOPC   C1A15703   6.599   3.029   5.959  0.0281  0.0591  0.2218
 1101YOPC   D2A15704   6.447   3.375   5.873 -0.0900  0.0848 -0.2037
 1101YOPC   C3A15705   6.055   3.592   5.830  0.2061  0.0653 -0.3167
 1101YOPC   C4A15706   5.636   3.636   5.749  0.0452  0.1431 -0.2115
 1101YOPC   C1B15707   6.142   2.621   6.213  0.1935  0.0546  0.1601
 1101YOPC   C2B15708   6.299   2.389   6.617 -0.0311 -0.1162 -0.0065
 1101YOPC   D3B15709   6.037   2.554   7.004  0.0829 -0.1595 -0.2733
 1101YOPC   C4B15710   6.183   2.552   7.374  0.3186 -0.0353  0.1749
 1102YOPC   NC315711   2.613   8.672   5.064  0.0500 -0.0022 -0.1062
 1102YOPC   PO415712   2.444   8.990   5.301 -0.2587  0.0419  0.0727
 1102YOPC   GL115713   2.449   9.066   5.655 -0.1168 -0.2082 -0.1322
 1102YOPC   GL215714   2.349   8.851   5.812  0.0626 -0.0102 -0.0036
 1102YOPC   C1A15715   2.802   8.857   5.916 -0.2540 -0.0307 -0.0005
 1102YOPC   D2A15716   3.096   8.869   6.228 -0.2098 -0.1648  0.1100
 1102YOPC   C3A15717   3.263   9.258   6.497  0.0856 -0.1369 -0.0057
 1102YOPC   C4A15718   3.209   9.374   6.944 -0.0263  0.1110 -0.1130
 1102YOPC   C1B15719   2.415   9.037   6.219  0.0083 -0.0022  0.0636
 1102YOPC   C2B15720   2.679   8.874   6.567 -0.2119  0.2278  0.1184
 1102YOPC   D3B15721   2.620   8.521   6.850  0.1189 -0.3568 -0.3065
 1102YOPC   C4B15722   2.958   8.349   7.161 -0.1253 -0.1296  0.0267
 1103YOPC   NC315723   5.368   3.943   4.695 -0.1478  0.0685 -0.0502
 1103YOPC   PO415724   5.186   4.018   5.032 -0.0842 -0.1342 -0.3102
 1103YOPC   GL115725   5.292   4.003   5.475  0.1377  0.0509 -0.2406
 1103YOPC   GL215726   5.574   4.234   5.538 -0.0334  0.0657 -0.2355
 1103YOPC   C1A15727   5.353   3.984   5.956  0.0308 -0.0691 -0.1198
 1103YOPC   D2A15728   5.565   3.866   6.238  0.0052 -0.2241 -0.1418
 1103YOPC   C3A15729   5.662   4.041   6.595 -0.1635  0.0123  0.2364
 1103YOPC   C4A15730   5.717   4.242   6.953  0.0037  0.1738  0.2345
 1103YOPC   C1B15731   5.851   4.142   5.891  0.3991  0.0630  0.0298
 1103YOPC   C2B15732   6.088   4.040   6.239 -0.1870  0.1711 -0.1656
 1103YOPC   D3B15733   6.283   3.691   6.478 -0.2839 -0.1659 -0.1726
 1103YOPC   C4B15734   6.065   3.413   6.765  0.1617  0.1125  0.2357
 1104YOPC   NC315735   3.739   8.670   4.976  0.0348 -0.3579 -0.0030
 1104YOPC   PO415736   3.413   8.919   5.213  0.0613  0.0833  0.0511
 1104YOPC   GL115737   3.752   8.781   5.462  0.0252  0.3288 -0.1152
 1104YOPC   GL215738   4.062   8.532   5.357  0.2084 -0.2418 -0.1319
 1104YOPC   C1A15739   3.656   8.564   5.874  0.0371 -0.1950 -0.1778
 1104YOPC   D2A15740   3.412   8.363   6.182 -0.0561 -0.2472  0.1308
 1104YOPC   C3A15741   3.737   8.349   6.491  0.4679 -0.0395  0.2394
 1104YOPC   C4A15742   3.797   8.211   6.853  0.1054 -0.0352 -0.0830
 1104YOPC   C1B15743   4.168   8.647   5.706 -0.0633  0.0539 -0.3152
 1104YOPC   C2B15744   4.127   8.779   6.116 -0.2627 -0.0178  0.2389
 1104YOPC   D3B15745   4.136   8.640   6.441  0.1256 -0.0682 -0.1714
 1104YOPC   C4B15746   3.838   8.701   6.839  0.0468  0.1981 -0.2051
 1105YOPC   NC315747   6.709   1.859   4.870 -0.1563  0.1361 -0.0955
 1105YOPC   PO415748   6.349   2.000   5.095 -0.1112 -0.2051 -0.1977
 1105YOPC   GL115749   6.178   1.876   5.447 -0.0261 -0.2860 -0.3095
 1105YOPC   GL215750   6.394   1.666   5.764 -0.3385  0.2098  0.0295
 1105YOPC   C1A15751   6.003   1.840   5.916  0.1430 -0.2838 -0.0744
 1105YOPC   D2A15752   5.975   2.106   6.251 -0.1558 -0.0223  0.0749
 1105YOPC   C3A15753   6.071   1.975   6.746 -0.2266 -0.1942 -0.3267
 1105YOPC   C4A15754   6.373   2.124   7.018  0.3093 -0.0232 -0.0534
 1105YOPC   C1B15755   6.408   1.466   6.166 -0.1334  0.0463 -0.2524
 1105YOPC   C2B15756   6.563   1.215   6.493  0.1175  0.1867 -0.0997
 1105YOPC   D3B15757   6.915   1.385   6.724  0.1241 -0.0437  0.1230
 1105YOPC   C4B15758   7.209   1.277   6.535  0.2248  0.0877  0.0703
 1106YOPC   NC315759  13.039   2.521   5.795 -0.0183 -0.1408  0.1314
 1106YOPC   PO415760  12.658   2.371   5.975 -0.0624  0.0134 -0.0654
 1106YOPC   GL115761  12.849   2.421   6.418 -0.4460  0.1141  0.0129
 1106YOPC   GL215762  13.098   2.283   6.399  0.0354 -0.3177 -0.0067
 1106YOPC   C1A15763  12.895   2.575   6.809  0.1822  0.0113  0.2566
 1106YOPC   D2A15764  12.748   2.814   7.072 -0.0157  0.0135 -0.2316
 1106YOPC   C3A15765  12.635   3.214   7.173 -0.1213  0.3397  0.0646
 1106YOPC   C4A15766  12.544   3.375   7.653  0.0144 -0.1333  0.0221
 1106YOPC   C1B15767  13.304   2.258   6.746 -0.1677  0.1831  0.1711
 1106YOPC   C2B15768  13.319   2.214   7.125 -0.0974  0.0249  0.0070
 1106YOPC   D3B15769  13.506   1.908   7.495  0.2309 -0.4321  0.1095
 1106YOPC   C4B15770  13.748   1.521   7.857  0.0719  0.3131  0.0840
 1107YOPC   NC315771  14.371   0.929   5.334  0.2214 -0.1550 -0.0283
 1107YOPC   PO415772  14.658   1.074   5.691 -0.4017 -0.0315 -0.0486
 1107YOPC   GL115773  14.719   0.803   6.075  0.2273 -0.2945 -0.0051
 1107YOPC   GL215774  14.417   0.786   6.349 -0.0599  0.0997 -0.2158
 1107YOPC   C1A15775  14.966   0.947   6.425 -0.1794 -0.0994  0.0103
 1107YOPC   D2A15776  15.298   0.934   6.751 -0.0399 -0.0773  0.0284
 1107YOPC   C3A15777  15.489   1.061   7.134 -0.0866 -0.0377  0.2133
 1107YOPC   C4A15778  15.635   1.072   7.564 -0.0402 -0.0504  0.1141
 1107YOPC   C1B15779  14.642   0.797   6.751  0.0076 -0.0840  0.0832
 1107YOPC   C2B15780  14.933   0.874   7.113 -0.1291 -0.2778  0.0923
 1107YOPC   D3B15781  14.713   0.909   7.499  0.1991 -0.1776  0.2949
 1107YOPC   C4B15782  14.709   0.540   7.805  0.2322 -0.1687  0.2080
 1108YOPC   NC315783   6.880  15.068   5.730  0.0131 -0.0583 -0.1632
 1108YOPC   PO415784   6.523  14.775   5.648 -0.0631 -0.1582  0.0767
 1108YOPC   GL115785   6.411  14.689   6.030  0.0342 -0.2091 -0.0535
 1108YOPC   GL215786   6.259  14.468   6.066  0.3378 -0.0779  0.2008
 1108YOPC   C1A15787   6.213  14.862   6.370  0.0423  0.1613 -0.0867
 1108YOPC   D2A15788   6.477  15.233   6.605  0.0118 -0.4475 -0.1999
 1108YOPC   C3A15789   6.451  15.267   7.099  0.1274 -0.0316  0.2792
 1108YOPC   C4A15790   6.337  15.232   7.508  0.1465  0.2881 -0.1761
 1108YOPC   C1B15791   6.185  14.340   6.523 -0.0349 -0.0769  0.1391
 1108YOPC   C2B15792   5.901  14.454   6.820  0.2199  0.1664  0.0924
 1108YOPC   D3B15793   6.088  14.614   7.278 -0.0535  0.0118 -0.2967
 1108YOPC   C4B15794   6.433  14.756   7.295 -0.0366 -0.0191  0.5438
 1109YOPC   NC315795  16.951   9.274   5.674  0.2239  0.2229  0.2770
 1109YOPC   PO415796  17.336   8.915   5.614 -0.5834 -0.1491 -0.2534
 1109YOPC   GL115797  17.422   8.919   6.120 -0.2373 -0.1119 -0.0840
 1109YOPC   GL215798  17.677   9.112   6.299  0.0826 -0.0666  0.0494
 1109YOPC   C1A15799  17.250   8.988   6.477 -0.3942  0.1442  0.0626
 1109YOPC   D2A15800  17.099   8.796   6.775  0.0455 -0.0905  0.5414
 1109YOPC   C3A15801  17.222   8.973   7.219  0.2175 -0.1291 -0.0691
 1109YOPC   C4A15802  17.403   8.953   7.664  0.0224  0.0236 -0.1412
 1109YOPC   C1B15803  17.583   9.181   6.733 -0.2486 -0.2639 -0.1944
 1109YOPC   C2B15804  17.657   9.293   7.158 -0.1009  0.0431 -0.1296
 1109YOPC   D3B15805  17.721   9.604   7.512 -0.3521  0.1084 -0.1473
 1109YOPC   C4B15806  18.021   9.842   7.614 -0.0959 -0.0495 -0.2711
 1110YOPC   NC315807  10.176   3.383   5.116 -0.1280  0.2764 -0.0494
 1110YOPC   PO415808  10.438   3.265   5.291 -0.0582 -0.0985 -0.2974
 1110YOPC   GL115809  10.138   3.225   5.647 -0.0546  0.0734  0.2632
 1110YOPC   GL215810   9.927   3.481   5.600 -0.1476 -0.2126  0.0376
 1110YOPC   C1A15811  10.025   3.235   6.047 -0.3085 -0.0114 -0.2817
 1110YOPC   D2A15812   9.761   3.031   6.391  0.4182  0.0258  0.0396
 1110YOPC   C3A15813   9.818   3.052   6.894 -0.1365 -0.0994 -0.1453
 1110YOPC   C4A15814  10.027   3.330   7.226 -0.0014 -0.0570  0.0701
 1110YOPC   C1B15815   9.492   3.409   5.794 -0.2565  0.0492 -0.1696
 1110YOPC   C2B15816   9.307   3.778   6.063  0.0864 -0.0777  0.0803
 1110YOPC   D3B15817   9.380   3.806   6.560 -0.0736 -0.0725 -0.1501
 1110YOPC   C4B15818   9.184   3.647   7.010 -0.1791  0.0542 -0.0402
 1111YOPC   NC315819  10.267   9.142   5.463  0.1604 -0.1323  0.1794
 1111YOPC   PO415820  10.518   8.877   5.607  0.0647 -0.0033  0.1116
 1111YOPC   GL115821  10.630   8.892   6.056 -0.1611 -0.1717  0.2244
 1111YOPC   GL215822  10.617   9.208   5.978 -0.0510 -0.3400  0.1032
 1111YOPC   C1A15823  10.780   8.870   6.558 -0.1043 -0.2249 -0.1006
 1111YOPC   D2A15824  10.825   8.716   6.958 -0.0417  0.0456  0.1440
 1111YOPC   C3A15825  10.633   8.625   7.337  0.1766  0.1514 -0.3078
 1111YOPC   C4A15826  10.598   8.251   7.468 -0.1145  0.0314  0.1373
 1111YOPC   C1B15827  10.630   9.371   6.319  0.0184 -0.0625  0.0119
 1111YOPC   C2B15828  10.754   9.674   6.604  0.3247 -0.0693 -0.1638
 1111YOPC   D3B15829  10.424   9.956   6.840  0.2833  0.0555 -0.2373
 1111YOPC   C4B15830  10.264   9.980   7.324  0.0801  0.0105 -0.3439
 1112YOPC   NC315831   8.633   7.405   5.647  0.0527 -0.1070  0.0099
 1112YOPC   PO415832   8.847   7.731   5.699  0.0519  0.1349  0.1614
 1112YOPC   GL115833   8.909   7.871   6.114 -0.2567  0.1195  0.2462
 1112YOPC   GL215834   9.173   7.782   6.339 -0.0090 -0.4406  0.1293
 1112YOPC   C1A15835   8.713   7.730   6.520  0.2287 -0.1113  0.1525
 1112YOPC   D2A15836   9.033   7.677   6.928 -0.2667  0.0476  0.1040
 1112YOPC   C3A15837   9.239   7.978   7.208 -0.2235  0.1320 -0.1269
 1112YOPC   C4A15838   9.519   8.248   7.574  0.2010  0.1848 -0.0099
 1112YOPC   C1B15839   9.338   7.455   6.533 -0.2721 -0.0840  0.0242
 1112YOPC   C2B15840   9.546   7.343   6.892  0.3097  0.4231 -0.1952
 1112YOPC   D3B15841   9.458   7.465   7.241  0.0795 -0.0932 -0.0582
 1112YOPC   C4B15842   9.512   7.699   7.507 -0.0273  0.0799  0.4366
 1113YOPC   NC315843   1.440  17.026   4.778  0.0327 -0.0284 -0.0167
 1113YOPC   PO415844   1.088  16.961   5.072  0.2443  0.0391  0.0123
 1113YOPC   GL115845   1.107  16.862   5.525  0.2246 -0.1684  0.1760
 1113YOPC   GL215846   0.924  16.703   5.714 -0.1158  0.1780 -0.0196
 1113YOPC   C1A15847   1.382  17.087   5.729 -0.0293  0.1321  0.0968
 1113YOPC   D2A15848   1.346  17.475   5.950  0.0737 -0.1593  0.2737
 1113YOPC   C3A15849   1.533  17.625   6.302  0.2078 -0.1364  0.0629
 1113YOPC   C4A15850   1.812  17.829   6.485  0.1423 -0.0059  0.1895
 1113YOPC   C1B15851   1.169  16.795   6.063  0.0056 -0.3405 -0.2096
 1113YOPC   C2B15852   1.474  16.537   6.398 -0.0809 -0.3126  0.1592
 1113YOPC   D3B15853   1.258  16.515   6.792  0.2017 -0.0945 -0.0466
 1113YOPC   C4B15854   1.240  16.832   7.056 -0.1412  0.0829 -0.3056
 1114YOPC   NC315855   3.737   1.772   5.047  0.1520 -0.0446 -0.0367
 1114YOPC   PO415856   3.463   1.485   5.298  0.4450 -0.1942  0.0977
 1114YOPC   GL115857   3.478   1.416   5.787  0.1855 -0.2126  0.1609
 1114YOPC   GL215858   3.213   1.389   5.936  0.2285  0.0681 -0.0398
 1114YOPC   C1A15859   3.709   1.390   6.174  0.0662 -0.0917  0.1335
 1114YOPC   D2A15860   3.589   1.602   6.543  0.2775 -0.0444 -0.0680
 1114YOPC   C3A15861   3.348   1.554   6.978 -0.0271  0.2977  0.1243
 1114YOPC   C4A15862   2.988   1.529   7.263 -0.0818 -0.3409  0.1577
 1114YOPC   C1B15863   3.251   1.310   6.362 -0.0899  0.1502 -0.0538
 1114YOPC   C2B15864   3.376   0.953   6.644  0.1417  0.0458 -0.2826
 1114YOPC   D3B15865   3.655   0.888   7.022 -0.1580  0.1236  0.0422
 1114YOPC   C4B15866   3.942   0.586   7.240  0.1058 -0.1842  0.1557
 1115YOPC   NC315867   9.393   2.847   5.455  0.1071 -0.1094 -0.1557
 1115YOPC   PO415868   8.877   2.877   5.432  0.2232 -0.0107 -0.0077
 1115YOPC   GL115869   8.797   2.770   5.875  0.0267  0.1375  0.0775
 1115YOPC   GL215870   9.017   2.731   5.903 -0.1734  0.1248 -0.1797
 1115YOPC   C1A15871   8.727   2.661   6.254  0.0824 -0.2252  0.0132
 1115YOPC   D2A15872   8.893   2.908   6.577  0.1915 -0.0081  0.2035
 1115YOPC   C3A15873   8.835   2.671   6.919  0.0069 -0.0462  0.2344
 1115YOPC   C4A15874   9.004   2.648   7.345 -0.5209 -0.0770 -0.1436
 1115YOPC   C1B15875   9.083   3.116   6.097 -0.2171  0.0761  0.2234
 1115YOPC   C2B15876   9.368   3.326   6.382 -0.2075 -0.0437  0.2589
 1115YOPC   D3B15877   9.339   3.206   6.891 -0.2752 -0.2505 -0.1620
 1115YOPC   C4B15878   9.080   3.176   7.220 -0.0403  0.1706  0.0403
 1116YOPC   NC315879   3.990  13.441   5.131 -0.0664 -0.1435  0.3298
 1116YOPC   PO415880   4.233  13.310   5.417  0.1887 -0.0203 -0.0569
 1116YOPC   GL115881   4.220  13.192   5.832  0.1222  0.0582  0.1561
 1116YOPC   GL215882   4.404  12.915   6.053  0.0898  0.1942  0.1398
 1116YOPC   C1A15883   3.839  13.176   6.137  0.1135 -0.2612 -0.1451
 1116YOPC   D2A15884   3.444  13.356   6.372 -0.1959 -0.0520 -0.1128
 1116YOPC   C3A15885   3.354  13.312   6.902 -0.3167 -0.1783  0.0889
 1116YOPC   C4A15886   3.118  13.269   7.261  0.0403 -0.1431  0.3262
 1116YOPC   C1B15887   4.188  12.910   6.425 -0.1865  0.0371  0.0300
 1116YOPC   C2B15888   4.105  13.136   6.872 -0.1546  0.0879  0.0711
 1116YOPC   D3B15889   3.773  13.461   7.066 -0.0216 -0.0319 -0.3433
 1116YOPC   C4B15890   3.631  13.232   7.421 -0.0055  0.1531  0.1338
 1117YOPC   NC315891   0.947   7.950   5.387 -0.1221  0.0668 -0.1830
 1117YOPC   PO415892   0.592   7.620   5.405 -0.0977 -0.0240 -0.1485
 1117YOPC   GL115893   0.527   7.731   5.878  0.2991  0.1051 -0.0683
 1117YOPC   GL215894   0.748   7.857   6.057  0.3843 -0.2644 -0.2222
 1117YOPC   C1A15895   0.540   7.516   6.320  0.2288 -0.3808  0.2709
 1117YOPC   D2A15896   0.473   7.190   6.636  0.1127  0.1435 -0.1104
 1117YOPC   C3A15897   0.443   7.334   7.093  0.2114  0.1523 -0.0325
 1117YOPC   C4A15898   0.529   7.445   7.479 -0.0557  0.0627  0.1411
 1117YOPC   C1B15899   0.700   7.942   6.556  0.2578  0.2338  0.0629
 1117YOPC   C2B15900   0.644   7.691   6.851 -0.3275  0.1616  0.0634
 1117YOPC   D3B15901   0.754   7.827   7.201  0.0393 -0.0587  0.3085
 1117YOPC   C4B15902   1.023   7.675   7.477  0.1002 -0.0195  0.3376
 1118YOPC   NC315903  17.729  11.740   5.169  0.1544  0.2662 -0.0128
 1118YOPC   PO415904  18.042  11.391   5.388 -0.3019  0.0721  0.1734
 1118YOPC   GL115905  17.989  11.276   5.823  0.0573 -0.1420  0.3731
 1118YOPC   GL215906  17.881  10.853   5.900  0.0803  0.0396  0.2029
 1118YOPC   C1A15907  18.111  11.281   6.205  0.2829  0.1378  0.3301
 1118YOPC   D2A15908  18.187  11.067   6.524  0.0589 -0.1308  0.4401
 1118YOPC   C3A15909  17.927  11.079   6.863  0.1606 -0.2447 -0.1118
 1118YOPC   C4A15910  17.687  11.189   7.139  0.0100 -0.1528 -0.2596
 1118YOPC   C1B15911  18.052  10.733   6.179 -0.1655 -0.0426  0.3497
 1118YOPC   C2B15912  18.216  10.474   6.538  0.2813 -0.0317 -0.0584
 1118YOPC   D3B15913  18.119  10.608   6.957  0.1929 -0.1479 -0.0663
 1118YOPC   C4B15914  18.071  10.836   7.312 -0.1280 -0.2418  0.1100
 1119YOPC   NC315915   9.015   9.537   5.378 -0.0333 -0.0882 -0.0091
 1119YOPC   PO415916   9.161   9.917   5.258  0.2563  0.4377 -0.3294
 1119YOPC   GL115917   9.270   9.896   5.743 -0.2391  0.2102 -0.0400
 1119YOPC   GL215918   9.249   9.634   5.813  0.3680 -0.0330  0.0547
 1119YOPC   C1A15919   9.333   9.951   6.193 -0.1903 -0.2822  0.3459
 1119YOPC   D2A15920   9.109   9.763   6.481 -0.0554  0.0550 -0.0486
 1119YOPC   C3A15921   9.169   9.749   6.938  0.0593 -0.0526 -0.0761
 1119YOPC   C4A15922   9.381   9.649   7.376 -0.3034 -0.0336 -0.1078
 1119YOPC   C1B15923   8.806   9.728   5.984 -0.0055  0.0987 -0.0392
 1119YOPC   C2B15924   8.333   9.882   6.113  0.2781 -0.1822  0.0248
 1119YOPC   D3B15925   8.224   9.699   6.516  0.1168 -0.0150  0.3172
 1119YOPC   C4B15926   8.429   9.619   6.933  0.1064 -0.0484  0.3301
 1120YOPC   NC315927  14.159   2.148   5.756  0.1007  0.1593  0.0321
 1120YOPC   PO415928  14.031   1.694   5.886  0.2059  0.0244 -0.1702
 1120YOPC   GL115929  14.028   1.644   6.290  0.4304 -0.0361  0.0725
 1120YOPC   GL215930  13.776   1.563   6.444  0.2295 -0.0119  0.1279
 1120YOPC   C1A15931  14.309   1.712   6.712  0.2687  0.0895 -0.3899
 1120YOPC   D2A15932  14.560   1.721   7.117  0.0193 -0.1074 -0.0280
 1120YOPC   C3A15933  14.704   1.408   7.353 -0.1778  0.1006 -0.0379
 1120YOPC   C4A15934  15.078   1.375   7.664  0.2100 -0.1511 -0.1824
 1120YOPC   C1B15935  13.855   1.371   6.805  0.0302  0.1024  0.0499
 1120YOPC   C2B15936  13.770   1.204   7.238  0.0745 -0.0628 -0.2820
 1120YOPC   D3B15937  13.410   1.343   7.562  0.1220 -0.0793  0.1361
 1120YOPC   C4B15938  13.116   1.466   7.774  0.1084 -0.4411  0.1280
 1121YOPC   NC315939  18.220   2.096   5.344  0.1143 -0.4271  0.0757
 1121YOPC   PO415940  17.772   1.993   5.298  0.1178 -0.0073  0.1713
 1121YOPC   GL115941  17.600   1.953   5.832  0.3633  0.2593  0.0561
 1121YOPC   GL215942  17.624   2.209   5.951 -0.2431  0.0649 -0.1941
 1121YOPC   C1A15943  17.801   1.748   6.246 -0.0611  0.1778 -0.1231
 1121YOPC   D2A15944  17.795   1.732   6.644  0.0175  0.0223  0.0243
 1121YOPC   C3A15945  17.824   1.945   6.997 -0.0864 -0.0410  0.4328
 1121YOPC   C4A15946  17.724   2.151   7.445 -0.3829  0.0749  0.3010
 1121YOPC   C1B15947  17.815   2.341   6.303 -0.2811  0.2010 -0.2990
 1121YOPC   C2B15948  18.006   2.180   6.556  0.0615  0.3781 -0.0511
 1121YOPC   D3B15949  18.423   2.266   6.524  0.1113  0.1294 -0.3229
 1121YOPC   C4B15950  18.801   2.134   6.598  0.0553 -0.3079  0.2947
 1122YOPC   NC315951  17.995  13.514   5.587 -0.1131  0.0599 -0.0951
 1122YOPC   PO415952  17.692  13.902   5.537  0.0036 -0.0007 -0.0438
 1122YOPC   GL115953  17.789  13.819   5.940 -0.2299 -0.0906  0.1461
 1122YOPC   GL215954  17.691  14.149   6.003  0.1800  0.1351 -0.0209
 1122YOPC   C1A15955  18.030  13.787   6.356  0.1198  0.4967  0.1818
 1122YOPC   D2A15956  17.909  13.624   6.628 -0.0995  0.0690 -0.0476
 1122YOPC   C3A15957  18.086  13.730   7.084  0.2941 -0.0136  0.1148
 1122YOPC   C4A15958  17.936  13.690   7.551  0.1593 -0.2205 -0.1847
 1122YOPC   C1B15959  17.903  14.318   6.299  0.2470 -0.1149  0.1200
 1122YOPC   C2B15960  18.202  14.227   6.556  0.2613 -0.3993  0.1413
 1122YOPC   D3B15961  18.258  14.179   6.970 -0.0722  0.2089  0.0281
 1122YOPC   C4B15962  18.169  14.133   7.445 -0.1786 -0.0170  0.0407
 1123YOPC   NC315963   6.710  11.212   5.334 -0.0037 -0.0977 -0.3293
 1123YOPC   PO415964   6.192  11.429   5.443  0.0485  0.0085  0.1411
 1123YOPC   GL115965   6.174  11.490   5.876 -0.0523 -0.4117  0.1574
 1123YOPC   GL215966   6.062  11.744   5.987  0.0149  0.2792  0.0031
 1123YOPC   C1A15967   6.337  11.532   6.330  0.0811  0.3034 -0.2364
 1123YOPC   D2A15968   6.639  11.351   6.702  0.2175 -0.1123 -0.3580
 1123YOPC   C3A15969   6.509  11.620   7.079  0.3317  0.0916 -0.0839
 1123YOPC   C4A15970   6.273  11.846   7.372 -0.1969  0.0819  0.0845
 1123YOPC   C1B15971   5.879  11.874   6.349  0.1297 -0.0260 -0.0043
 1123YOPC   C2B15972   6.069  11.649   6.734 -0.3497 -0.1011 -0.3281
 1123YOPC   D3B15973   6.153  11.215   6.701 -0.0438 -0.1459 -0.0384
 1123YOPC   C4B15974   6.321  10.923   6.376  0.1839  0.0216  0.1845
 1124YOPC   NC315975  12.971  18.651   5.568  0.0680 -0.1781  0.2412
 1124YOPC   PO415976  12.676  18.982   5.861 -0.0769  0.4499  0.0197
 1124YOPC   GL115977  12.435  18.859   6.179 -0.0486 -0.1686 -0.0268
 1124YOPC   GL215978  12.650  18.610   6.358  0.2473 -0.1797 -0.0212
 1124YOPC   C1A15979  12.299  18.941   6.576  0.2106 -0.0974 -0.0303
 1124YOPC   D2A15980  12.241  18.859   7.034 -0.3249  0.1499  0.1009
 1124YOPC   C3A15981  12.156  19.149   7.221  0.0903 -0.3424  0.2817
 1124YOPC   C4A15982  11.849  19.323   7.391  0.1063 -0.0300  0.2107
 1124YOPC   C1B15983  12.638  18.589   6.758 -0.1042  0.1420  0.1792
 1124YOPC   C2B15984  12.757  18.716   7.150  0.1822  0.0188  0.1832
 1124YOPC   D3B15985  12.472  18.701   7.527 -0.1793  0.0184  0.1949
 1124YOPC   C4B15986  12.290  19.003   7.800 -0.2441  0.0775  0.0799
 1125YOPC   NC315987   0.660  17.252   4.922  0.1375  0.1308  0.3154
 1125YOPC   PO415988   0.342  17.185   5.229  0.0738  0.0014 -0.1693
 1125YOPC   GL115989   0.349  17.134   5.611 -0.1518 -0.0910 -0.0756
 1125YOPC   GL215990   0.541  16.991   5.711  0.3085  0.0284 -0.2259
 1125YOPC   C1A15991   0.266  17.399   5.969  0.0929  0.0294  0.2184
 1125YOPC   D2A15992   0.102  17.829   6.181 -0.2103 -0.1886  0.0913
 1125YOPC   C3A15993  -0.036  17.789   6.584 -0.0742 -0.2545 -0.1032
 1125YOPC   C4A15994  -0.040  18.019   6.933 -0.0712  0.0211 -0.0557
 1125YOPC   C1B15995   0.501  17.005   6.219  0.1230  0.0087  0.0544
 1125YOPC   C2B15996   0.355  17.370   6.547 -0.0187  0.0610 -0.1688
 1125YOPC   D3B15997   0.409  17.406   7.012  0.1274  0.2761  0.1797
 1125YOPC   C4B15998   0.321  17.157   7.368  0.2791  0.1710  0.1315
 1126YOPC   NC315999  11.286  17.712   5.401 -0.0094 -0.1206  0.1114
 1126YOPC   PO416000  10.951  17.591   5.619  0.1605 -0.1302 -0.1229
 1126YOPC   GL116001  10.805  17.878   5.996  0.1748 -0.2667  0.0385
 1126YOPC   GL216002  10.963  17.849   6.325 -0.2543  0.4325  0.1036
 1126YOPC   C1A16003  10.428  17.828   6.220  0.2026 -0.0759 -0.2351
 1126YOPC   D2A16004  10.167  17.798   6.567 -0.0406 -0.0806  0.0120
 1126YOPC   C3A16005   9.782  17.718   6.457 -0.2305 -0.1771 -0.0977
 1126YOPC   C4A16006   9.363  17.738   6.377  0.0839  0.0357  0.0566
 1126YOPC   C1B16007  10.627  17.811   6.702  0.1314 -0.2130 -0.0022
 1126YOPC   C2B16008  10.490  18.153   7.037  0.1695  0.0934  0.0656
 1126YOPC   D3B16009  10.304  18.167   7.470  0.2734  0.2603  0.3086
 1126YOPC   C4B16010  10.248  18.364   7.891  0.0014 -0.1413  0.2572
 1127YOPC   NC316011   9.356  10.325   5.086 -0.0912  0.1716 -0.3375
 1127YOPC   PO416012   9.611  10.657   5.480 -0.2865  0.3549 -0.0105
 1127YOPC   GL116013   9.486  10.496   5.819  0.0967  0.1633  0.0308
 1127YOPC   GL216014   9.734  10.288   5.811  0.0939  0.0900  0.2010
 1127YOPC   C1A16015   9.209  10.562   6.151  0.3206 -0.2073 -0.3015
 1127YOPC   D2A16016   9.204  10.373   6.524 -0.0642  0.1432 -0.3167
 1127YOPC   C3A16017   9.519  10.082   6.675 -0.2869 -0.2436  0.0865
 1127YOPC   C4A16018   9.830   9.760   6.541  0.3092 -0.2044  0.0469
 1127YOPC   C1B16019   9.788  10.228   6.196  0.0392  0.1691  0.1947
 1127YOPC   C2B16020  10.066  10.220   6.493  0.2451 -0.3214 -0.3266
 1127YOPC   D3B16021   9.954  10.111   6.953  0.0106 -0.2042  0.0960
 1127YOPC   C4B16022   9.847   9.694   7.132 -0.3630  0.0159 -0.2730
 1128YOPC   NC316023   4.904   5.479   5.315  0.2398  0.0828 -0.0695
 1128YOPC   PO416024   4.479   5.601   5.267 -0.0605  0.1239  0.3517
 1128YOPC   GL116025   4.437   5.578   5.657 -0.0989  0.2365 -0.3144
 1128YOPC   GL216026   4.439   5.949   5.743  0.0629  0.3538 -0.1686
 1128YOPC   C1A16027   4.575   5.486   6.040 -0.3050  0.3213 -0.0773
 1128YOPC   D2A16028   4.755   5.342   6.519  0.1911  0.0202 -0.0905
 1128YOPC   C3A16029   4.593   5.074   6.743 -0.0175  0.1575 -0.1043
 1128YOPC   C4A16030   4.550   4.736   6.982  0.2937  0.3271 -0.1389
 1128YOPC   C1B16031   4.277   6.177   6.087 -0.0255  0.0675 -0.2459
 1128YOPC   C2B16032   4.440   6.340   6.487 -0.0586  0.0312 -0.0558
 1128YOPC   D3B16033   4.406   6.168   6.999  0.6020  0.2212  0.0966
 1128YOPC   C4B16034   4.202   6.022   7.202 -0.2467 -0.1974 -0.0188
 1129YOPC   NC316035   2.186   6.853   5.244  0.1134  0.4184  0.1025
 1129YOPC   PO416036   1.991   6.565   5.089 -0.0641  0.2116 -0.0052
 1129YOPC   GL116037   1.836   6.559   5.515 -0.1361 -0.1207  0.0893
 1129YOPC   GL216038   1.854   6.856   5.589 -0.1010 -0.0125  0.0313
 1129YOPC   C1A16039   1.856   6.300   5.893  0.1187  0.3237 -0.2874
 1129YOPC   D2A16040   1.861   5.930   6.099  0.1177 -0.1078 -0.0580
 1129YOPC   C3A16041   1.836   5.933   6.571 -0.1413 -0.3634  0.1109
 1129YOPC   C4A16042   1.923   5.827   7.004  0.1654  0.2639 -0.0114
 1129YOPC   C1B16043   1.919   6.757   6.023  0.0309 -0.1400  0.2057
 1129YOPC   C2B16044   2.068   6.945   6.445 -0.0796 -0.0973 -0.0433
 1129YOPC   D3B16045   2.372   6.692   6.720  0.1501  0.1087  0.3535
 1129YOPC   C4B16046   2.365   6.468   7.137 -0.0104 -0.4622 -0.0351
 1130YOPC   NC316047   9.136  15.671   5.855 -0.2196  0.3493  0.0120
 1130YOPC   PO416048   9.241  15.207   5.922  0.3954  0.0267 -0.0148
 1130YOPC   GL116049   9.204  14.903   6.191  0.1921  0.2850 -0.0472
 1130YOPC   GL216050   9.279  14.606   6.234 -0.0742  0.2444 -0.3054
 1130YOPC   C1A16051   9.191  14.961   6.626  0.1300  0.1531 -0.0725
 1130YOPC   D2A16052   9.211  14.950   7.002 -0.0682  0.0920  0.2632
 1130YOPC   C3A16053   8.991  15.286   7.226 -0.0693 -0.0573 -0.0996
 1130YOPC   C4A16054   8.969  15.713   7.310  0.0832  0.0127 -0.0336
 1130YOPC   C1B16055   9.335  14.473   6.683  0.2345 -0.1425 -0.0285
 1130YOPC   C2B16056   9.358  14.518   7.092  0.0026 -0.0574 -0.0339
 1130YOPC   D3B16057   9.341  14.720   7.442  0.4073  0.0233 -0.2744
 1130YOPC   C4B16058   9.238  14.967   7.713 -0.1350  0.0504  0.1494
 1131YOPC   NC316059  15.907   7.751   5.499 -0.3560 -0.2680  0.0153
 1131YOPC   PO416060  15.595   7.563   5.836 -0.0566 -0.1538 -0.0028
 1131YOPC   GL116061  15.277   7.499   6.143 -0.0646 -0.2139  0.0405
 1131YOPC   GL216062  15.479   7.730   6.312  0.1516 -0.0445  0.1104
 1131YOPC   C1A16063  14.947   7.515   6.435 -0.2127  0.0001 -0.0618
 1131YOPC   D2A16064  14.805   7.206   6.701 -0.1894 -0.1056 -0.0626
 1131YOPC   C3A16065  14.986   7.319   7.138 -0.0897  0.0863 -0.2086
 1131YOPC   C4A16066  15.162   7.631   7.073 -0.3672  0.2947 -0.0604
 1131YOPC   C1B16067  15.506   7.651   6.739 -0.1204  0.2320  0.0296
 1131YOPC   C2B16068  15.679   7.733   7.116  0.1509  0.0557  0.2748
 1131YOPC   D3B16069  15.711   8.018   7.356 -0.0489  0.3728 -0.0616
 1131YOPC   C4B16070  15.897   8.426   7.528 -0.2894 -0.0241 -0.1522
 1132YOPC   NC316071   4.381   2.846   5.095  0.3078  0.2455 -0.0098
 1132YOPC   PO416072   3.964   2.876   5.275 -0.0128  0.0719 -0.0915
 1132YOPC   GL116073   3.896   2.636   5.595 -0.1609  0.1619  0.0919
 1132YOPC   GL216074   3.485   2.743   5.774 -0.3934 -0.0302 -0.0760
 1132YOPC   C1A16075   4.113   2.715   5.948 -0.0873 -0.3902 -0.2505
 1132YOPC   D2A16076   4.537   2.848   6.113 -0.0416 -0.0554  0.3435
 1132YOPC   C3A16077   4.672   2.792   6.493 -0.1578  0.2310  0.2971
 1132YOPC   C4A16078   4.759   2.779   6.896 -0.1452 -0.1730 -0.1698
 1132YOPC   C1B16079   3.334   2.794   6.123 -0.0840  0.2850  0.1523
 1132YOPC   C2B16080   3.193   2.946   6.495 -0.1659 -0.1096  0.3615
 1132YOPC   D3B16081   3.329   2.882   6.806  0.0072  0.1236 -0.2307
 1132YOPC   C4B16082   3.381   3.088   7.122  0.0398  0.1520  0.1911
 1133YOPC   NC316083   0.065  14.562   5.242 -0.2468 -0.2210 -0.1894
 1133YOPC   PO416084  -0.184  14.344   5.612  0.1358 -0.3631 -0.0640
 1133YOPC   GL116085   0.061  14.304   6.051 -0.1691 -0.2151 -0.3165
 1133YOPC   GL216086   0.369  14.106   6.020  0.3048  0.0813 -0.1310
 1133YOPC   C1A16087  -0.088  14.134   6.426  0.0891  0.0516 -0.1892
 1133YOPC   D2A16088   0.147  13.967   6.779  0.1146  0.0647  0.1050
 1133YOPC   C3A16089   0.500  13.767   6.843  0.1251  0.0928 -0.1366
 1133YOPC   C4A16090   0.743  13.517   6.583 -0.0852 -0.1621  0.0107
 1133YOPC   C1B16091   0.732  13.968   6.317 -0.2494 -0.1084 -0.1325
 1133YOPC   C2B16092   0.808  14.170   6.566 -0.4639 -0.2024 -0.3303
 1133YOPC   D3B16093   0.993  13.859   6.880  0.3366 -0.1501  0.1776
 1133YOPC   C4B16094   1.051  13.374   6.940 -0.1290 -0.3440  0.1481
 1134YOPC   NC316095  16.275  12.758   5.556  0.1139 -0.1374  0.1472
 1134YOPC   PO416096  15.837  12.984   5.815 -0.0986  0.1026  0.0785
 1134YOPC   GL116097  16.080  13.231   6.052  0.1822  0.0881  0.1606
 1134YOPC   GL216098  16.058  13.335   6.286  0.0121  0.2501 -0.0012
 1134YOPC   C1A16099  16.564  13.227   6.023  0.2339 -0.0949  0.1445
 1134YOPC   D2A16100  16.931  12.880   6.012  0.2626  0.0590  0.0640
 1134YOPC   C3A16101  17.026  12.595   6.334  0.1843 -0.1395  0.1752
 1134YOPC   C4A16102  17.148  12.532   6.737  0.0600 -0.1433  0.2415
 1134YOPC   C1B16103  16.452  13.482   6.448 -0.2346 -0.1890 -0.0804
 1134YOPC   C2B16104  16.633  13.522   6.847  0.0017 -0.0602 -0.0075
 1134YOPC   D3B16105  16.910  13.303   6.961  0.1561 -0.0527 -0.1751
 1134YOPC   C4B16106  17.067  13.513   7.371  0.0103  0.1257 -0.0173
 1135YOPC   NC316107  11.211   1.048   5.912 -0.1918 -0.0485 -0.0735
 1135YOPC   PO416108  11.135   0.616   5.682 -0.2655  0.0298  0.3033
 1135YOPC   GL116109  11.101   0.616   6.111  0.0447  0.1421 -0.3856
 1135YOPC   GL216110  11.429   0.698   6.233  0.4098  0.0765 -0.1869
 1135YOPC   C1A16111  11.108   0.709   6.624 -0.1286  0.1119 -0.2590
 1135YOPC   D2A16112  10.946   0.493   6.915 -0.1344 -0.1305  0.0495
 1135YOPC   C3A16113  10.881   0.774   7.364  0.0748  0.1213  0.0658
 1135YOPC   C4A16114  11.086   0.867   7.801 -0.3582 -0.1284  0.0357
 1135YOPC   C1B16115  11.712   0.777   6.537 -0.0767 -0.2077  0.0249
 1135YOPC   C2B16116  11.875   0.955   6.959 -0.1272  0.1790  0.0549
 1135YOPC   D3B16117  12.291   0.901   7.167 -0.0532  0.0842  0.3402
 1135YOPC   C4B16118  12.395   0.675   7.479  0.1714  0.0967  0.2418
 1136YOPC   NC316119  14.118  14.005   5.351  0.1448 -0.1880 -0.0557
 1136YOPC   PO416120  14.314  14.045   5.748 -0.2597 -0.0854 -0.2201
 1136YOPC   GL116121  14.541  13.865   6.191  0.1386  0.1098  0.3210
 1136YOPC   GL216122  14.549  13.547   6.368  0.1857  0.4184  0.2726
 1136YOPC   C1A16123  14.746  14.013   6.541 -0.0544 -0.1847  0.1435
 1136YOPC   D2A16124  14.637  14.409   6.570 -0.1969  0.0678  0.0050
 1136YOPC   C3A16125  14.452  14.380   6.957  0.0968 -0.1193  0.1193
 1136YOPC   C4A16126  14.216  14.441   7.212  0.1093 -0.3331 -0.2474
 1136YOPC   C1B16127  14.424  13.399   6.771 -0.0860  0.2141 -0.1886
 1136YOPC   C2B16128  14.502  13.165   7.125 -0.2033 -0.0170 -0.0940
 1136YOPC   D3B16129  14.338  13.087   7.502  0.1707  0.0209 -0.3611
 1136YOPC   C4B16130  14.381  12.969   7.918  0.1677  0.0015 -0.1229
 1137YOPC   NC316131   4.641   7.702   5.065 -0.1356  0.0513  0.3168
 1137YOPC   PO416132   4.246   7.965   4.894 -0.0129  0.1906 -0.0878
 1137YOPC   GL116133   4.181   7.943   5.304 -0.2976 -0.5435 -0.0691
 1137YOPC   GL216134   4.482   7.884   5.515  0.2433 -0.3281 -0.0021
 1137YOPC   C1A16135   4.056   8.145   5.713 -0.0120 -0.2679  0.0006
 1137YOPC   D2A16136   4.044   8.250   6.095 -0.2968 -0.1375 -0.2582
 1137YOPC   C3A16137   4.267   8.167   6.403  0.1488 -0.3491 -0.3712
 1137YOPC   C4A16138   4.174   7.913   6.705 -0.1566 -0.0634 -0.2518
 1137YOPC   C1B16139   4.509   8.182   5.827  0.1763 -0.0718  0.0188
 1137YOPC   C2B16140   4.591   8.526   6.053 -0.0164  0.1882 -0.0196
 1137YOPC   D3B16141   4.955   8.485   6.369  0.0266  0.0864 -0.1107
 1137YOPC   C4B16142   5.039   8.718   6.784  0.0639  0.0357 -0.0160
 1138YOPC   NC316143   6.067  14.876   5.726 -0.1259  0.0350 -0.3926
 1138YOPC   PO416144   5.965  15.363   5.802  0.0997 -0.1155 -0.1130
 1138YOPC   GL116145   5.923  15.255   6.279 -0.0847  0.0209  0.1400
 1138YOPC   GL216146   6.126  15.451   6.350  0.1498  0.0956  0.0993
 1138YOPC   C1A16147   5.911  15.422   6.795 -0.0941  0.1775  0.1971
 1138YOPC   D2A16148   6.031  15.548   7.147 -0.0344  0.0602  0.0623
 1138YOPC   C3A16149   5.749  15.648   7.428 -0.1439 -0.2013  0.1080
 1138YOPC   C4A16150   5.832  15.900   7.813 -0.0319  0.2781 -0.1296
 1138YOPC   C1B16151   6.303  15.788   6.604 -0.1692  0.1868 -0.2090
 1138YOPC   C2B16152   6.099  16.027   6.982 -0.3132 -0.2388 -0.0233
 1138YOPC   D3B16153   6.045  16.092   7.352 -0.0739  0.1164 -0.2870
 1138YOPC   C4B16154   6.380  16.215   7.659 -0.1461  0.2963 -0.0937
 1139YOPC   NC316155  13.250   1.784   5.550  0.0571 -0.0075 -0.0016
 1139YOPC   PO416156  12.903   1.633   5.882  0.0213 -0.2324 -0.2033
 1139YOPC   GL116157  12.647   1.600   6.293 -0.1824  0.0654  0.2336
 1139YOPC   GL216158  12.615   1.856   6.427 -0.0815  0.0871 -0.0719
 1139YOPC   C1A16159  12.356   1.448   6.559  0.1022  0.1073 -0.1500
 1139YOPC   D2A16160  12.026   1.358   6.759  0.0148 -0.0947  0.0558
 1139YOPC   C3A16161  12.040   1.397   7.179  0.0446  0.0999  0.1326
 1139YOPC   C4A16162  12.288   1.200   7.612  0.1686  0.2681  0.1922
 1139YOPC   C1B16163  12.895   1.988   6.779  0.2342 -0.2151 -0.2140
 1139YOPC   C2B16164  12.793   2.247   7.163 -0.0473  0.2627  0.1423
 1139YOPC   D3B16165  12.990   2.058   7.580 -0.2046  0.3857 -0.1830
 1139YOPC   C4B16166  12.932   2.024   7.977  0.0059  0.0229 -0.3300
 1140YOPC   NC316167   2.369  17.261   5.255 -0.1570 -0.0008 -0.0961
 1140YOPC   PO416168   1.809  17.266   5.158  0.1714  0.4160 -0.1739
 1140YOPC   GL116169   1.750  17.424   5.563  0.0784  0.3201 -0.0380
 1140YOPC   GL216170   1.728  17.700   5.635  0.0505  0.1476 -0.0957
 1140YOPC   C1A16171   1.842  17.360   5.971  0.1842 -0.1520 -0.1247
 1140YOPC   D2A16172   1.605  17.047   6.196 -0.2074 -0.0810  0.0422
 1140YOPC   C3A16173   1.477  17.063   6.573 -0.0676 -0.0022 -0.2790
 1140YOPC   C4A16174   1.274  17.242   6.714 -0.1785 -0.2253 -0.3995
 1140YOPC   C1B16175   1.484  17.993   5.910  0.0484  0.0743 -0.1594
 1140YOPC   C2B16176   1.427  18.187   6.346 -0.1596 -0.0609  0.0521
 1140YOPC   D3B16177   1.607  18.209   6.897  0.0453  0.3010  0.2740
 1140YOPC   C4B16178   1.409  18.169   7.222  0.1788  0.0943 -0.0777
 1141YOPC   NC316179   8.798  13.799   5.439 -0.3175 -0.2014  0.1141
 1141YOPC   PO416180   9.007  14.197   5.592  0.2050  0.1307 -0.2062
 1141YOPC   GL116181   8.808  14.345   5.993  0.3363 -0.0737 -0.3117
 1141YOPC   GL216182   8.597  14.523   5.930 -0.3471  0.1383  0.3131
 1141YOPC   C1A16183   8.485  14.088   6.269  0.3047  0.0895  0.1468
 1141YOPC   D2A16184   8.599  13.769   6.538  0.3569  0.3298  0.2995
 1141YOPC   C3A16185   8.423  13.819   7.024 -0.0882  0.0548  0.1567
 1141YOPC   C4A16186   8.482  13.931   7.426 -0.0333  0.4024  0.1189
 1141YOPC   C1B16187   8.570  14.684   6.387  0.1571  0.6258 -0.0818
 1141YOPC   C2B16188   8.696  14.663   6.757  0.1826 -0.3373 -0.0900
 1141YOPC   D3B16189   8.742  14.810   7.112 -0.0899  0.0117 -0.1023
 1141YOPC   C4B16190   8.821  14.859   7.545 -0.2504  0.0446  0.0316
 1142YOPC   NC316191  16.141   9.543   5.791  0.2571 -0.1835 -0.1290
 1142YOPC   PO416192  16.488   9.220   5.819 -0.0701  0.1348  0.0492
 1142YOPC   GL116193  16.671   8.970   6.070  0.2952  0.3158 -0.2740
 1142YOPC   GL216194  16.940   8.879   6.068 -0.2478  0.0432 -0.3184
 1142YOPC   C1A16195  16.738   9.149   6.491  0.2800 -0.0241 -0.0579
 1142YOPC   D2A16196  16.605   9.271   6.847  0.0598 -0.2013 -0.0304
 1142YOPC   C3A16197  16.752   9.274   7.251  0.0747  0.1626  0.5123
 1142YOPC   C4A16198  16.817   9.009   7.677 -0.1263 -0.1182  0.3446
 1142YOPC   C1B16199  17.159   8.535   6.270 -0.0295 -0.1953 -0.0720
 1142YOPC   C2B16200  17.161   8.280   6.611  0.1757 -0.2245 -0.2511
 1142YOPC   D3B16201  17.071   8.447   7.109  0.0275  0.0084 -0.1672
 1142YOPC   C4B16202  17.248   8.531   7.493 -0.2648  0.0607  0.1453
 1143ERGO   ROH16203   8.149  18.348   6.231  0.0751  0.3303  0.1020
 1143ERGO    R116204   8.190  18.470   6.483 -0.0601  0.3043  0.1397
 1143ERGO    R216205   7.980  18.545   6.648 -0.1537  0.0149  0.1774
 1143ERGO    R316206   8.112  18.392   6.830  0.0347  0.1024  0.1133
 1143ERGO    R416207   7.899  18.520   6.983  0.0262 -0.0714  0.2140
 1143ERGO    R516208   8.111  18.522   7.030  0.0348  0.0781  0.1181
 1143ERGO    C116209   7.975  18.362   7.349  0.3078 -0.0395  0.1751
 1143ERGO    C216210   7.787  18.216   7.607  0.0798  0.0321  0.1604
 1144ERGO   ROH16211  10.406   6.608   6.121  0.1124  0.2465 -0.1347
 1144ERGO    R116212  10.461   6.588   6.398 -0.1331  0.2512 -0.0828
 1144ERGO    R216213  10.718   6.572   6.498 -0.2277 -0.0959  0.1245
 1144ERGO    R316214  10.640   6.786   6.647 -0.0356  0.0711 -0.0082
 1144ERGO    R416215  10.784   6.613   6.835 -0.2290  0.0358  0.1094
 1144ERGO    R516216  10.582   6.692   6.859 -0.1555  0.2508  0.0407
 1144ERGO    C116217  10.748   6.836   7.171 -0.0496  0.2692 -0.0240
 1144ERGO    C216218  10.889   6.671   7.329 -0.3377  0.1800  0.2995
 1145ERGO   ROH16219   1.778  18.629   5.733 -0.0970 -0.3227  0.0199
 1145ERGO    R116220   1.744  18.596   6.012 -0.0919 -0.2144  0.0341
 1145ERGO    R216221   1.835  18.373   6.148 -0.1022 -0.1708  0.1182
 1145ERGO    R316222   1.960  18.559   6.303 -0.0856 -0.1183  0.0412
 1145ERGO    R416223   1.890  18.343   6.488  0.0094 -0.0861  0.1077
 1145ERGO    R516224   1.841  18.554   6.510 -0.0180 -0.0924  0.0783
 1145ERGO    C116225   2.041  18.499   6.831  0.0899  0.0129  0.0293
 1145ERGO    C216226   2.044  18.439   7.241  0.4108  0.1818 -0.0224
 1146ERGO   ROH16227  15.674   2.892   6.347 -0.2255  0.2906  0.0216
 1146ERGO    R116228  15.794   3.047   6.551 -0.1264  0.2392  0.0040
 1146ERGO    R216229  15.647   3.170   6.749 -0.0431  0.3006  0.0301
 1146ERGO    R316230  15.816   3.036   6.914 -0.0729  0.2266  0.0001
 1146ERGO    R416231  15.689   3.238   7.086 -0.0529  0.1947  0.0525
 1146ERGO    R516232  15.903   3.205   7.060 -0.0566  0.1704  0.0556
 1146ERGO    C116233  15.872   3.151   7.436 -0.0867  0.0636  0.0373
 1146ERGO    C216234  15.994   3.066   7.823  0.0481  0.1264 -0.2713
 1147ERGO   ROH16235  10.745   5.634   6.089 -0.0462  0.1833 -0.0570
 1147ERGO    R116236  10.716   5.551   6.358 -0.0300  0.0860 -0.0844
 1147ERGO    R216237  10.667   5.728   6.564 -0.1034  0.0036 -0.0277
 1147ERGO    R316238  10.456   5.564   6.612 -0.0480 -0.0872 -0.0928
 1147ERGO    R416239  10.512   5.692   6.871 -0.1744 -0.0761 -0.0732
 1147ERGO    R516240  10.497   5.477   6.832 -0.0737 -0.0793 -0.0863
 1147ERGO    C116241  10.224   5.516   7.095 -0.1635 -0.2079 -0.1608
 1147ERGO    C216242  10.098   5.592   7.359  0.1313 -0.0964 -0.2481
 1148ERGO   ROH16243  16.175  14.900   6.628  0.4014  0.3526  0.1914
 1148ERGO    R116244  16.123  14.916   6.906  0.2119  0.0991  0.1751
 1148ERGO    R216245  16.154  14.700   7.076  0.2336 -0.0220  0.0260
 1148ERGO    R316246  16.313  14.873   7.213  0.0426 -0.0309  0.2622
 1148ERGO    R416247  16.266  14.651   7.399 -0.0278 -0.1481  0.0994
 1148ERGO    R516248  16.231  14.863   7.438 -0.1487 -0.1863  0.1860
 1148ERGO    C116249  16.480  14.785   7.716 -0.3593 -0.2297  0.3640
 1148ERGO    C216250  16.784  14.725   7.983  0.1806 -0.0878  0.0845
 1149ERGO   ROH16251   6.813  15.695   6.712  0.2637 -0.2739 -0.0271
 1149ERGO    R116252   6.805  15.520   6.933  0.2009 -0.1863  0.0419
 1149ERGO    R216253   7.033  15.442   7.069  0.1744 -0.2030  0.0847
 1149ERGO    R316254   6.897  15.535   7.285  0.1901 -0.0741  0.0392
 1149ERGO    R416255   7.051  15.307   7.387 -0.0697 -0.2214  0.0915
 1149ERGO    R516256   6.836  15.337   7.406 -0.0445 -0.0134  0.0184
 1149ERGO    C116257   6.933  15.315   7.775 -0.1972 -0.1113  0.0527
 1149ERGO    C216258   7.122  15.255   8.124 -0.0595 -0.3614  0.0503
 1150ERGO   ROH16259  16.087   6.260   6.187 -0.0383 -0.0220 -0.0855
 1150ERGO    R116260  15.925   6.217   6.415  0.0610 -0.0075 -0.0129
 1150ERGO    R216261  16.002   6.054   6.625  0.1651  0.0339 -0.0246
 1150ERGO    R316262  15.951   6.276   6.773  0.1988  0.0467 -0.0301
 1150ERGO    R416263  15.851   6.052   6.935  0.3107  0.0435  0.0483
 1150ERGO    R516264  15.739   6.230   6.876  0.2510  0.0208  0.0750
 1150ERGO    C116265  15.714   6.259   7.256  0.4273  0.0611  0.0855
 1150ERGO    C216266  15.501   6.181   7.562  0.0864 -0.0923 -0.1142
 1151ERGO   ROH16267  14.535   9.843   5.886 -0.2765  0.2847  0.0054
 1151ERGO    R116268  14.676   9.816   6.129 -0.0638  0.2646 -0.1161
 1151ERGO    R216269  14.745  10.032   6.287 -0.1683  0.2381 -0.0163
 1151ERGO    R316270  14.616   9.891   6.481  0.1124 -0.0321 -0.0216
 1151ERGO    R416271  14.776  10.091   6.626 -0.3655  0.3400 -0.0158
 1151ERGO    R516272  14.777   9.874   6.658  0.1156  0.3465  0.0084
 1151ERGO    C116273  14.673   9.992   7.005 -0.2169  0.1458 -0.0204
 1151ERGO    C216274  14.631  10.137   7.315  0.0963 -0.0939 -0.0233
 1152ERGO   ROH16275   7.962   8.214   6.055 -0.3255 -0.0330  0.0382
 1152ERGO    R116276   7.801   8.124   6.270 -0.1894  0.0095  0.1611
 1152ERGO    R216277   7.860   7.898   6.416 -0.1953 -0.0692  0.0483
 1152ERGO    R316278   7.842   8.068   6.627  0.1013 -0.1108  0.1103
 1152ERGO    R416279   7.747   7.810   6.731 -0.3765  0.0213  0.0094
 1152ERGO    R516280   7.641   8.001   6.740 -0.0311  0.2127  0.0726
 1152ERGO    C116281   7.664   7.919   7.112 -0.2035  0.0349  0.0451
 1152ERGO    C216282   7.563   7.599   7.277 -0.0905 -0.0852 -0.2315
 1153ERGO   ROH16283   9.026   7.372   6.028  0.0065  0.0258 -0.0037
 1153ERGO    R116284   8.872   7.375   6.266 -0.1627 -0.1435 -0.1073
 1153ERGO    R216285   8.750   7.150   6.367  0.1651 -0.3264 -0.0964
 1153ERGO    R316286   8.886   7.215   6.592 -0.0931  0.0161 -0.0321
 1153ERGO    R416287   8.644   7.081   6.689  0.0262 -0.2635 -0.1281
 1153ERGO    R516288   8.716   7.278   6.749 -0.2981 -0.1206 -0.1984
 1153ERGO    C116289   8.711   7.103   7.088 -0.2971  0.0947 -0.0861
 1153ERGO    C216290   8.759   6.868   7.435  0.1459  0.1759 -0.0262
 1154ERGO   ROH16291  18.393   0.475   5.973 -0.1211 -0.1866  0.0376
 1154ERGO    R116292  18.580   0.471   6.185 -0.0607 -0.1439 -0.0147
 1154ERGO    R216293  18.552   0.628   6.411  0.0367 -0.0513 -0.0665
 1154ERGO    R316294  18.576   0.390   6.540  0.0244 -0.0073  0.0182
 1154ERGO    R416295  18.634   0.592   6.745  0.1492  0.0582 -0.0810
 1154ERGO    R516296  18.760   0.422   6.691  0.0874  0.0059 -0.0609
 1154ERGO    C116297  18.704   0.347   7.061  0.2029  0.1633 -0.0100
 1154ERGO    C216298  18.690   0.133   7.398  0.2241  0.0203  0.0023
 1155ERGO   ROH16299  15.983   7.617   6.247 -0.3829  0.1042 -0.0374
 1155ERGO    R116300  16.117   7.753   6.456 -0.3695  0.1658 -0.0859
 1155ERGO    R216301  16.008   7.973   6.584 -0.4985  0.0171  0.0634
 1155ERGO    R316302  16.054   7.825   6.807 -0.1950 -0.0152 -0.0161
 1155ERGO    R416303  16.109   8.101   6.889 -0.4504  0.0206  0.0461
 1155ERGO    R516304  16.243   7.931   6.911 -0.2447  0.1576 -0.0976
 1155ERGO    C116305  16.211   8.037   7.276 -0.1374 -0.0077 -0.0386
 1155ERGO    C216306  16.242   8.081   7.615  0.2048 -0.2144 -0.0896
 1156ERGO   ROH16307   5.471   4.731   5.749 -0.2004  0.0188 -0.0620
 1156ERGO    R116308   5.465   4.705   6.030 -0.1886  0.0106 -0.0620
 1156ERGO    R216309   5.619   4.521   6.166 -0.2132 -0.0242 -0.0758
 1156ERGO    R316310   5.702   4.740   6.305 -0.1649 -0.0421 -0.0769
 1156ERGO    R416311   5.706   4.522   6.501 -0.3326 -0.0095 -0.0445
 1156ERGO    R516312   5.604   4.714   6.522 -0.2528  0.0364 -0.1093
 1156ERGO    C116313   5.835   4.728   6.826 -0.3569 -0.0178 -0.0274
 1156ERGO    C216314   5.845   4.917   7.188 -0.1378  0.3860  0.1631
 1157ERGO   ROH16315   4.044   5.688   5.942 -0.0417  0.0824 -0.0431
 1157ERGO    R116316   4.160   5.625   6.193  0.0642  0.1075 -0.0850
 1157ERGO    R216317   4.173   5.806   6.400 -0.0248  0.0683 -0.0439
 1157ERGO    R316318   4.048   5.609   6.539  0.1548 -0.0610 -0.0625
 1157ERGO    R416319   4.199   5.757   6.741 -0.1014  0.1553 -0.0252
 1157ERGO    R516320   4.207   5.542   6.705  0.1703  0.1561  0.0122
 1157ERGO    C116321   4.096   5.543   7.070  0.0227  0.0846 -0.0317
 1157ERGO    C216322   3.934   5.619   7.500  0.1073 -0.2467  0.0986
 1158ERGO   ROH16323  14.758  15.548   6.293 -0.0696  0.2037 -0.0593
 1158ERGO    R116324  14.862  15.437   6.532  0.0182  0.3798 -0.0139
 1158ERGO    R216325  14.920  15.590   6.755 -0.3171  0.4861  0.0059
 1158ERGO    R316326  14.757  15.411   6.879 -0.0816  0.2238 -0.0550
 1158ERGO    R416327  14.954  15.487   7.083 -0.2183  0.4639 -0.0112
 1158ERGO    R516328  14.905  15.285   7.019  0.0808  0.4033 -0.0610
 1158ERGO    C116329  14.822  15.259   7.390  0.0603  0.2049 -0.0784
 1158ERGO    C216330  14.815  14.990   7.543 -0.1160 -0.0634 -0.0895
 1159ERGO   ROH16331   2.002   1.143   5.953 -0.0490  0.1809  0.0622
 1159ERGO    R116332   2.150   1.194   6.189  0.1252 -0.0559  0.0068
 1159ERGO    R216333   2.029   1.247   6.431  0.3006  0.1481  0.0477
 1159ERGO    R316334   2.184   1.040   6.517 -0.0010 -0.1078 -0.0022
 1159ERGO    R416335   2.068   1.153   6.762  0.5121  0.3188  0.0740
 1159ERGO    R516336   2.279   1.119   6.722  0.4127 -0.1359 -0.1697
 1159ERGO    C116337   2.235   0.905   7.035  0.3521  0.1780  0.0424
 1159ERGO    C216338   2.369   0.653   7.240 -0.1707  0.0102  0.0847
 1160ERGO   ROH16339  15.025  10.409   6.385  0.1042 -0.1899 -0.1493
 1160ERGO    R116340  15.177  10.331   6.611  0.0492  0.0292 -0.0332
 1160ERGO    R216341  15.175  10.473   6.848 -0.1889  0.1335 -0.0931
 1160ERGO    R316342  15.109  10.231   6.954 -0.0536  0.1252 -0.0257
 1160ERGO    R416343  15.197  10.391   7.183  0.1547  0.1324 -0.1124
 1160ERGO    R516344  15.272  10.195   7.126  0.1220  0.1434 -0.1869
 1160ERGO    C116345  15.148  10.117   7.478  0.4818  0.1237 -0.0603
 1160ERGO    C216346  15.115  10.219   7.802  0.2742 -0.1008 -0.3243
 1161ERGO   ROH16347  12.163   9.353   6.151  0.1861 -0.0635  0.0697
 1161ERGO    R116348  12.079   9.356   6.421  0.1064 -0.1514  0.0463
 1161ERGO    R216349  12.223   9.235   6.624  0.1896  0.0152  0.0884
 1161ERGO    R316350  12.209   9.482   6.737 -0.1210  0.0058  0.0795
 1161ERGO    R416351  12.285   9.303   6.957  0.4771  0.1559  0.0105
 1161ERGO    R516352  12.117   9.442   6.955  0.2137 -0.1467  0.1997
 1161ERGO    C116353  12.307   9.574   7.258  0.3529  0.2291 -0.0433
 1161ERGO    C216354  12.419   9.500   7.592 -0.0171  0.1766 -0.0058
 1162ERGO   ROH16355   6.151   1.690   7.608  0.1909  0.0454 -0.2887
 1162ERGO    R116356   6.406   1.712   7.727  0.1571 -0.1257 -0.1822
 1162ERGO    R216357   6.447   1.834   7.972  0.1542 -0.0326 -0.2279
 1162ERGO    R316358   6.565   1.597   8.034 -0.0892 -0.1112 -0.0466
 1162ERGO    R416359   6.642   1.778   8.251  0.0788 -0.0282 -0.1738
 1162ERGO    R516360   6.777   1.659   8.128 -0.0311 -0.2568 -0.0790
 1162ERGO    C116361   6.867   1.524   8.472 -0.1935 -0.0993  0.0278
 1162ERGO    C216362   7.023   1.441   8.775 -0.0367 -0.0978  0.0967
 1163ERGO   ROH16363  14.101  12.544   6.306  0.1714 -0.0989 -0.0203
 1163ERGO    R116364  13.916  12.570   6.518  0.0434  0.0081 -0.1435
 1163ERGO    R216365  13.680  12.426   6.527  0.1201 -0.1216 -0.1267
 1163ERGO    R316366  13.772  12.352   6.772  0.0378  0.1780  0.0000
 1163ERGO    R416367  13.524  12.200   6.736  0.3465 -0.3039 -0.1517
 1163ERGO    R516368  13.574  12.328   6.905 -0.0450 -0.1163 -0.1697
 1163ERGO    C116369  13.520  11.998   7.088  0.4009 -0.1290 -0.0474
 1163ERGO    C216370  13.546  11.896   7.382  0.3834  0.2387  0.3329
 1164ERGO   ROH16371   9.377  12.645   6.478 -0.3907  0.2266  0.0597
 1164ERGO    R116372   9.388  12.801   6.714 -0.3171  0.1355  0.1169
 1164ERGO    R216373   9.338  12.695   6.964 -0.0416 -0.0075  0.1149
 1164ERGO    R316374   9.582  12.800   7.022 -0.0699  0.1460 -0.0346
 1164ERGO    R416375   9.435  12.807   7.276  0.0464  0.1345  0.0377
 1164ERGO    R516376   9.535  12.975   7.180 -0.0932  0.1656 -0.0607
 1164ERGO    C116377   9.721  12.970   7.513  0.0711  0.3614 -0.1475
 1164ERGO    C216378   9.737  12.788   7.810  0.1708  0.4104 -0.0352
 1165ERGO   ROH16379   2.616  14.181   6.026  0.1989  0.1143  0.0778
 1165ERGO    R116380   2.655  14.283   6.288  0.2204  0.0195  0.1112
 1165ERGO    R216381   2.445  14.336   6.460  0.2240  0.1445  0.0733
 1165ERGO    R316382   2.584  14.173   6.627  0.0554 -0.0065  0.0699
 1165ERGO    R416383   2.422  14.341   6.805  0.3692  0.3009  0.0826
 1165ERGO    R516384   2.638  14.312   6.815  0.3381 -0.0145  0.0017
 1165ERGO    C116385   2.539  14.191   7.162  0.2955  0.2503  0.0848
 1165ERGO    C216386   2.469  14.144   7.366 -0.2506 -0.0687  0.3737
 1166ERGO   ROH16387  18.274  11.922   5.730  0.0053  0.3647 -0.0294
 1166ERGO    R116388  18.278  11.743   5.949 -0.0465  0.2636 -0.1099
 1166ERGO    R216389  18.498  11.714   6.113 -0.0308  0.0782 -0.1597
 1166ERGO    R316390  18.318  11.768   6.310  0.0299  0.0823 -0.1055
 1166ERGO    R416391  18.570  11.716   6.451  0.0268 -0.1035 -0.1700
 1166ERGO    R516392  18.378  11.619   6.488 -0.0140 -0.0237 -0.1800
 1166ERGO    C116393  18.443  11.768   6.833  0.1177 -0.2054 -0.1251
 1166ERGO    C216394  18.591  12.047   7.061 -0.0392  0.1547  0.0507
 1167ERGO   ROH16395  14.137  14.323   6.179 -0.0604 -0.0405  0.1415
 1167ERGO    R116396  14.222  14.515   6.369  0.0005  0.1117 -0.0359
 1167ERGO    R216397  14.065  14.728   6.447 -0.1326 -0.0421  0.1234
 1167ERGO    R316398  14.112  14.630   6.696  0.3356  0.0795  0.0932
 1167ERGO    R416399  14.033  14.908   6.740 -0.0828 -0.0346  0.1244
 1167ERGO    R516400  14.213  14.812   6.814  0.1777  0.2795 -0.0691
 1167ERGO    C116401  14.058  14.921   7.144  0.3857  0.0838  0.0966
 1167ERGO    C216402  13.819  14.975   7.477 -0.1390  0.3346 -0.0740
 1168ERGO   ROH16403   8.293  16.418   6.167  0.1628 -0.0754  0.0509
 1168ERGO    R116404   8.388  16.444   6.432 -0.0798 -0.0034  0.1328
 1168ERGO    R216405   8.223  16.423   6.652 -0.2372 -0.2184 -0.0043
 1168ERGO    R316406   8.403  16.234   6.729 -0.0853 -0.0286  0.1157
 1168ERGO    R416407   8.325  16.370   6.978 -0.3380 -0.0586  0.0551
 1168ERGO    R516408   8.528  16.341   6.904 -0.2711  0.1283  0.1575
 1168ERGO    C116409   8.553  16.162   7.241 -0.2541  0.2127  0.2024
 1168ERGO    C216410   8.712  16.029   7.552  0.3019 -0.1410  0.0496
 1169ERGO   ROH16411  16.975  11.999   5.864 -0.2116 -0.0315  0.0525
 1169ERGO    R116412  17.011  11.930   6.136 -0.1447  0.0218  0.0572
 1169ERGO    R216413  17.261  11.914   6.254 -0.1099 -0.0448 -0.0255
 1169ERGO    R316414  17.151  12.087   6.433  0.0183  0.0414 -0.0289
 1169ERGO    R416415  17.362  11.949   6.582 -0.1086 -0.1451 -0.0150
 1169ERGO    R516416  17.153  11.967   6.640 -0.1013  0.0294 -0.0335
 1169ERGO    C116417  17.319  12.132   6.942  0.0125 -0.1225 -0.0119
 1169ERGO    C216418  17.170  12.218   7.252  0.0201 -0.0494 -0.4448
 1170ERGO   ROH16419   6.074  18.655   6.010  0.0396  0.2232 -0.0701
 1170ERGO    R116420   5.877  18.701   6.208 -0.0499 -0.1058 -0.0764
 1170ERGO    R216421   5.844  18.536   6.427  0.3258 -0.0812  0.0065
 1170ERGO    R316422   5.872  18.768   6.566 -0.1584  0.0556 -0.1073
 1170ERGO    R416423   5.810  18.567   6.769  0.4030 -0.0134  0.0081
 1170ERGO    R516424   5.705  18.755   6.737 -0.0605 -0.2643 -0.0306
 1170ERGO    C116425   5.817  18.803   7.099 -0.0066  0.1548 -0.0978
 1170ERGO    C216426   5.801  19.090   7.396 -0.0760  0.1768  0.1697
 1171ERGO   ROH16427  10.277  13.546   6.472  0.2036 -0.0789  0.0764
 1171ERGO    R116428  10.384  13.473   6.723  0.0159 -0.0592  0.1635
 1171ERGO    R216429  10.373  13.638   6.944 -0.0423  0.0048  0.1060
 1171ERGO    R316430  10.257  13.421   7.060 -0.2112  0.0924  0.1057
 1171ERGO    R416431  10.315  13.602   7.283  0.1874 -0.0437  0.1412
 1171ERGO    R516432  10.376  13.393   7.266 -0.0692 -0.1216  0.0069
 1171ERGO    C116433  10.173  13.378   7.589  0.1626  0.0102  0.1614
 1171ERGO    C216434  10.059  13.307   7.940 -0.0213  0.2796 -0.1618
 1172ERGO   ROH16435  11.945   4.146   5.990 -0.0301 -0.1690  0.2600
 1172ERGO    R116436  11.943   4.116   6.271  0.1004 -0.1672  0.2605
 1172ERGO    R216437  12.123   3.954   6.405  0.3231  0.0361  0.1978
 1172ERGO    R316438  12.172   4.181   6.546  0.1234  0.0909  0.1861
 1172ERGO    R416439  12.190   3.966   6.744  0.5985  0.0600  0.1455
 1172ERGO    R516440  12.066   4.145   6.757  0.3469 -0.1053  0.2776
 1172ERGO    C116441  12.276   4.186   7.073  0.5715  0.1254  0.1042
 1172ERGO    C216442  12.581   4.298   7.210  0.0097  0.0169  0.1248
 1173ERGO   ROH16443  15.303  14.628   6.578 -0.0165  0.0529 -0.1205
 1173ERGO    R116444  15.099  14.462   6.683  0.0412 -0.1039 -0.2494
 1173ERGO    R216445  15.147  14.205   6.774  0.2130 -0.0152 -0.0733
 1173ERGO    R316446  15.029  14.298   7.001 -0.1134 -0.0166 -0.2384
 1173ERGO    R416447  15.084  14.015   7.055  0.1699  0.0813 -0.0178
 1173ERGO    R516448  14.891  14.116   7.074  0.0307 -0.1333 -0.2611
 1173ERGO    C116449  14.935  13.991   7.432 -0.1615  0.1363 -0.1404
 1173ERGO    C216450  14.900  13.946   7.775  0.0167  0.0059  0.0539
 1174ERGO   ROH16451  12.904  16.489   6.489 -0.0836  0.1806  0.0379
 1174ERGO    R116452  12.788  16.601   6.722  0.0489  0.3299  0.0337
 1174ERGO    R216453  12.726  16.449   6.945 -0.3524  0.3632 -0.0489
 1174ERGO    R316454  12.879  16.632   7.073 -0.0186  0.0053  0.0830
 1174ERGO    R416455  12.731  16.498   7.287 -0.3282  0.1836 -0.0219
 1174ERGO    R516456  12.741  16.712   7.251  0.0968  0.1883  0.0906
 1174ERGO    C116457  12.878  16.699   7.607 -0.0008 -0.2570  0.1176
 1174ERGO    C216458  13.051  16.601   7.902 -0.1134 -0.0955  0.0180
 1175ERGO   ROH16459   3.132   2.321   5.917  0.1852  0.3593 -0.0491
 1175ERGO    R116460   3.024   2.417   6.161  0.0623  0.1736 -0.0281
 1175ERGO    R216461   2.959   2.250   6.371  0.0639  0.0231 -0.1428
 1175ERGO    R316462   3.121   2.417   6.511 -0.0530  0.0145  0.0042
 1175ERGO    R416463   2.956   2.286   6.715 -0.0580 -0.1696 -0.1224
 1175ERGO    R516464   2.982   2.501   6.687 -0.1420 -0.1444  0.0085
 1175ERGO    C116465   3.105   2.464   7.047 -0.2387 -0.2899  0.0274
 1175ERGO    C216466   3.162   2.390   7.401 -0.1356 -0.1587 -0.2582
 1176ERGO   ROH16467   7.282  17.930   6.275  0.1114 -0.2420 -0.0450
 1176ERGO    R116468   7.253  17.997   6.548 -0.1474 -0.1039 -0.1037
 1176ERGO    R216469   7.036  17.916   6.700 -0.0505 -0.4469 -0.1484
 1176ERGO    R316470   7.230  17.817   6.864  0.0893  0.0655  0.0146
 1176ERGO    R416471   6.998  17.859   7.038 -0.1423 -0.4167 -0.1527
 1176ERGO    R516472   7.199  17.936   7.069 -0.3315  0.0784 -0.0434
 1176ERGO    C116473   7.157  17.733   7.389 -0.0645  0.0821 -0.0022
 1176ERGO    C216474   7.099  17.481   7.696 -0.1827  0.0824 -0.0024
 1177ERGO   ROH16475  15.488  13.234   6.220  0.2044 -0.3674  0.0893
 1177ERGO    R116476  15.392  13.252   6.486  0.1284 -0.1887  0.0514
 1177ERGO    R216477  15.313  13.031   6.631  0.1884 -0.1059  0.2156
 1177ERGO    R316478  15.493  13.126   6.812  0.1022  0.1235  0.1832
 1177ERGO    R416479  15.305  12.967   6.971  0.1790  0.1141  0.2581
 1177ERGO    R516480  15.362  13.174   7.006  0.0453  0.1718  0.1314
 1177ERGO    C116481  15.468  13.019   7.338  0.0925  0.4576  0.2525
 1177ERGO    C216482  15.402  12.859   7.622  0.2302 -0.0327  0.1065
 1178ERGO   ROH16483   1.471   2.543   5.855  0.1414 -0.1486 -0.0930
 1178ERGO    R116484   1.420   2.488   6.128 -0.0469 -0.0697 -0.1113
 1178ERGO    R216485   1.623   2.453   6.313 -0.1738 -0.1006  0.0206
 1178ERGO    R316486   1.490   2.649   6.447 -0.1876 -0.0238 -0.1027
 1178ERGO    R416487   1.605   2.480   6.657 -0.0780  0.1809  0.0066
 1178ERGO    R516488   1.396   2.538   6.637 -0.1011  0.1066  0.0197
 1178ERGO    C116489   1.469   2.680   6.983 -0.0352  0.4169 -0.1171
 1178ERGO    C216490   1.439   2.700   7.297 -0.3211 -0.0222  0.3355
 1179ERGO   ROH16491   9.116   1.993   5.863  0.0777 -0.1058  0.0308
 1179ERGO    R116492   9.094   2.189   6.065  0.1762 -0.0603 -0.0035
 1179ERGO    R216493   8.924   2.163   6.282  0.1352  0.0800 -0.0224
 1179ERGO    R316494   9.151   2.206   6.425  0.1438 -0.0362  0.0017
 1179ERGO    R416495   8.936   2.213   6.623  0.1185  0.0710 -0.0198
 1179ERGO    R516496   9.088   2.366   6.590  0.2029 -0.0022 -0.0038
 1179ERGO    C116497   9.157   2.283   6.956  0.1170 -0.0433  0.0045
 1179ERGO    C216498   9.333   2.208   7.228  0.0019  0.0564 -0.3592
 1180ERGO   ROH16499   3.376  14.940   5.827 -0.0124  0.0837 -0.1150
 1180ERGO    R116500   3.373  14.953   6.110 -0.1261 -0.0175 -0.1102
 1180ERGO    R216501   3.381  15.193   6.248  0.0119 -0.0713 -0.0198
 1180ERGO    R316502   3.156  15.096   6.366 -0.1237  0.0694 -0.1565
 1180ERGO    R416503   3.264  15.288   6.559 -0.0369 -0.1101 -0.0261
 1180ERGO    R516504   3.213  15.080   6.598 -0.2343 -0.0843 -0.1390
 1180ERGO    C116505   2.986  15.252   6.851 -0.1926 -0.0006 -0.1582
 1180ERGO    C216506   2.805  15.173   7.118  0.2505 -0.2196  0.0852
 1181ERGO   ROH16507  12.852  12.396   6.487 -0.0529 -0.3567 -0.2878
 1181ERGO    R116508  12.902  12.319   6.755 -0.1539 -0.1937 -0.2185
 1181ERGO    R216509  12.757  12.121   6.884 -0.1363 -0.1969 -0.1821
 1181ERGO    R316510  13.003  12.016   6.928 -0.1089 -0.0606 -0.0136
 1181ERGO    R416511  12.833  11.894   7.133 -0.1442 -0.0843 -0.0782
 1181ERGO    R516512  13.020  12.000   7.166 -0.2237  0.0143 -0.0074
 1181ERGO    C116513  13.109  11.662   7.319 -0.1231  0.1092  0.1405
 1181ERGO    C216514  13.360  11.523   7.608 -0.0653 -0.0529 -0.2421
 1182ERGO   ROH16515   3.786  17.030   5.615 -0.3099  0.0652 -0.0666
 1182ERGO    R116516   3.910  17.005   5.868 -0.1724 -0.0553 -0.1438
 1182ERGO    R216517   4.182  17.039   5.904 -0.1717  0.0752 -0.2494
 1182ERGO    R316518   4.102  17.220   6.091 -0.1898 -0.1117 -0.0747
 1182ERGO    R416519   4.362  17.122   6.188 -0.0235  0.0577 -0.3379
 1182ERGO    R516520   4.174  17.125   6.299  0.0581 -0.1788 -0.1878
 1182ERGO    C116521   4.390  17.340   6.528  0.0456 -0.1280 -0.2254
 1182ERGO    C216522   4.500  17.500   6.795 -0.1369  0.1081  0.0419
 1183ERGO   ROH16523   9.961   6.610   6.327 -0.1260  0.0929 -0.3314
 1183ERGO    R116524   9.712   6.648   6.456 -0.1631  0.0786 -0.3969
 1183ERGO    R216525   9.488   6.498   6.394 -0.0855 -0.0826 -0.3085
 1183ERGO    R316526   9.487   6.448   6.661 -0.0936  0.1343 -0.2662
 1183ERGO    R416527   9.229   6.347   6.566 -0.1298  0.1456 -0.1715
 1183ERGO    R516528   9.262   6.488   6.729 -0.0755  0.2666 -0.2879
 1183ERGO    C116529   9.078   6.211   6.917 -0.1632  0.4821 -0.0521
 1183ERGO    C216530   8.812   6.058   7.226  0.1084  0.0221 -0.1621
 1184ERGO   ROH16531   1.191  13.770   6.142 -0.0137 -0.2726  0.0017
 1184ERGO    R116532   1.312  13.789   6.397  0.0281 -0.1846 -0.0245
 1184ERGO    R216533   1.524  13.959   6.449  0.0130 -0.1404 -0.1089
 1184ERGO    R316534   1.362  14.048   6.648  0.0356 -0.1077 -0.1046
 1184ERGO    R416535   1.627  14.152   6.716  0.0038  0.0822 -0.2637
 1184ERGO    R516536   1.497  14.035   6.845  0.1152  0.0883 -0.1436
 1184ERGO    C116537   1.534  14.349   7.058  0.0197  0.2425 -0.3499
 1184ERGO    C216538   1.642  14.497   7.285 -0.2506  0.2954 -0.3135
 1185ERGO   ROH16539   6.486   5.818   6.001 -0.0204  0.0870  0.1312
 1185ERGO    R116540   6.622   5.656   6.189 -0.0489  0.0369  0.1077
 1185ERGO    R216541   6.875   5.716   6.282  0.0006 -0.0721  0.0417
 1185ERGO    R316542   6.755   5.695   6.525  0.0506 -0.0030  0.0735
 1185ERGO    R416543   7.042   5.712   6.585  0.0746 -0.1603  0.0011
 1185ERGO    R516544   6.904   5.558   6.653  0.0070 -0.0839  0.0379
 1185ERGO    C116545   7.027   5.690   6.989  0.1647 -0.1469  0.0072
 1185ERGO    C216546   6.954   5.587   7.430 -0.0231  0.1089 -0.0350
 1186ERGO   ROH16547   5.452  16.910   6.038  0.0405 -0.0185  0.0563
 1186ERGO    R116548   5.463  16.906   6.321 -0.0382 -0.0534  0.0602
 1186ERGO    R216549   5.257  17.000   6.479 -0.0212  0.0719  0.0173
 1186ERGO    R316550   5.272  16.752   6.591 -0.2170  0.0480 -0.0081
 1186ERGO    R416551   5.180  16.927   6.808  0.2873  0.1709  0.1138
 1186ERGO    R516552   5.352  16.792   6.813  0.1149 -0.0623 -0.1043
 1186ERGO    C116553   5.150  16.652   7.104  0.2832  0.2062  0.1462
 1186ERGO    C216554   5.105  16.372   7.189 -0.1436 -0.0608 -0.0095
 1187ERGO   ROH16555   9.033  14.087   6.363 -0.0664  0.2614 -0.0957
 1187ERGO    R116556   8.916  14.225   6.580 -0.0879  0.2346 -0.0888
 1187ERGO    R216557   8.824  14.097   6.808 -0.1441  0.2012 -0.1244
 1187ERGO    R316558   8.989  14.272   6.934 -0.1413  0.1567 -0.0686
 1187ERGO    R416559   8.871  14.114   7.150 -0.0048 -0.0206 -0.1309
 1187ERGO    R516560   8.872  14.331   7.134 -0.0705 -0.0131  0.0205
 1187ERGO    C116561   9.053  14.289   7.467  0.0787 -0.1914 -0.0824
 1187ERGO    C216562   9.121  14.435   7.790 -0.0280  0.0627  0.3220
 1188ERGO   ROH16563   1.716   8.244   5.873  0.1625  0.2180  0.0816
 1188ERGO    R116564   1.560   8.455   5.979  0.0372  0.1274  0.0753
 1188ERGO    R216565   1.362   8.583   5.833 -0.0285  0.0028  0.0710
 1188ERGO    R316566   1.207   8.516   6.046 -0.0031 -0.0756  0.0727
 1188ERGO    R416567   1.084   8.758   5.937 -0.0592 -0.0669  0.1144
 1188ERGO    R516568   1.146   8.726   6.144 -0.0360 -0.0957  0.1160
 1188ERGO    C116569   0.775   8.797   6.198 -0.0532 -0.1811  0.1411
 1188ERGO    C216570   0.426   8.721   6.294 -0.2181 -0.4514 -0.0622
 1189ERGO   ROH16571   5.257  11.121   5.996 -0.0069  0.0534  0.2244
 1189ERGO    R116572   5.351  11.111   6.263 -0.0691  0.0592  0.2481
 1189ERGO    R216573   5.190  11.165   6.480 -0.1532 -0.0479  0.2203
 1189ERGO    R316574   5.275  10.921   6.563 -0.0590 -0.0220  0.1978
 1189ERGO    R416575   5.216  11.067   6.810 -0.3091 -0.1461  0.2034
 1189ERGO    R516576   5.402  10.966   6.761 -0.2183 -0.0134  0.2952
 1189ERGO    C116577   5.311  10.780   7.081 -0.3114 -0.1792  0.1725
 1189ERGO    C216578   5.234  10.615   7.455  0.0475 -0.0613  0.2346
 1190ERGO   ROH16579   1.363   9.773   5.959  0.2282  0.0847 -0.1915
 1190ERGO    R116580   1.322   9.768   6.239  0.0629  0.0228 -0.2161
 1190ERGO    R216581   1.504   9.874   6.418 -0.0056 -0.0864 -0.0818
 1190ERGO    R316582   1.287  10.013   6.505 -0.0104 -0.0373 -0.1694
 1190ERGO    R416583   1.482  10.034   6.724 -0.0561 -0.0017 -0.1290
 1190ERGO    R516584   1.276   9.964   6.740 -0.0693  0.0260 -0.1576
 1190ERGO    C116585   1.265  10.257   6.984 -0.0900  0.0938 -0.2386
 1190ERGO    C216586   1.155  10.395   7.238 -0.2717 -0.0099  0.3324
 1191ERGO   ROH16587  14.781   6.338   6.086  0.0347 -0.0425  0.0063
 1191ERGO    R116588  14.829   6.276   6.358 -0.1536 -0.0055  0.0507
 1191ERGO    R216589  14.627   6.216   6.535 -0.2654 -0.1801 -0.1273
 1191ERGO    R316590  14.774   5.992   6.578 -0.1119 -0.0572 -0.0060
 1191ERGO    R416591  14.617   6.027   6.824 -0.1742 -0.0631 -0.0479
 1191ERGO    R516592  14.834   6.004   6.810 -0.1567  0.0849 -0.0030
 1191ERGO    C116593  14.750   5.706   7.033  0.0228  0.1204  0.1122
 1191ERGO    C216594  14.656   5.507   7.219  0.1683  0.0735  0.0056
 1192ERGO   ROH16595  17.123   1.667   6.027  0.2018  0.0803  0.0462
 1192ERGO    R116596  17.279   1.738   6.253  0.1534  0.2878  0.0175
 1192ERGO    R216597  17.367   1.997   6.297 -0.0436  0.3813 -0.0802
 1192ERGO    R316598  17.245   1.962   6.537 -0.0182  0.3714 -0.0702
 1192ERGO    R416599  17.400   2.208   6.568 -0.0775  0.3976 -0.0900
 1192ERGO    R516600  17.407   2.034   6.698 -0.0315  0.4135 -0.0837
 1192ERGO    C116601  17.305   2.300   6.952 -0.0733  0.3978 -0.0862
 1192ERGO    C216602  17.211   2.311   7.407  0.3541  0.0111  0.0872
 1193ERGO   ROH16603   3.821   3.106   5.787  0.1394 -0.0978 -0.1328
 1193ERGO    R116604   3.713   3.062   6.045  0.1029 -0.0857 -0.1461
 1193ERGO    R216605   3.868   2.979   6.259  0.1020  0.0736 -0.0831
 1193ERGO    R316606   3.763   3.199   6.379 -0.0629  0.0459 -0.1738
 1193ERGO    R416607   3.896   3.054   6.595 -0.2032  0.0871 -0.0577
 1193ERGO    R516608   3.690   3.121   6.593 -0.2222  0.0282 -0.2333
 1193ERGO    C116609   3.814   3.304   6.903 -0.5357  0.0690 -0.1280
 1193ERGO    C216610   4.090   3.430   7.079 -0.2817  0.0339  0.0868
 1194ERGO   ROH16611   5.409  15.363   6.267  0.0404 -0.1721 -0.0288
 1194ERGO    R116612   5.501  15.393   6.533 -0.0077 -0.0154 -0.0281
 1194ERGO    R216613   5.351  15.514   6.731 -0.1307 -0.0843 -0.0759
 1194ERGO    R316614   5.397  15.281   6.863  0.0561 -0.0094 -0.0066
 1194ERGO    R416615   5.359  15.481   7.075 -0.0865  0.0210 -0.0667
 1194ERGO    R516616   5.529  15.346   7.052  0.0155  0.1464 -0.0329
 1194ERGO    C116617   5.408  15.244   7.400  0.1145  0.1527  0.0037
 1194ERGO    C216618   5.080  15.219   7.673  0.2028  0.0370 -0.0801
 1195ERGO   ROH16619   9.268   5.221   5.796 -0.1635  0.1446  0.0132
 1195ERGO    R116620   9.199   5.303   6.058 -0.0657  0.1121  0.0491
 1195ERGO    R216621   9.243   5.143   6.280 -0.0074  0.0743  0.0087
 1195ERGO    R316622   9.375   5.363   6.371  0.0464  0.0462 -0.0003
 1195ERGO    R416623   9.372   5.179   6.599 -0.0818  0.0886  0.0376
 1195ERGO    R516624   9.304   5.386   6.598 -0.0091  0.1152 -0.0227
 1195ERGO    C116625   9.571   5.407   6.869 -0.0746  0.0705  0.0459
 1195ERGO    C216626   9.679   5.561   7.115 -0.5008 -0.0022 -0.1466
 1196ERGO   ROH16627  14.313   7.535   5.966 -0.4188  0.0241  0.0621
 1196ERGO    R116628  14.308   7.583   6.245 -0.3446  0.0577  0.0577
 1196ERGO    R216629  14.166   7.424   6.421 -0.0082 -0.1397  0.1573
 1196ERGO    R316630  14.407   7.403   6.546  0.0954  0.2499  0.0363
 1196ERGO    R416631  14.213   7.442   6.763  0.0600 -0.4859  0.1700
 1196ERGO    R516632  14.393   7.560   6.727 -0.2136 -0.0097  0.2518
 1196ERGO    C116633  14.465   7.433   7.079  0.1970 -0.3217  0.0638
 1196ERGO    C216634  14.570   7.534   7.360  0.1693  0.0611 -0.0317
 1197ERGO   ROH16635  14.459  13.096   6.145 -0.0168 -0.3270 -0.1080
 1197ERGO    R116636  14.353  12.948   6.362  0.1319 -0.3688 -0.0647
 1197ERGO    R216637  14.503  12.763   6.502  0.4019  0.0140  0.1562
 1197ERGO    R316638  14.426  12.912   6.717 -0.0067  0.0258  0.0121
 1197ERGO    R416639  14.429  12.636   6.815  0.2505  0.0554  0.1395
 1197ERGO    R516640  14.263  12.776   6.828  0.0462 -0.1409 -0.0944
 1197ERGO    C116641  14.314  12.701   7.199 -0.2212  0.0905 -0.0055
 1197ERGO    C216642  14.373  12.584   7.580 -0.0566  0.2623  0.3209
 1198ERGO   ROH16643   9.706  11.854   6.101 -0.0293  0.0448  0.1548
 1198ERGO    R116644   9.710  11.687   6.330 -0.0615 -0.1378  0.0257
 1198ERGO    R216645   9.722  11.788   6.587  0.3316 -0.3432  0.1020
 1198ERGO    R316646   9.500  11.634   6.622  0.1279 -0.0386  0.1808
 1198ERGO    R416647   9.644  11.618   6.878  0.2172 -0.2762  0.1100
 1198ERGO    R516648   9.576  11.450   6.756 -0.0744 -0.1654  0.1197
 1198ERGO    C116649   9.390  11.376   7.081 -0.0404  0.0487  0.1887
 1198ERGO    C216650   9.292  11.308   7.434  0.0828  0.0126 -0.1777
 1199ERGO   ROH16651   5.686  17.258   5.876  0.2467  0.2359  0.0579
 1199ERGO    R116652   5.774  17.473   6.037  0.0518  0.2934  0.0898
 1199ERGO    R216653   5.666  17.727   6.018 -0.1508  0.2105  0.0988
 1199ERGO    R316654   5.626  17.695   6.285 -0.1622  0.1530  0.0902
 1199ERGO    R416655   5.650  17.985   6.247 -0.1991  0.1626  0.1497
 1199ERGO    R516656   5.765  17.862   6.386 -0.1913  0.1512  0.1318
 1199ERGO    C116657   5.603  18.106   6.631 -0.2380  0.0806  0.1714
 1199ERGO    C216658   5.607  18.205   7.023 -0.1037  0.2385  0.2839
 1200ERGO   ROH16659  11.913   0.080   6.209 -0.0927 -0.0766  0.0698
 1200ERGO    R116660  11.754   0.087   6.443  0.1194 -0.0598  0.2168
 1200ERGO    R216661  11.837   0.210   6.676  0.1666  0.3250  0.0049
 1200ERGO    R316662  11.601   0.344   6.652 -0.0631 -0.0516  0.0764
 1200ERGO    R416663  11.706   0.424   6.914  0.0199  0.3041 -0.0558
 1200ERGO    R516664  11.509   0.341   6.873  0.1076 -0.0335  0.1518
 1200ERGO    C116665  11.409   0.675   7.029 -0.2812 -0.0616 -0.0240
 1200ERGO    C216666  11.390   0.891   7.306 -0.2227 -0.0905 -0.1372
 1201ERGO   ROH16667  13.434  17.330   6.476 -0.3746 -0.1447 -0.0010
 1201ERGO    R116668  13.415  17.277   6.753 -0.5474 -0.0613  0.0024
 1201ERGO    R216669  13.569  17.409   6.941 -0.1139 -0.5243 -0.0204
 1201ERGO    R316670  13.327  17.463   7.053  0.0392  0.2649 -0.0082
 1201ERGO    R416671  13.509  17.428   7.281 -0.0864 -0.8117  0.0045
 1201ERGO    R516672  13.320  17.324   7.248 -0.5308 -0.0428 -0.2127
 1201ERGO    C116673  13.247  17.490   7.584  0.0735 -0.2382  0.0304
 1201ERGO    C216674  13.388  17.480   7.885 -0.2953  0.1746  0.1759
 1202ERGO   ROH16675  12.985  12.073   6.227  0.0564  0.1133  0.0160
 1202ERGO    R116676  13.000  11.925   6.468 -0.0117  0.1336  0.0333
 1202ERGO    R216677  13.094  11.666   6.477 -0.1126  0.0947  0.0660
 1202ERGO    R316678  13.262  11.768   6.665 -0.0804  0.0537  0.0594
 1202ERGO    R416679  13.247  11.481   6.726 -0.0268  0.0390 -0.0272
 1202ERGO    R516680  13.209  11.646   6.864 -0.0135 -0.0135  0.0329
 1202ERGO    C116681  13.493  11.470   7.048  0.0533 -0.0320 -0.0876
 1202ERGO    C216682  13.722  11.343   7.323  0.0970 -0.2388 -0.0996
 1203ERGO   ROH16683  15.330   9.949   6.147 -0.0654  0.1054  0.0898
 1203ERGO    R116684  15.181   9.889   6.380 -0.0206 -0.0848  0.0720
 1203ERGO    R216685  15.226   9.662   6.531  0.2370 -0.0440  0.0685
 1203ERGO    R316686  15.252   9.841   6.734  0.0029 -0.0165  0.0758
 1203ERGO    R416687  15.246   9.579   6.866  0.0312 -0.0035  0.0915
 1203ERGO    R516688  15.118   9.750   6.911 -0.0820 -0.0629 -0.0148
 1203ERGO    C116689  15.282   9.699   7.252 -0.3084  0.0458  0.1116
 1203ERGO    C216690  15.235   9.591   7.508  0.1342 -0.1310 -0.1893
 1204ERGO   ROH16691   4.516  15.675   6.129  0.0593  0.2464  0.0497
 1204ERGO    R116692   4.379  15.662   6.377 -0.0982  0.0075 -0.0453
 1204ERGO    R216693   4.286  15.425   6.483  0.1694 -0.1520 -0.1513
 1204ERGO    R316694   4.431  15.503   6.700 -0.0881  0.0276 -0.0379
 1204ERGO    R416695   4.250  15.297   6.802  0.0453 -0.1480 -0.1632
 1204ERGO    R516696   4.275  15.499   6.881 -0.2313 -0.1124 -0.1644
 1204ERGO    C116697   4.365  15.296   7.191 -0.2687  0.0230 -0.0636
 1204ERGO    C216698   4.611  15.140   7.466  0.1300  0.0823 -0.2269
 1205ERGO   ROH16699  16.427   3.067   6.134 -0.0087 -0.0687  0.0341
 1205ERGO    R116700  16.327   2.910   6.347 -0.0480 -0.0568  0.0237
 1205ERGO    R216701  16.478   2.850   6.571 -0.0894 -0.0473  0.0505
 1205ERGO    R316702  16.264   2.956   6.702 -0.1111 -0.0406  0.0114
 1205ERGO    R416703  16.387   2.773   6.896 -0.0501  0.0787  0.0927
 1205ERGO    R516704  16.179   2.774   6.832 -0.0562 -0.0055  0.1012
 1205ERGO    C116705  16.134   2.827   7.207 -0.0474  0.1584  0.0806
 1205ERGO    C216706  16.111   2.749   7.489 -0.0440 -0.0312 -0.0511
 1206ERGO   ROH16707  15.954   9.052   6.070  0.1413  0.3830 -0.0601
 1206ERGO    R116708  16.027   8.910   6.303  0.0424  0.1585 -0.1634
 1206ERGO    R216709  16.264   8.769   6.324  0.0140  0.1006 -0.2124
 1206ERGO    R316710  16.298   8.921   6.547 -0.0339 -0.1049 -0.0629
 1206ERGO    R416711  16.474   8.690   6.587  0.0333 -0.0937 -0.2849
 1206ERGO    R516712  16.321   8.762   6.724  0.0107 -0.2717 -0.2160
 1206ERGO    C116713  16.628   8.787   6.949 -0.0002 -0.3999 -0.1868
 1206ERGO    C216714  16.753   8.807   7.231  0.2196  0.0970 -0.0787
 1207ERGO   ROH16715  16.996  14.846   6.321 -0.0289  0.0466  0.0402
 1207ERGO    R116716  17.067  14.807   6.592 -0.1939  0.0391  0.0836
 1207ERGO    R216717  17.300  14.910   6.700 -0.0909 -0.2461  0.1417
 1207ERGO    R316718  17.129  15.019   6.881 -0.0187  0.0570  0.0339
 1207ERGO    R416719  17.381  14.989   7.027 -0.1083 -0.2003  0.1355
 1207ERGO    R516720  17.186  14.914   7.088 -0.2279  0.0767  0.1028
 1207ERGO    C116721  17.268  15.137   7.387 -0.0504  0.1108  0.0306
 1207ERGO    C216722  17.488  15.198   7.723  0.0583  0.0826 -0.0335
 1208ERGO   ROH16723  11.187  16.563   6.649 -0.0901 -0.0623  0.0003
 1208ERGO    R116724  11.223  16.516   6.926 -0.1930 -0.0264  0.0205
 1208ERGO    R216725  11.020  16.423   7.088 -0.2444 -0.0474 -0.0499
 1208ERGO    R316726  11.201  16.231   7.150 -0.2320 -0.0072  0.0392
 1208ERGO    R416727  11.016  16.237   7.379 -0.2709  0.0249 -0.0034
 1208ERGO    R516728  11.234  16.255   7.387 -0.2797  0.0548  0.0362
 1208ERGO    C116729  11.184  15.947   7.606 -0.2748  0.1045  0.1072
 1208ERGO    C216730  11.117  16.002   7.976 -0.0987 -0.3270 -0.2938
 1209ERGO   ROH16731  11.714  11.463   6.561  0.0009 -0.1430 -0.0675
 1209ERGO    R116732  11.571  11.315   6.755 -0.1212  0.0369 -0.0185
 1209ERGO    R216733  11.690  11.121   6.912 -0.2870 -0.0317  0.0205
 1209ERGO    R316734  11.586  11.267   7.116 -0.1388  0.1146 -0.0068
 1209ERGO    R416735  11.636  11.004   7.233 -0.2663  0.1266  0.0829
 1209ERGO    R516736  11.448  11.113   7.236 -0.2002  0.2447  0.0943
 1209ERGO    C116737  11.508  11.074   7.611 -0.1151  0.3562  0.0937
 1209ERGO    C216738  11.304  11.119   7.880  0.2132  0.1491  0.1456
 1210ERGO   ROH16739   1.044   7.540   5.734  0.0368  0.1638 -0.0803
 1210ERGO    R116740   1.039   7.475   6.009 -0.0527 -0.0540 -0.1318
 1210ERGO    R216741   1.260   7.501   6.173 -0.1337 -0.0824 -0.0158
 1210ERGO    R316742   1.091   7.650   6.324 -0.2650 -0.2750  0.0302
 1210ERGO    R416743   1.303   7.570   6.509 -0.2292 -0.2015  0.0213
 1210ERGO    R516744   1.089   7.541   6.537 -0.2129 -0.3728 -0.0188
 1210ERGO    C116745   1.168   7.750   6.846 -0.4080 -0.4518  0.0860
 1210ERGO    C216746   1.271   7.939   7.161 -0.0822  0.0973  0.1987
 1211ERGO   ROH16747   3.437   5.037   5.685 -0.0257 -0.1396  0.0704
 1211ERGO    R116748   3.345   4.910   5.921  0.1299 -0.1706  0.1159
 1211ERGO    R216749   3.516   4.835   6.125  0.2081  0.2895  0.2348
 1211ERGO    R316750   3.347   4.983   6.277 -0.1443  0.0656  0.0720
 1211ERGO    R416751   3.476   4.802   6.467 -0.0857  0.2347  0.1963
 1211ERGO    R516752   3.262   4.830   6.440 -0.1014 -0.0501 -0.0146
 1211ERGO    C116753   3.293   4.922   6.809 -0.5877 -0.0073  0.0210
 1211ERGO    C216754   3.411   4.978   7.119 -0.1796 -0.3138  0.2370
 1212ERGO   ROH16755   4.882   6.258   5.905  0.1040  0.1016  0.1025
 1212ERGO    R116756   4.795   6.178   6.163  0.0131  0.0195  0.0468
 1212ERGO    R216757   4.664   5.939   6.208  0.0562 -0.0240 -0.0661
 1212ERGO    R316758   4.862   5.903   6.391 -0.0143 -0.0155  0.0136
 1212ERGO    R416759   4.616   5.826   6.531 -0.0702 -0.0304 -0.0862
 1212ERGO    R516760   4.764   5.971   6.599 -0.1037 -0.0220 -0.0244
 1212ERGO    C116761   4.774   5.725   6.891 -0.2101 -0.0262 -0.0232
 1212ERGO    C216762   4.544   5.660   7.117 -0.1479 -0.0767 -0.0106
 1213ERGO   ROH16763  14.967   4.543   5.788 -0.1237 -0.1626 -0.1694
 1213ERGO    R116764  15.103   4.645   6.014 -0.1438 -0.0601 -0.2033
 1213ERGO    R216765  15.047   4.894   6.120 -0.1976 -0.0350 -0.2819
 1213ERGO    R316766  15.013   4.753   6.350 -0.1662  0.0277 -0.2383
 1213ERGO    R416767  15.034   5.032   6.437 -0.2142  0.0472 -0.3178
 1213ERGO    R516768  15.153   4.864   6.510 -0.1853  0.0937 -0.2727
 1213ERGO    C116769  14.994   4.979   6.837 -0.1942  0.1540 -0.2978
 1213ERGO    C216770  15.021   5.190   7.086 -0.0234  0.2526  0.0723
 1214ERGO   ROH16771  10.897  17.376   6.177 -0.2203 -0.1381  0.1029
 1214ERGO    R116772  10.692  17.427   6.365 -0.0962 -0.0220  0.2101
 1214ERGO    R216773  10.533  17.227   6.469 -0.2231  0.0766  0.2162
 1214ERGO    R316774  10.616  17.330   6.707 -0.0269 -0.0681  0.2116
 1214ERGO    R416775  10.416  17.128   6.779 -0.3475  0.2513  0.2259
 1214ERGO    R516776  10.418  17.337   6.841 -0.0013  0.2474  0.2366
 1214ERGO    C116777  10.425  17.166   7.182 -0.2358  0.2170  0.2273
 1214ERGO    C216778  10.352  17.315   7.483 -0.0169 -0.1115 -0.1563
 1215ERGO   ROH16779  15.533  17.775   6.318 -0.2330  0.1938 -0.1372
 1215ERGO    R116780  15.520  17.920   6.561 -0.1554  0.0878 -0.0694
 1215ERGO    R216781  15.439  17.804   6.799 -0.2119  0.0191 -0.1243
 1215ERGO    R316782  15.676  17.901   6.889 -0.1614 -0.1450 -0.0776
 1215ERGO    R416783  15.504  17.893   7.126 -0.2517  0.0638 -0.1284
 1215ERGO    R516784  15.615  18.065   7.052 -0.0863 -0.0447 -0.1462
 1215ERGO    C116785  15.764  18.036   7.402 -0.2272 -0.0643 -0.0869
 1215ERGO    C216786  15.784  18.031   7.848 -0.3480 -0.0162  0.1320
 1216ERGO   ROH16787  12.516  16.240   6.540  0.1355  0.0039 -0.1862
 1216ERGO    R116788  12.505  15.961   6.499  0.0432 -0.0118 -0.0635
 1216ERGO    R216789  12.409  15.785   6.691  0.0073  0.0998  0.0242
 1216ERGO    R316790  12.245  15.706   6.489 -0.0387  0.0653  0.0754
 1216ERGO    R416791  12.228  15.491   6.686  0.1275  0.0257  0.0458
 1216ERGO    R516792  12.277  15.469   6.475  0.0538  0.0812  0.0239
 1216ERGO    C116793  11.970  15.244   6.494  0.1543 -0.0500  0.1065
 1216ERGO    C216794  11.812  14.994   6.346  0.0815 -0.0626  0.0236
 1217ERGO   ROH16795   0.571   0.763   5.963 -0.2240  0.0109  0.0837
 1217ERGO    R116796   0.740   0.617   6.136 -0.2535 -0.1673 -0.0364
 1217ERGO    R216797   0.829   0.717   6.378  0.1528 -0.1910 -0.1730
 1217ERGO    R316798   0.723   0.487   6.475 -0.0859  0.0015  0.0402
 1217ERGO    R416799   0.932   0.559   6.667  0.3461 -0.2831 -0.2899
 1217ERGO    R516800   0.911   0.368   6.564 -0.1285 -0.2847 -0.2223
 1217ERGO    C116801   0.893   0.250   6.927  0.2345 -0.1559 -0.1578
 1217ERGO    C216802   0.948   0.173   7.289  0.0104  0.2756  0.2544
 1218ERGO   ROH16803  11.198  12.483   6.581 -0.0360 -0.1729  0.0669
 1218ERGO    R116804  11.139  12.603   6.830  0.1188 -0.1056  0.0721
 1218ERGO    R216805  10.987  12.478   7.024  0.0461  0.0379  0.1089
 1218ERGO    R316806  11.203  12.531   7.181  0.1250 -0.1415  0.0637
 1218ERGO    R416807  10.998  12.429   7.366  0.0385  0.1295  0.1223
 1218ERGO    R516808  11.108  12.617   7.384  0.2411  0.0211  0.0508
 1218ERGO    C116809  11.207  12.451   7.713  0.1082  0.0144  0.0878
 1218ERGO    C216810  11.135  12.450   8.092 -0.0095 -0.3396 -0.1968
 1219ERGO   ROH16811   0.039  11.023   9.132  0.2491 -0.0135 -0.0214
 1219ERGO    R116812   0.094  10.899   8.884  0.1611 -0.0135 -0.0398
 1219ERGO    R216813  -0.104  10.843   8.699  0.0907 -0.0619  0.0565
 1219ERGO    R316814   0.057  10.984   8.532 -0.0158 -0.0401 -0.0304
 1219ERGO    R416815  -0.080  10.791   8.358 -0.0018 -0.1457  0.0617
 1219ERGO    R516816   0.136  10.821   8.374 -0.0031 -0.0566 -0.0128
 1219ERGO    C116817   0.086  10.893   8.003 -0.1557 -0.1742 -0.0168
 1219ERGO    C216818   0.184  10.971   7.680 -0.2919 -0.1046  0.1921
 1220ERGO   ROH16819   4.324   3.743   5.475 -0.1693  0.0442  0.1824
 1220ERGO    R116820   4.176   3.650   5.697 -0.0908 -0.0136  0.2117
 1220ERGO    R216821   4.169   3.384   5.771 -0.0575 -0.0332  0.1506
 1220ERGO    R316822   4.248   3.483   6.012  0.0232 -0.0876  0.1467
 1220ERGO    R416823   4.213   3.196   6.058 -0.0680 -0.0777  0.1227
 1220ERGO    R516824   4.121   3.357   6.172  0.0112 -0.0595  0.1574
 1220ERGO    C116825   4.312   3.178   6.450  0.0016 -0.1546  0.1028
 1220ERGO    C216826   4.393   3.070   6.783 -0.2481 -0.3776  0.2184
 1221ERGO   ROH16827   5.183   1.375   7.538 -0.0128 -0.0334 -0.1076
 1221ERGO    R116828   5.403   1.456   7.380 -0.0084  0.0802 -0.0447
 1221ERGO    R216829   5.441   1.718   7.301 -0.0515  0.1231  0.0721
 1221ERGO    R316830   5.685   1.683   7.416 -0.0601  0.1236  0.0895
 1221ERGO    R416831   5.702   1.945   7.285  0.0225  0.0277 -0.0942
 1221ERGO    R516832   5.839   1.778   7.259 -0.0332 -0.0360  0.0184
 1221ERGO    C116833   6.082   2.044   7.384  0.0575 -0.0273 -0.1748
 1221ERGO    C216834   6.287   2.202   7.645 -0.1235  0.1515  0.0297
 1222ERGO   ROH16835   0.518  18.565   5.849  0.0594  0.3744  0.0425
 1222ERGO    R116836   0.426  18.531   6.115 -0.1498  0.1767 -0.0484
 1222ERGO    R216837   0.299  18.301   6.201 -0.0519  0.0221 -0.2615
 1222ERGO    R316838   0.493  18.304   6.391 -0.2077  0.0958 -0.1061
 1222ERGO    R416839   0.268  18.164   6.516 -0.2273  0.0135 -0.2842
 1222ERGO    R516840   0.374  18.337   6.596 -0.3664  0.0424 -0.2010
 1222ERGO    C116841   0.432  18.087   6.879 -0.4757  0.0777 -0.1515
 1222ERGO    C216842   0.435  17.960   7.133 -0.4377 -0.1413 -0.0521
 1223ERGO   ROH16843   6.346   2.242   5.889  0.1076  0.0192 -0.1810
 1223ERGO    R116844   6.476   2.059   6.061 -0.0397 -0.0851 -0.1777
 1223ERGO    R216845   6.567   2.130   6.312  0.2467 -0.0801 -0.2764
 1223ERGO    R316846   6.417   1.918   6.391 -0.0201  0.1819 -0.0579
 1223ERGO    R416847   6.609   1.956   6.608  0.1780  0.0207 -0.2072
 1223ERGO    R516848   6.572   1.771   6.500 -0.1666  0.0112 -0.0787
 1223ERGO    C116849   6.492   1.656   6.854 -0.1125  0.3254  0.0382
 1223ERGO    C216850   6.257   1.642   7.118  0.0927 -0.0254 -0.3085
 1224ERGO   ROH16851  13.857   8.386   6.413 -0.0191  0.0794  0.1258
 1224ERGO    R116852  13.759   8.409   6.678 -0.0262 -0.0234  0.1333
 1224ERGO    R216853  13.730   8.191   6.846  0.0820 -0.0752  0.0910
 1224ERGO    R316854  13.883   8.341   7.013  0.0146 -0.0340  0.1150
 1224ERGO    R416855  13.807   8.107   7.172  0.0070 -0.0200  0.1226
 1224ERGO    R516856  13.780   8.315   7.227 -0.0371 -0.0204  0.0889
 1224ERGO    C116857  13.995   8.198   7.519 -0.1000  0.0508  0.1635
 1224ERGO    C216858  14.025   8.420   7.843 -0.1220 -0.1995 -0.0808
 1225ERGO   ROH16859  15.486   1.935   6.257  0.1876  0.0190 -0.3300
 1225ERGO    R116860  15.724   1.931   6.409  0.1502  0.1434 -0.2677
 1225ERGO    R216861  15.759   2.085   6.635 -0.0821 -0.0167 -0.1221
 1225ERGO    R316862  15.820   1.846   6.750  0.1456 -0.0556 -0.3144
 1225ERGO    R416863  15.958   2.045   6.915 -0.3342 -0.0121  0.0624
 1225ERGO    R516864  16.048   1.870   6.820  0.0388  0.2165 -0.0340
 1225ERGO    C116865  16.131   1.798   7.185 -0.2673 -0.0459 -0.0105
 1225ERGO    C216866  16.267   1.772   7.521  0.0580 -0.2482 -0.0191
 1226ERGO   ROH16867   2.365   2.045   7.679  0.0245 -0.0435  0.0595
 1226ERGO    R116868   2.088   2.100   7.698  0.0485  0.0751  0.0717
 1226ERGO    R216869   1.916   1.948   7.852 -0.0317  0.0696 -0.0227
 1226ERGO    R316870   1.853   2.189   7.961  0.0732  0.0397  0.1059
 1226ERGO    R416871   1.761   1.992   8.158 -0.3400 -0.0435 -0.1591
 1226ERGO    R516872   1.643   2.152   8.069 -0.0892  0.1450 -0.1644
 1226ERGO    C116873   1.611   2.243   8.439 -0.4211 -0.1374 -0.1179
 1226ERGO    C216874   1.604   2.205   8.862  0.0196  0.1183 -0.0105
 1227ERGO   ROH16875  17.580   0.926   6.091  0.0716  0.1527  0.0759
 1227ERGO    R116876  17.540   0.823   6.352  0.0210  0.0722  0.0365
 1227ERGO    R216877  17.687   0.612   6.453  0.1431  0.1747  0.0725
 1227ERGO    R316878  17.738   0.786   6.655 -0.1049  0.1807  0.1332
 1227ERGO    R416879  17.657   0.538   6.789  0.0690  0.0710  0.0436
 1227ERGO    R516880  17.571   0.736   6.820 -0.1308 -0.0128  0.0521
 1227ERGO    C116881  17.687   0.658   7.175 -0.2072  0.0162  0.0837
 1227ERGO    C216882  17.647   0.561   7.540 -0.0121  0.0348  0.2648
 1228ERGO   ROH16883  17.228  16.025   6.328 -0.0187  0.0348 -0.1057
 1228ERGO    R116884  17.104  16.100   6.572 -0.0790 -0.1767 -0.0693
 1228ERGO    R216885  17.023  15.914   6.760  0.2052 -0.3275 -0.0860
 1228ERGO    R316886  17.177  16.064   6.926  0.0360 -0.1444 -0.0900
 1228ERGO    R416887  16.995  15.919   7.104  0.1609 -0.2943 -0.0901
 1228ERGO    R516888  17.028  16.135   7.099 -0.0539 -0.2636 -0.1207
 1228ERGO    C116889  17.124  16.063   7.461 -0.0238 -0.1031 -0.0964
 1228ERGO    C216890  17.408  16.147   7.803  0.2231  0.1726 -0.0259
 1229ERGO   ROH16891   0.058  12.906   5.704  0.1346  0.2985  0.0383
 1229ERGO    R116892   0.199  12.974   5.940  0.0500  0.3595  0.0723
 1229ERGO    R216893   0.097  13.149   6.129 -0.2384  0.0349  0.2331
 1229ERGO    R316894   0.145  12.942   6.298  0.1520 -0.0277  0.0559
 1229ERGO    R416895   0.112  13.173   6.474 -0.1928 -0.2234  0.2509
 1229ERGO    R516896   0.280  13.035   6.471  0.0393  0.0573  0.0951
 1229ERGO    C116897   0.166  12.993   6.833  0.2003 -0.4325  0.0948
 1229ERGO    C216898   0.007  12.884   7.100 -0.1872 -0.1886  0.0548
 1230ERGO   ROH16899   2.477   9.546   5.863  0.0881  0.0225 -0.0962
 1230ERGO    R116900   2.415   9.658   6.116  0.2082 -0.1055 -0.0074
 1230ERGO    R216901   2.608   9.759   6.286  0.2697  0.0443 -0.1582
 1230ERGO    R316902   2.451   9.982   6.278  0.0358 -0.1084  0.0370
 1230ERGO    R416903   2.644  10.034   6.492  0.2039  0.0527 -0.1581
 1230ERGO    R516904   2.427  10.045   6.507  0.2075 -0.1667  0.0699
 1230ERGO    C116905   2.518  10.402   6.605 -0.0540 -0.0858  0.0253
 1230ERGO    C216906   2.579  10.571   6.943  0.5736  0.0769  0.4180
 1231ERGO   ROH16907  10.720  10.113   6.097 -0.0270 -0.0585 -0.1264
 1231ERGO    R116908  10.826  10.248   6.321  0.0070 -0.0012 -0.1771
 1231ERGO    R216909  10.771  10.171   6.581 -0.0833  0.1626 -0.1478
 1231ERGO    R316910  11.042  10.164   6.602 -0.0893  0.0236 -0.0949
 1231ERGO    R416911  10.946  10.104   6.872 -0.1730  0.1925 -0.0856
 1231ERGO    R516912  11.088  10.259   6.817 -0.0775  0.0922 -0.1272
 1231ERGO    C116913  11.302  10.058   7.060 -0.2311  0.0794  0.0002
 1231ERGO    C216914  11.510  10.158   7.366 -0.1648  0.0494  0.0689
 1232ERGO   ROH16915  16.144  12.517   6.449 -0.0029  0.0312 -0.1188
 1232ERGO    R116916  16.104  12.547   6.727 -0.1470  0.0042 -0.1361
 1232ERGO    R216917  16.264  12.421   6.915 -0.2153  0.0256 -0.0670
 1232ERGO    R316918  16.296  12.674   7.009 -0.3131  0.0246 -0.0296
 1232ERGO    R416919  16.291  12.508   7.249 -0.1403 -0.0328 -0.0573
 1232ERGO    R516920  16.166  12.681   7.210 -0.2474 -0.0865  0.0208
 1232ERGO    C116921  16.336  12.796   7.531 -0.1883 -0.0677 -0.0164
 1232ERGO    C216922  16.428  13.029   7.809  0.0762  0.1806  0.0159
 1233ERGO   ROH16923  15.523   1.052   6.012 -0.0914  0.1961  0.0119
 1233ERGO    R116924  15.358   1.191   6.196  0.0395  0.1060  0.2024
 1233ERGO    R216925  15.451   1.282   6.440  0.3041  0.2627  0.0531
 1233ERGO    R316926  15.354   1.520   6.351 -0.0285  0.1499  0.1055
 1233ERGO    R416927  15.410   1.563   6.636  0.2079  0.2570  0.0395
 1233ERGO    R516928  15.221   1.601   6.534  0.0677  0.0459  0.2193
 1233ERGO    C116929  15.295   1.950   6.668 -0.1603  0.1478  0.0807
 1233ERGO    C216930  15.374   2.230   6.864 -0.1005 -0.4114 -0.0938
 1234ERGO   ROH16931   8.417   1.120   5.948 -0.1848  0.1008 -0.0414
 1234ERGO    R116932   8.440   1.121   6.230 -0.1892  0.0448 -0.0413
 1234ERGO    R216933   8.412   1.351   6.381 -0.2482  0.0021  0.0063
 1234ERGO    R316934   8.226   1.204   6.512 -0.2127 -0.0711 -0.0228
 1234ERGO    R416935   8.256   1.447   6.673 -0.2118 -0.1198  0.0670
 1234ERGO    R516936   8.273   1.242   6.744 -0.1773 -0.1507 -0.0127
 1234ERGO    C116937   7.989   1.365   6.967 -0.1571 -0.2595  0.0750
 1234ERGO    C216938   7.789   1.225   7.214 -0.0170 -0.0180 -0.2489
 1235ERGO   ROH16939  11.251  13.494   6.409  0.0104 -0.0121  0.0966
 1235ERGO    R116940  11.360  13.637   6.627 -0.0106  0.0166  0.0882
 1235ERGO    R216941  11.203  13.771   6.810 -0.0337 -0.0420  0.1117
 1235ERGO    R316942  11.340  13.621   6.990  0.0386 -0.0031  0.0901
 1235ERGO    R416943  11.225  13.840   7.148 -0.0181 -0.0504  0.1126
 1235ERGO    R516944  11.435  13.780   7.141  0.0012  0.0221  0.0865
 1235ERGO    C116945  11.367  13.738   7.514  0.0588 -0.0189  0.0929
 1235ERGO    C216946  11.554  13.800   7.817 -0.2122 -0.0932 -0.0409
 1236ERGO   ROH16947  17.891   3.072   6.165  0.2312  0.2342 -0.2041
 1236ERGO    R116948  17.911   3.198   6.418  0.1784 -0.0448 -0.0569
 1236ERGO    R216949  17.755   3.125   6.634  0.0436 -0.2016 -0.2088
 1236ERGO    R316950  17.996   3.099   6.758 -0.0255 -0.4503 -0.1175
 1236ERGO    R416951  17.798   3.045   6.967 -0.1747 -0.0427 -0.1394
 1236ERGO    R516952  17.960   3.190   6.976  0.0264 -0.2538 -0.1872
 1236ERGO    C116953  18.050   2.975   7.278 -0.3665 -0.1837 -0.0133
 1236ERGO    C216954  18.267   2.816   7.549  0.1387  0.0768  0.2734
 1237ERGO   ROH16955   6.130   5.873   5.815  0.2476  0.1904 -0.0256
 1237ERGO    R116956   6.068   5.847   6.090  0.0410  0.0292 -0.0849
 1237ERGO    R216957   6.137   5.623   6.237  0.1001  0.0252 -0.1210
 1237ERGO    R316958   6.255   5.806   6.400 -0.1813  0.0552  0.0547
 1237ERGO    R416959   6.263   5.555   6.552  0.1714 -0.0818 -0.1722
 1237ERGO    R516960   6.181   5.745   6.620 -0.1167 -0.2561 -0.0038
 1237ERGO    C116961   6.446   5.687   6.888 -0.0512 -0.1160 -0.0371
 1237ERGO    C216962   6.593   5.427   7.082  0.1776 -0.0689 -0.0388
 1238ERGO   ROH16963  17.985   8.235   6.039  0.0658 -0.2448 -0.0174
 1238ERGO    R116964  18.050   8.212   6.313  0.0608 -0.1005 -0.0043
 1238ERGO    R216965  18.249   8.363   6.432  0.0813 -0.0671 -0.0912
 1238ERGO    R316966  18.049   8.430   6.604  0.0954  0.0625 -0.1233
 1238ERGO    R416967  18.296   8.471   6.757  0.1019 -0.3518  0.0039
 1238ERGO    R516968  18.125   8.350   6.817 -0.0790 -0.1857 -0.1460
 1238ERGO    C116969  18.137   8.597   7.108  0.1272 -0.3960  0.0292
 1238ERGO    C216970  18.125   8.966   7.213  0.2920 -0.0473  0.1036
 1239ERGO   ROH16971   9.880  15.933   6.452 -0.0056 -0.1811  0.0855
 1239ERGO    R116972   9.775  16.046   6.690  0.0247 -0.1582  0.0886
 1239ERGO    R216973   9.569  15.929   6.831  0.0391 -0.1432  0.1254
 1239ERGO    R316974   9.744  15.945   7.038  0.0658 -0.1275  0.1009
 1239ERGO    R416975   9.500  15.831   7.155 -0.0217  0.1627  0.2074
 1239ERGO    R516976   9.608  16.007   7.226  0.1281  0.1295  0.0640
 1239ERGO    C116977   9.625  15.790   7.539 -0.0321  0.3557  0.2323
 1239ERGO    C216978   9.736  15.526   7.809 -0.2487  0.0639  0.0684
 1240ERGO   ROH16979  17.287   6.748   6.480  0.0605  0.0558  0.0242
 1240ERGO    R116980  17.275   6.536   6.667  0.1626  0.0576  0.0320
 1240ERGO    R216981  17.445   6.519   6.885  0.0230  0.2679  0.1524
 1240ERGO    R316982  17.212   6.501   7.023 -0.0583  0.0144 -0.0080
 1240ERGO    R416983  17.391   6.311   7.156  0.0992  0.2531  0.1572
 1240ERGO    R516984  17.193   6.268   7.078  0.1943 -0.0084  0.0216
 1240ERGO    C116985  17.141   6.173   7.443  0.0672  0.0066  0.0095
 1240ERGO    C216986  17.022   6.065   7.804 -0.1082  0.5078 -0.0161
 1241ERGO   ROH16987   1.092  16.179   5.537  0.1005 -0.4457 -0.0835
 1241ERGO    R116988   1.117  16.098   5.806  0.1994 -0.2009 -0.0163
 1241ERGO    R216989   1.216  16.264   6.004 -0.0778  0.1081 -0.1314
 1241ERGO    R316990   0.982  16.202   6.128  0.0009 -0.1605 -0.1111
 1241ERGO    R416991   1.188  16.153   6.330  0.0870 -0.0165 -0.1588
 1241ERGO    R516992   1.035  16.013   6.264  0.2128 -0.1511 -0.1752
 1241ERGO    C116993   0.953  16.030   6.636  0.2568 -0.3411 -0.1557
 1241ERGO    C216994   1.115  16.004   6.993 -0.1258  0.1217 -0.1475
 1242ERGO   ROH16995   6.637   4.910   5.680 -0.2014 -0.0796  0.0466
 1242ERGO    R116996   6.649   4.834   5.952 -0.0637 -0.0607  0.0466
 1242ERGO    R216997   6.778   4.605   6.038 -0.0188 -0.0547 -0.0019
 1242ERGO    R316998   6.910   4.779   6.200  0.0624 -0.0418 -0.0810
 1242ERGO    R416999   6.810   4.570   6.380  0.0641  0.0284 -0.0009
 1242ERGO    R517000   6.778   4.785   6.400  0.1172  0.0397 -0.0478
 1242ERGO    C117001   6.952   4.713   6.732  0.1885  0.0888 -0.0746
 1242ERGO    C217002   7.043   4.580   7.068 -0.0464 -0.2089  0.0046
 1243ERGO   ROH17003  17.225  14.023   6.223  0.1553 -0.2034  0.0775
 1243ERGO    R117004  17.394  13.920   6.425  0.2255 -0.0850  0.0805
 1243ERGO    R217005  17.606  14.064   6.530  0.1548  0.0468  0.0514
 1243ERGO    R317006  17.484  14.010   6.766  0.1958  0.0084  0.0631
 1243ERGO    R417007  17.752  14.101   6.841  0.1413  0.1761  0.0423
 1243ERGO    R517008  17.657  13.915   6.902  0.2542  0.1301  0.0715
 1243ERGO    C117009  17.722  14.072   7.244  0.1721  0.2151  0.0480
 1243ERGO    C217010  17.679  14.304   7.469 -0.3757 -0.0435 -0.2610
 1244ERGO   ROH17011   7.621  15.016   8.179 -0.2663 -0.1922  0.1828
 1244ERGO    R117012   7.509  15.135   8.410 -0.2264 -0.2622  0.2394
 1244ERGO    R217013   7.482  14.999   8.649  0.1555 -0.2232  0.3141
 1244ERGO    R317014   7.620  15.211   8.748 -0.0326 -0.0071  0.1212
 1244ERGO    R417015   7.455  15.119   8.972  0.2365 -0.1091  0.2781
 1244ERGO    R517016   7.464  15.321   8.892 -0.0667 -0.1323  0.1788
 1244ERGO    C117017   7.569  15.388   9.253  0.1071  0.1603  0.0762
 1244ERGO    C217018   7.535  15.276   9.583  0.0782 -0.1202  0.1486
 1245ERGO   ROH17019  13.843  16.397   6.481  0.1222  0.2301 -0.1735
 1245ERGO    R117020  13.893  16.479   6.747 -0.1559  0.1566 -0.0948
 1245ERGO    R217021  13.721  16.420   6.955 -0.1431 -0.3189 -0.2044
 1245ERGO    R317022  13.946  16.316   7.068  0.0184  0.0417 -0.1816
 1245ERGO    R417023  13.783  16.404   7.295 -0.1580 -0.2480 -0.1983
 1245ERGO    R517024  13.990  16.459   7.255 -0.2407  0.0993 -0.1638
 1245ERGO    C117025  14.030  16.298   7.599 -0.0152  0.1320 -0.1734
 1245ERGO    C217026  13.962  16.198   8.023  0.0809 -0.1132 -0.1070
 1246ERGO   ROH17027   9.464  16.344   6.472 -0.0751 -0.1516  0.0585
 1246ERGO    R117028   9.422  16.421   6.741 -0.0459 -0.0110  0.0228
 1246ERGO    R217029   9.604  16.366   6.941 -0.0404  0.0671  0.0342
 1246ERGO    R317030   9.588  16.634   6.984 -0.0028  0.0911 -0.0939
 1246ERGO    R417031   9.626  16.519   7.250  0.2819  0.2308 -0.0648
 1246ERGO    R517032   9.467  16.655   7.189  0.2097  0.1945  0.0271
 1246ERGO    C117033   9.625  16.859   7.470  0.5049  0.3489 -0.2426
 1246ERGO    C217034   9.763  16.925   7.839  0.1188  0.4999  0.1181
 1247ERGO   ROH17035  15.110   6.985   5.952 -0.0971 -0.0610  0.0500
 1247ERGO    R117036  15.122   7.078   6.219 -0.1063 -0.0857  0.0594
 1247ERGO    R217037  15.164   6.909   6.433 -0.0119 -0.0940  0.0374
 1247ERGO    R317038  15.369   7.080   6.487 -0.0766 -0.0145  0.0310
 1247ERGO    R417039  15.259   7.011   6.750  0.0469 -0.1603  0.0412
 1247ERGO    R517040  15.289   7.212   6.671 -0.0768 -0.1184  0.1040
 1247ERGO    C117041  15.506   7.231   6.985  0.0204 -0.1243  0.0375
 1247ERGO    C217042  15.578   7.241   7.270  0.1508 -0.0131  0.1084
 1248ERGO   ROH17043   9.480  13.823   6.417  0.1112 -0.0347  0.0419
 1248ERGO    R117044   9.460  13.971   6.658  0.0059  0.0333 -0.0067
 1248ERGO    R217045   9.280  13.906   6.858 -0.0035  0.0198 -0.0147
 1248ERGO    R317046   9.503  13.905   7.013 -0.0287  0.1619  0.0212
 1248ERGO    R417047   9.285  13.974   7.197 -0.1225 -0.0963  0.0096
 1248ERGO    R517048   9.470  14.086   7.167 -0.2156  0.0778  0.0806
 1248ERGO    C117049   9.498  14.012   7.540 -0.2153 -0.0306  0.0576
 1248ERGO    C217050   9.485  14.051   7.961  0.4836  0.0880 -0.0378
 1249ERGO   ROH17051  11.471  17.913   6.361  0.2799 -0.2828 -0.0446
 1249ERGO    R117052  11.369  18.041   6.592  0.1122 -0.2889 -0.1131
 1249ERGO    R217053  11.385  17.928   6.844  0.0983 -0.2146 -0.0732
 1249ERGO    R317054  11.503  18.165   6.907 -0.0781 -0.1184 -0.0989
 1249ERGO    R417055  11.428  18.047   7.165  0.0824 -0.1734 -0.0868
 1249ERGO    R517056  11.376  18.247   7.093 -0.0951 -0.2188 -0.0712
 1249ERGO    C117057  11.564  18.339   7.412 -0.0925 -0.0593 -0.1189
 1249ERGO    C217058  11.607  18.521   7.747 -0.1846  0.1093  0.4620
 1250ERGO   ROH17059  11.612  12.262   6.498  0.0630  0.1394 -0.0780
 1250ERGO    R117060  11.554  12.296   6.773  0.0900  0.0967 -0.0676
 1250ERGO    R217061  11.332  12.185   6.894  0.1206  0.0530 -0.0576
 1250ERGO    R317062  11.516  12.081   7.064  0.1516  0.0557 -0.0885
 1250ERGO    R417063  11.267  12.089   7.219  0.1576 -0.0014 -0.0657
 1250ERGO    R517064  11.459  12.174   7.278  0.1530  0.0201 -0.0697
 1250ERGO    C117065  11.402  11.935   7.569  0.2084 -0.0304 -0.0994
 1250ERGO    C217066  11.372  12.025   7.922 -0.0306  0.1277  0.1004
 1251ERGO   ROH17067   6.558   3.811   6.924 -0.0993 -0.0599  0.0396
 1251ERGO    R117068   6.338   3.768   7.096 -0.0024  0.0892  0.2059
 1251ERGO    R217069   6.213   3.973   7.232 -0.0199  0.2339 -0.0165
 1251ERGO    R317070   5.990   3.874   7.112 -0.0355 -0.0246  0.2181
 1251ERGO    R417071   5.889   4.032   7.338 -0.0139  0.5459 -0.1607
 1251ERGO    R517072   5.842   3.823   7.294 -0.0483  0.4394  0.3447
 1251ERGO    C117073   5.491   3.973   7.287 -0.0250  0.4849 -0.0245
 1251ERGO    C217074   5.237   4.085   7.283 -0.2053 -0.1207  0.1510
 1252ERGO   ROH17075  15.821  12.179   6.558 -0.0236 -0.0087 -0.1577
 1252ERGO    R117076  15.801  12.151   6.839 -0.1384  0.0139 -0.1631
 1252ERGO    R217077  15.558  12.127   6.969 -0.1884 -0.0966 -0.2717
 1252ERGO    R317078  15.672  11.902   7.071 -0.1168 -0.0267 -0.1956
 1252ERGO    R417079  15.473  11.983   7.271  0.0399  0.1140 -0.1026
 1252ERGO    R517080  15.685  11.944   7.307  0.0634  0.1365 -0.2343
 1252ERGO    C117081  15.530  11.687   7.543  0.2403  0.3022  0.0671
 1252ERGO    C217082  15.364  11.374   7.609 -0.2777 -0.2842 -0.0728
 1253ERGO   ROH17083   8.405   6.017   5.996 -0.2685  0.0496  0.0382
 1253ERGO    R117084   8.482   5.837   6.201 -0.0786  0.1838  0.0887
 1253ERGO    R217085   8.431   5.885   6.468 -0.0956  0.2212  0.0850
 1253ERGO    R317086   8.314   5.640   6.456  0.1281  0.1099  0.1670
 1253ERGO    R417087   8.433   5.652   6.723 -0.0877  0.3964  0.2458
 1253ERGO    R517088   8.465   5.496   6.575  0.1602  0.3205  0.3807
 1253ERGO    C117089   8.325   5.286   6.860  0.1269  0.3939  0.4165
 1253ERGO    C217090   8.263   5.041   7.115 -0.1266 -0.1531 -0.1189
 1254ERGO   ROH17091  16.012  10.946   6.200 -0.2715 -0.2360  0.0674
 1254ERGO    R117092  16.127  10.996   6.453 -0.2509 -0.0356  0.0208
 1254ERGO    R217093  15.976  11.017   6.684 -0.2175 -0.0317  0.0433
 1254ERGO    R317094  16.144  10.824   6.774 -0.0634  0.1269  0.0995
 1254ERGO    R417095  16.018  10.932   7.016 -0.2400  0.0143  0.0580
 1254ERGO    R517096  16.232  10.913   6.978 -0.2092  0.2138  0.1253
 1254ERGO    C117097  16.201  10.701   7.294 -0.1084  0.1900  0.1193
 1254ERGO    C217098  16.101  10.549   7.624 -0.2884  0.0697  0.0618
 1255ERGO   ROH17099  14.319  17.594   6.331  0.0108  0.1932 -0.0724
 1255ERGO    R117100  14.444  17.582   6.584  0.1948  0.2884 -0.1559
 1255ERGO    R217101  14.515  17.808   6.727 -0.1603  0.3543 -0.0696
 1255ERGO    R317102  14.367  17.691   6.923  0.1805 -0.0574 -0.0443
 1255ERGO    R417103  14.516  17.904   7.059 -0.2313  0.2299 -0.0334
 1255ERGO    R517104  14.510  17.693   7.115  0.2645  0.1878 -0.1086
 1255ERGO    C117105  14.378  17.850   7.436  0.0475 -0.2291  0.0114
 1255ERGO    C217106  14.484  17.904   7.763 -0.0285 -0.2591 -0.0355
 1256ERGO   ROH17107  14.316   0.389   5.992  0.2793 -0.2940  0.0364
 1256ERGO    R117108  14.257   0.309   6.256  0.0851 -0.0734  0.0630
 1256ERGO    R217109  14.450   0.212   6.429 -0.0845 -0.1662  0.2011
 1256ERGO    R317110  14.357   0.409   6.592  0.0465  0.0296  0.0443
 1256ERGO    R417111  14.503   0.230   6.770 -0.0017  0.1193  0.1770
 1256ERGO    R517112  14.298   0.297   6.794  0.0349  0.2414  0.1623
 1256ERGO    C117113  14.446   0.425   7.121  0.1696  0.4693  0.0157
 1256ERGO    C217114  14.694   0.419   7.221  0.1046  0.0694  0.3193
 1257ERGO   ROH17115   7.541  16.787   6.313 -0.5168 -0.0024 -0.0473
 1257ERGO    R117116   7.603  16.794   6.590 -0.3391 -0.1666 -0.0802
 1257ERGO    R217117   7.554  17.016   6.747  0.0722 -0.1328  0.0155
 1257ERGO    R317118   7.418  16.837   6.901 -0.0970  0.0144  0.0407
 1257ERGO    R417119   7.482  17.056   7.083  0.0520  0.0018 -0.0048
 1257ERGO    R517120   7.527  16.846   7.114 -0.1246 -0.0254  0.0536
 1257ERGO    C117121   7.313  16.912   7.422 -0.1185  0.2184  0.0071
 1257ERGO    C217122   7.147  16.695   7.668 -0.2285 -0.1251 -0.0060
 1258ERGO   ROH17123  10.513  11.033   6.475 -0.2405  0.0564  0.0137
 1258ERGO    R117124  10.544  11.040   6.756  0.0171 -0.1223 -0.0074
 1258ERGO    R217125  10.359  11.158   6.923  0.3610  0.1281  0.2067
 1258ERGO    R317126  10.362  10.915   7.045  0.0471  0.0614  0.0931
 1258ERGO    R417127  10.275  11.102   7.254  0.6182  0.1453  0.2769
 1258ERGO    R517128  10.441  10.961   7.267  0.3808 -0.1743  0.0322
 1258ERGO    C117129  10.230  10.841   7.561  0.4732  0.0926  0.2112
 1258ERGO    C217130   9.884  10.779   7.752  0.0477  0.1342  0.3043
 1259ERGO   ROH17131  12.589  13.834   6.315 -0.1545  0.1232 -0.0107
 1259ERGO    R117132  12.608  13.828   6.597 -0.1578  0.0625 -0.0125
 1259ERGO    R217133  12.397  13.898   6.762 -0.1916 -0.0759 -0.0020
 1259ERGO    R317134  12.442  13.652   6.869 -0.0816 -0.0810 -0.0563
 1259ERGO    R417135  12.377  13.823   7.099 -0.3675 -0.1981 -0.0376
 1259ERGO    R517136  12.554  13.697   7.076 -0.2533 -0.0615  0.0378
 1259ERGO    C117137  12.408  13.549   7.395 -0.3665 -0.2741 -0.1091
 1259ERGO    C217138  12.375  13.453   7.643 -0.1609  0.0837  0.1641
 1260ERGO   ROH17139   0.833  17.321   5.469  0.2105 -0.0051  0.0084
 1260ERGO    R117140   0.960  17.338   5.721  0.1556  0.0710  0.0311
 1260ERGO    R217141   0.835  17.442   5.944  0.0208 -0.0850  0.0284
 1260ERGO    R317142   0.903  17.204   6.055  0.2288 -0.0408  0.0001
 1260ERGO    R417143   0.813  17.368   6.281 -0.1703 -0.2221 -0.0124
 1260ERGO    R517144   1.003  17.262   6.265 -0.0175  0.0197  0.1067
 1260ERGO    C117145   0.864  17.101   6.581 -0.0864 -0.2604 -0.0627
 1260ERGO    C217146   0.812  17.059   6.885  0.0716  0.5460 -0.0846
 1261ERGO   ROH17147   7.367   2.324   5.879 -0.0169  0.2995  0.0616
 1261ERGO    R117148   7.428   2.504   6.089  0.0496  0.2251  0.1071
 1261ERGO    R217149   7.571   2.429   6.312  0.0683  0.1299  0.0647
 1261ERGO    R317150   7.729   2.639   6.243  0.0993  0.1191  0.1037
 1261ERGO    R417151   7.831   2.552   6.504  0.0658  0.0753  0.1027
 1261ERGO    R517152   7.769   2.754   6.449  0.0947  0.0893  0.1212
 1261ERGO    C117153   8.131   2.821   6.550  0.0933  0.0334  0.1615
 1261ERGO    C217154   8.383   2.996   6.742 -0.0175 -0.2645 -0.1118
 1262ERGO   ROH17155   1.893   3.473   5.656 -0.3963 -0.1259  0.0026
 1262ERGO    R117156   1.722   3.446   5.880 -0.2015 -0.1878  0.1442
 1262ERGO    R217157   1.817   3.422   6.138  0.0171  0.0163  0.0759
 1262ERGO    R317158   1.653   3.633   6.184 -0.1510 -0.1190  0.1167
 1262ERGO    R417159   1.751   3.555   6.450  0.4176  0.2794  0.0582
 1262ERGO    R517160   1.542   3.578   6.390  0.2678 -0.0324  0.3859
 1262ERGO    C117161   1.557   3.831   6.675  0.4929  0.3057  0.0863
 1262ERGO    C217162   1.744   3.928   6.922 -0.2360  0.0654 -0.0865
 1263ERGO   ROH17163  18.649   5.076   5.630 -0.0373  0.0308 -0.0508
 1263ERGO    R117164  18.823   5.039   5.851  0.0561  0.0994 -0.1129
 1263ERGO    R217165  18.987   5.241   5.946 -0.1108  0.2163 -0.0698
 1263ERGO    R317166  18.864   5.185   6.182  0.0030 -0.0056 -0.0594
 1263ERGO    R417167  19.132   5.270   6.258 -0.1089  0.3869 -0.0856
 1263ERGO    R517168  19.034   5.086   6.317  0.1740  0.2266 -0.0982
 1263ERGO    C117169  19.101   5.236   6.661 -0.0010  0.2780 -0.0850
 1263ERGO    C217170  19.239   5.371   6.948  0.0598  0.0559  0.1019
 1264ERGO   ROH17171   9.545   0.228   6.113 -0.2327  0.2086 -0.0779
 1264ERGO    R117172   9.647   0.184   6.373 -0.0559  0.0952 -0.1673
 1264ERGO    R217173   9.568   0.333   6.592  0.1729  0.0655 -0.0745
 1264ERGO    R317174   9.513   0.089   6.697  0.1526  0.0626 -0.0853
 1264ERGO    R417175   9.507   0.271   6.926 -0.2389  0.1382 -0.1289
 1264ERGO    R517176   9.624   0.089   6.909 -0.1173  0.1819  0.0709
 1264ERGO    C117177   9.419   0.005   7.220 -0.4977  0.1778 -0.1706
 1264ERGO    C217178   9.443  -0.152   7.489 -0.1012 -0.2545  0.1067
 1265ERGO   ROH17179   6.323   8.690   5.501 -0.2400 -0.1439  0.0335
 1265ERGO    R117180   6.361   8.878   5.709  0.0106 -0.1472 -0.0064
 1265ERGO    R217181   6.151   9.013   5.828  0.1873  0.1822 -0.0555
 1265ERGO    R317182   6.259   8.913   6.056  0.0255  0.0778 -0.0233
 1265ERGO    R417183   6.089   9.135   6.145  0.2565  0.2851 -0.0809
 1265ERGO    R517184   6.300   9.107   6.192  0.2177  0.0473 -0.0334
 1265ERGO    C117185   6.153   9.112   6.545  0.1451  0.2470 -0.0655
 1265ERGO    C217186   6.035   9.153   6.942  0.1034  0.1107  0.1928
 1266ERGO   ROH17187  13.234  17.747   6.354  0.0807 -0.0335 -0.1259
 1266ERGO    R117188  13.362  17.744   6.607  0.0271 -0.0772 -0.1008
 1266ERGO    R217189  13.418  17.974   6.749  0.1412 -0.0993 -0.1288
 1266ERGO    R317190  13.280  17.848   6.946  0.0300  0.0214 -0.1262
 1266ERGO    R417191  13.447  18.045   7.085  0.5988 -0.4221 -0.0901
 1266ERGO    R517192  13.437  17.831   7.126  0.1749 -0.4622 -0.2681
 1266ERGO    C117193  13.334  17.968   7.467  0.7610 -0.4968 -0.0652
 1266ERGO    C217194  13.477  17.977   7.762  0.0239  0.1393 -0.1158
 1267ERGO   ROH17195  13.446   0.667   6.351 -0.1276 -0.2484  0.1734
 1267ERGO    R117196  13.431   0.705   6.631  0.0426 -0.0792  0.1627
 1267ERGO    R217197  13.537   0.926   6.758 -0.0066  0.0714 -0.0516
 1267ERGO    R317198  13.285   0.950   6.857  0.0448 -0.0248  0.1048
 1267ERGO    R417199  13.412   1.208   6.914 -0.0140  0.0172  0.0401
 1267ERGO    R517200  13.312   1.078   7.058  0.1209 -0.0264  0.0949
 1267ERGO    C117201  13.103   1.394   7.099  0.0296 -0.1046  0.2404
 1267ERGO    C217202  13.098   1.733   7.219  0.0192  0.1017 -0.0019
 1268ERGO   ROH17203   3.526  11.138   5.666 -0.1528  0.1559 -0.0678
 1268ERGO    R117204   3.475  10.907   5.820 -0.1550  0.1399 -0.0918
 1268ERGO    R217205   3.512  10.900   6.094 -0.0342  0.0727 -0.1079
 1268ERGO    R317206   3.253  10.816   6.094 -0.0608  0.1539 -0.0107
 1268ERGO    R417207   3.367  10.710   6.343  0.0400 -0.0060 -0.1245
 1268ERGO    R517208   3.263  10.596   6.189 -0.0788  0.1036 -0.1256
 1268ERGO    C117209   3.040  10.520   6.489  0.0583  0.0244 -0.0431
 1268ERGO    C217210   2.966  10.278   6.801 -0.1488  0.1901  0.0940
 1269ERGO   ROH17211  13.310  15.528   6.451  0.0449 -0.0471  0.0127
 1269ERGO    R117212  13.433  15.736   6.599  0.2102 -0.1649  0.0443
 1269ERGO    R217213  13.318  15.846   6.824  0.1813  0.0555 -0.0721
 1269ERGO    R317214  13.556  15.782   6.939  0.0132 -0.2337  0.1250
 1269ERGO    R417215  13.427  15.963   7.130  0.1368  0.0319 -0.0474
 1269ERGO    R517216  13.627  15.984   7.045  0.2285 -0.2892  0.0844
 1269ERGO    C117217  13.714  15.970   7.416 -0.0471 -0.2535  0.1521
 1269ERGO    C217218  13.609  15.919   7.698  0.2900  0.1760 -0.2050
 1270ERGO   ROH17219   9.630  14.986   6.423 -0.0879  0.4472  0.1865
 1270ERGO    R117220   9.716  14.852   6.657  0.0004  0.3472  0.0982
 1270ERGO    R217221   9.891  14.967   6.838 -0.0050  0.3080  0.1292
 1270ERGO    R317222   9.695  14.908   7.016  0.0468  0.1434  0.1337
 1270ERGO    R417223   9.911  15.022   7.178 -0.0452  0.3284  0.1280
 1270ERGO    R517224   9.812  14.831   7.210  0.1167  0.2440  0.1321
 1270ERGO    C117225   9.737  15.000   7.544 -0.0200  0.1858  0.1316
 1270ERGO    C217226   9.739  15.004   7.876 -0.0854 -0.3337 -0.2857
 1271ERGO   ROH17227   3.754   9.275   5.701 -0.2016  0.2557 -0.0024
 1271ERGO    R117228   3.780   9.086   5.910 -0.0684  0.0967 -0.1573
 1271ERGO    R217229   3.771   9.156   6.177  0.1792 -0.0913 -0.0862
 1271ERGO    R317230   3.575   8.969   6.187  0.1369 -0.0435 -0.0657
 1271ERGO    R417231   3.649   9.012   6.467  0.1207 -0.0270 -0.0801
 1271ERGO    R517232   3.642   8.821   6.363  0.0821 -0.0328 -0.0456
 1271ERGO    C117233   3.394   8.752   6.644  0.0470  0.0554 -0.0573
 1271ERGO    C217234   3.298   8.459   6.792  0.0210  0.3946  0.0663
 1272ERGO   ROH17235   1.150   4.894   5.587  0.1490  0.1309 -0.1390
 1272ERGO    R117236   1.277   5.026   5.802 -0.0328  0.1940 -0.0685
 1272ERGO    R217237   1.136   5.166   5.994 -0.2209 -0.0085 -0.0525
 1272ERGO    R317238   1.272   5.005   6.166 -0.0926  0.0727 -0.0765
 1272ERGO    R417239   1.103   5.171   6.338 -0.1174  0.0094 -0.0427
 1272ERGO    R517240   1.319   5.144   6.354 -0.1005  0.1127 -0.1053
 1272ERGO    C117241   1.211   5.022   6.699  0.0634  0.0961 -0.0596
 1272ERGO    C217242   1.248   5.187   7.031 -0.1291 -0.1777  0.3136
 1273ERGO   ROH17243   0.737  12.505   6.958  0.1598 -0.0651  0.2062
 1273ERGO    R117244   0.566  12.686   7.092  0.1502  0.0288  0.0671
 1273ERGO    R217245   0.393  12.608   7.293 -0.0533  0.1270 -0.0711
 1273ERGO    R317246   0.519  12.803   7.433 -0.0640  0.0598  0.0296
 1273ERGO    R417247   0.240  12.817   7.521 -0.1576  0.2680 -0.2675
 1273ERGO    R517248   0.360  12.981   7.444  0.0434  0.1731 -0.1709
 1273ERGO    C117249   0.270  13.122   7.787 -0.2284  0.2869 -0.2874
 1273ERGO    C217250   0.191  13.286   8.112 -0.0375 -0.2967  0.0586
 1274ERGO   ROH17251   7.797  12.813   6.293  0.2594  0.0106 -0.0989
 1274ERGO    R117252   7.978  12.920   6.482  0.1974 -0.0303 -0.0157
 1274ERGO    R217253   8.022  13.192   6.508  0.3004 -0.0432 -0.0448
 1274ERGO    R317254   7.959  13.145   6.768  0.1287  0.0351 -0.0714
 1274ERGO    R417255   8.089  13.408   6.770  0.1071  0.0442 -0.0659
 1274ERGO    R517256   8.143  13.235   6.891  0.0384  0.0875  0.0255
 1274ERGO    C117257   8.068  13.489   7.166 -0.1667  0.1686 -0.1032
 1274ERGO    C217258   8.121  13.601   7.435  0.0413 -0.0021  0.0055
 1275ERGO   ROH17259   0.882   6.568   5.914 -0.1346  0.1886 -0.0256
 1275ERGO    R117260   0.933   6.587   6.191 -0.1162  0.0936 -0.0221
 1275ERGO    R217261   0.868   6.385   6.369 -0.2256  0.0873 -0.0685
 1275ERGO    R317262   1.130   6.404   6.437 -0.2119 -0.0771 -0.0701
 1275ERGO    R417263   0.990   6.379   6.692 -0.2580  0.3141 -0.0509
 1275ERGO    R517264   1.131   6.536   6.637 -0.1121  0.1331 -0.2046
 1275ERGO    C117265   1.307   6.395   6.944 -0.2640  0.2919 -0.0422
 1275ERGO    C217266   1.564   6.105   7.157  0.1190 -0.1493  0.0834
 1276ERGO   ROH17267  14.843   8.517   6.167  0.0703 -0.1808 -0.1077
 1276ERGO    R117268  14.865   8.371   6.408  0.2017 -0.0401 -0.0318
 1276ERGO    R217269  15.042   8.441   6.609  0.0572  0.2956 -0.0084
 1276ERGO    R317270  14.818   8.437   6.763  0.0120  0.0682 -0.0772
 1276ERGO    R417271  15.031   8.524   6.944 -0.1331  0.2446 -0.0016
 1276ERGO    R517272  14.893   8.358   6.976  0.0138  0.1148 -0.0648
 1276ERGO    C117273  14.814   8.569   7.284 -0.2864  0.0014 -0.0622
 1276ERGO    C217274  14.814   8.600   7.607  0.1906 -0.1766 -0.0450
 1277ERGO   ROH17275  13.603   8.923   6.581  0.1193  0.0241 -0.0170
 1277ERGO    R117276  13.602   9.120   6.784  0.0266  0.0257 -0.0184
 1277ERGO    R217277  13.380   9.274   6.842 -0.0860 -0.1648  0.0646
 1277ERGO    R317278  13.420   9.180   7.093  0.0906 -0.1294  0.0507
 1277ERGO    R417279  13.345   9.461   7.130 -0.1165 -0.1849  0.0739
 1277ERGO    R517280  13.523   9.363   7.209 -0.0051 -0.0446  0.0045
 1277ERGO    C117281  13.363   9.481   7.535  0.0315 -0.1634  0.0663
 1277ERGO    C217282  13.514   9.639   7.809 -0.0967  0.1331 -0.1850
 1278ERGO   ROH17283   3.530  16.319   5.340 -0.0501  0.0909 -0.0459
 1278ERGO    R117284   3.587  16.389   5.609 -0.0334  0.1579 -0.0670
 1278ERGO    R217285   3.512  16.630   5.719 -0.0452  0.1770 -0.1171
 1278ERGO    R317286   3.396  16.472   5.907 -0.0154  0.2098 -0.0700
 1278ERGO    R417287   3.428  16.732   6.039 -0.2400  0.3067 -0.2072
 1278ERGO    R517288   3.498  16.539   6.113 -0.1422  0.3960 -0.0669
 1278ERGO    C117289   3.270  16.642   6.401 -0.3255  0.4132 -0.2155
 1278ERGO    C217290   3.256  16.853   6.727 -0.0794 -0.3201  0.1442
 1279ERGO   ROH17291  12.391  10.975   6.300 -0.1108 -0.2164  0.0135
 1279ERGO    R117292  12.424  10.728   6.435  0.0068 -0.1698  0.0705
 1279ERGO    R217293  12.468  10.490   6.302  0.0419 -0.1913  0.1221
 1279ERGO    R317294  12.685  10.476   6.465  0.0953 -0.0802  0.0624
 1279ERGO    R417295  12.626  10.197   6.393  0.1435 -0.1205  0.1765
 1279ERGO    R517296  12.648  10.278   6.595  0.1840 -0.0452  0.1426
 1279ERGO    C117297  12.922  10.013   6.600  0.2529  0.0251  0.1522
 1279ERGO    C217298  13.122   9.824   6.770  0.0596  0.0578 -0.0876
 1280ERGO   ROH17299  16.904   5.587   5.835  0.1285  0.0139 -0.1202
 1280ERGO    R117300  16.953   5.694   6.093 -0.0492  0.0735 -0.1097
 1280ERGO    R217301  16.791   5.639   6.310 -0.0905 -0.0318 -0.1661
 1280ERGO    R317302  17.025   5.562   6.424 -0.0735  0.1555 -0.0716
 1280ERGO    R417303  16.832   5.570   6.646 -0.1861 -0.0505 -0.1580
 1280ERGO    R517304  17.025   5.671   6.638 -0.2694  0.1222 -0.0518
 1280ERGO    C117305  17.076   5.457   6.949 -0.2256  0.1144 -0.0646
 1280ERGO    C217306  17.057   5.242   7.201  0.0113  0.0457  0.1296
 1281ERGO   ROH17307   2.337   6.867   5.699 -0.2062  0.1955  0.0067
 1281ERGO    R117308   2.524   6.902   5.909 -0.1034  0.1405 -0.0752
 1281ERGO    R217309   2.570   7.148   6.027 -0.1315  0.0871  0.0422
 1281ERGO    R317310   2.514   7.013   6.256  0.0479 -0.0678 -0.0013
 1281ERGO    R417311   2.666   7.247   6.344 -0.3622  0.1824  0.0848
 1281ERGO    R517312   2.710   7.039   6.390 -0.0157  0.2370  0.0441
 1281ERGO    C117313   2.669   7.178   6.743 -0.3282  0.0924  0.0687
 1281ERGO    C217314   2.622   7.015   7.160 -0.3307 -0.1231  0.0641
 1282ERGO   ROH17315  16.399  16.417   6.205  0.0498 -0.0035  0.0169
 1282ERGO    R117316  16.329  16.475   6.473  0.2108 -0.0224  0.0623
 1282ERGO    R217317  16.070  16.527   6.552  0.2833  0.1317  0.1906
 1282ERGO    R317318  16.118  16.327   6.730  0.2285  0.0566  0.1243
 1282ERGO    R417319  15.954  16.520   6.878 -0.0975 -0.1565  0.0579
 1282ERGO    R517320  16.147  16.440   6.940 -0.1023 -0.0457  0.2337
 1282ERGO    C117321  15.931  16.329   7.234 -0.3706 -0.3948 -0.0817
 1282ERGO    C217322  15.865  16.174   7.519 -0.0346 -0.1403 -0.0913
 1283ERGO   ROH17323   8.567   8.951   6.186 -0.0749  0.1339  0.1563
 1283ERGO    R117324   8.614   8.920   6.463  0.2374  0.0367  0.0959
 1283ERGO    R217325   8.505   8.713   6.610  0.1983  0.1288  0.1909
 1283ERGO    R317326   8.764   8.668   6.679  0.2426 -0.1620 -0.1320
 1283ERGO    R417327   8.608   8.568   6.906  0.4003  0.5010  0.3093
 1283ERGO    R517328   8.771   8.713   6.915  0.6651  0.2664 -0.2056
 1283ERGO    C117329   8.911   8.442   7.144  0.5593  0.4447  0.0752
 1283ERGO    C217330   8.957   8.372   7.409 -0.1432  0.0041  0.1644
 1284ERGO   ROH17331  14.345   1.256   6.067  0.0819 -0.1028 -0.0136
 1284ERGO    R117332  14.477   1.401   6.271  0.1115  0.0154 -0.1146
 1284ERGO    R217333  14.479   1.318   6.535 -0.1328  0.3365 -0.0017
 1284ERGO    R317334  14.748   1.340   6.506 -0.0902  0.0161  0.1209
 1284ERGO    R417335  14.703   1.347   6.796 -0.2218  0.2065  0.0902
 1284ERGO    R517336  14.814   1.493   6.678  0.0030  0.0228  0.0752
 1284ERGO    C117337  15.087   1.384   6.921 -0.2337 -0.1700  0.2589
 1284ERGO    C217338  15.163   1.548   7.182 -0.0753 -0.0317 -0.2487
 1285ERGO   ROH17339   4.186   4.262   5.540 -0.2084  0.0685  0.0473
 1285ERGO    R117340   4.063   4.263   5.795 -0.0435  0.0998  0.1273
 1285ERGO    R217341   4.080   4.049   5.969 -0.1510  0.0163  0.0323
 1285ERGO    R317342   4.173   4.238   6.141  0.1555 -0.1436  0.0505
 1285ERGO    R417343   4.079   4.019   6.313 -0.3425  0.0422  0.0348
 1285ERGO    R517344   4.020   4.229   6.326  0.0598  0.1670 -0.0061
 1285ERGO    C117345   4.165   4.178   6.675 -0.1663 -0.0928  0.0535
 1285ERGO    C217346   4.140   4.401   6.916 -0.0848  0.3481  0.4147
 1286ERGO   ROH17347   4.119  12.453   5.992 -0.1336 -0.1201  0.0139
 1286ERGO    R117348   4.210  12.397   6.254 -0.0552 -0.0604 -0.0013
 1286ERGO    R217349   4.057  12.446   6.479 -0.0294 -0.1129  0.0215
 1286ERGO    R317350   4.106  12.184   6.530  0.0985 -0.0879  0.0386
 1286ERGO    R417351   4.012  12.293   6.785 -0.0999 -0.1393 -0.0009
 1286ERGO    R517352   4.196  12.182   6.751 -0.0119 -0.0340  0.0896
 1286ERGO    C117353   4.032  11.957   7.011 -0.0209 -0.1312  0.0022
 1286ERGO    C217354   3.786  11.737   7.164 -0.1811 -0.1285  0.2055
 1287ERGO   ROH17355  16.235   9.933   6.358  0.0755  0.0219  0.0494
 1287ERGO    R117356  16.116   9.858   6.603 -0.0407  0.2078  0.0509
 1287ERGO    R217357  16.198   9.637   6.747 -0.3713  0.0898  0.0560
 1287ERGO    R317358  16.225   9.817   6.948 -0.1042  0.0575  0.0558
 1287ERGO    R417359  16.284   9.558   7.072 -0.4285 -0.0405  0.0413
 1287ERGO    R517360  16.138   9.704   7.141 -0.2331  0.1601  0.0654
 1287ERGO    C117361  16.359   9.682   7.451 -0.2109 -0.1467  0.0325
 1287ERGO    C217362  16.484   9.426   7.651  0.2769 -0.2601  0.1530
 1288ERGO   ROH17363  11.315  14.585   6.181  0.0129 -0.0303 -0.1164
 1288ERGO    R117364  11.381  14.696   6.432  0.1676  0.1447 -0.2301
 1288ERGO    R217365  11.378  14.548   6.666 -0.2744  0.4372 -0.0315
 1288ERGO    R317366  11.633  14.638   6.689 -0.0606 -0.1225 -0.0627
 1288ERGO    R417367  11.542  14.599   6.965 -0.2945  0.5360 -0.0377
 1288ERGO    R517368  11.628  14.781   6.881  0.1807  0.2082 -0.2956
 1288ERGO    C117369  11.877  14.713   7.162 -0.1057  0.0681 -0.0707
 1288ERGO    C217370  12.095  14.760   7.438 -0.1806 -0.3415 -0.3015
 1289ERGO   ROH17371   9.522   8.915   6.029  0.1157  0.1074  0.0181
 1289ERGO    R117372   9.688   8.939   6.257  0.0398  0.0104  0.0835
 1289ERGO    R217373   9.597   8.886   6.513 -0.0381 -0.1201  0.0265
 1289ERGO    R317374   9.812   8.719   6.519 -0.0255 -0.1055  0.0187
 1289ERGO    R417375   9.730   8.747   6.800 -0.0222 -0.1114  0.0241
 1289ERGO    R517376   9.929   8.782   6.718 -0.0247 -0.0962  0.0177
 1289ERGO    C117377  10.008   8.509   6.973 -0.0013 -0.0928  0.0155
 1289ERGO    C217378  10.134   8.372   7.333  0.0354  0.0710  0.1105
 1290ERGO   ROH17379   6.998   0.063   6.241 -0.0074 -0.0997 -0.0398
 1290ERGO    R117380   6.811   0.089   6.452  0.0612 -0.0835  0.0190
 1290ERGO    R217381   6.886   0.094   6.718  0.1627  0.0933 -0.0120
 1290ERGO    R317382   6.746   0.327   6.720  0.0462  0.0249 -0.0803
 1290ERGO    R417383   6.785   0.262   7.003  0.0200  0.0938 -0.0620
 1290ERGO    R517384   6.595   0.305   6.904  0.0189 -0.0172 -0.1080
 1290ERGO    C117385   6.594   0.579   7.170 -0.1725  0.0299 -0.1552
 1290ERGO    C217386   6.602   0.821   7.516  0.3309 -0.1184  0.2497
 1291ERGO   ROH17387   1.414   3.888   5.585 -0.0115  0.0615 -0.0711
 1291ERGO    R117388   1.407   3.897   5.868 -0.1236 -0.0261 -0.0699
 1291ERGO    R217389   1.538   4.092   6.014  0.1707 -0.3101  0.0597
 1291ERGO    R317390   1.292   4.132   6.122  0.1844  0.1013 -0.0446
 1291ERGO    R417391   1.476   4.138   6.350  0.0996 -0.2216  0.0344
 1291ERGO    R517392   1.299   4.013   6.330 -0.1076  0.0765 -0.0471
 1291ERGO    C117393   1.208   4.203   6.648  0.0711  0.2161 -0.0781
 1291ERGO    C217394   1.179   4.211   7.011 -0.1745 -0.5773 -0.1303
 1292ERGO   ROH17395   3.391   0.303   6.009 -0.0438  0.1274  0.1198
 1292ERGO    R117396   3.317   0.234   6.273 -0.1840  0.0622  0.0646
 1292ERGO    R217397   3.476   0.290   6.492 -0.2163 -0.1495  0.1462
 1292ERGO    R317398   3.251   0.411   6.584 -0.1617 -0.0276  0.1204
 1292ERGO    R417399   3.420   0.378   6.821 -0.1904 -0.0804  0.1320
 1292ERGO    R517400   3.213   0.312   6.798 -0.2213  0.0181  0.1306
 1292ERGO    C117401   3.175   0.543   7.099 -0.1240  0.0743  0.0996
 1292ERGO    C217402   2.922   0.725   7.328 -0.2712 -0.2264 -0.0728
 1293ERGO   ROH17403   1.406  10.809   5.839  0.0969 -0.0889  0.0502
 1293ERGO    R117404   1.319  10.952   6.067  0.0603 -0.1670  0.0854
 1293ERGO    R217405   1.057  11.035   6.099  0.1008  0.0111 -0.0323
 1293ERGO    R317406   1.078  10.901   6.335 -0.1526 -0.1564 -0.1005
 1293ERGO    R417407   0.910  11.134   6.396  0.2051  0.0851 -0.0044
 1293ERGO    R517408   1.092  11.074   6.500  0.0965 -0.2649 -0.0026
 1293ERGO    C117409   0.844  11.066   6.790  0.0279 -0.0289 -0.0521
 1293ERGO    C217410   0.601  11.213   6.967  0.0812 -0.0342  0.2023
 1294ERGO   ROH17411   4.578   4.084   5.394  0.1131 -0.1502  0.0509
 1294ERGO    R117412   4.667   3.965   5.635  0.0536 -0.2566  0.0200
 1294ERGO    R217413   4.610   4.072   5.883  0.2338 -0.2082  0.0395
 1294ERGO    R317414   4.512   3.823   5.932 -0.0161 -0.1098  0.0549
 1294ERGO    R417415   4.513   3.955   6.193  0.2100 -0.1253  0.0643
 1294ERGO    R517416   4.604   3.763   6.144 -0.0085 -0.2218  0.0212
 1294ERGO    C117417   4.364   3.653   6.419 -0.0384  0.0152  0.0933
 1294ERGO    C217418   4.214   3.621   6.648 -0.1718  0.1430  0.2688
 1295ERGO   ROH17419  14.090  11.484   6.284 -0.0475  0.1472 -0.1363
 1295ERGO    R117420  14.298  11.501   6.475 -0.0450 -0.1258 -0.1109
 1295ERGO    R217421  14.385  11.742   6.579  0.2380 -0.2389 -0.0780
 1295ERGO    R317422  14.335  11.620   6.817  0.0623 -0.2024 -0.0950
 1295ERGO    R417423  14.504  11.849   6.885  0.4083 -0.4562 -0.0652
 1295ERGO    R517424  14.539  11.641   6.939  0.1025 -0.5228 -0.0968
 1295ERGO    C117425  14.525  11.797   7.287  0.3425 -0.5486 -0.0737
 1295ERGO    C217426  14.341  11.999   7.650 -0.0944 -0.2702  0.1845
 1296ERGO   ROH17427  12.065   5.037   6.194 -0.2122  0.2661  0.0938
 1296ERGO    R117428  12.120   4.991   6.468 -0.0493  0.1670  0.0450
 1296ERGO    R217429  12.162   5.196   6.648 -0.0704  0.1052  0.1163
 1296ERGO    R317430  11.964   5.072   6.787  0.0659 -0.0670  0.1652
 1296ERGO    R417431  12.046   5.296   6.958 -0.1122  0.0422  0.1218
 1296ERGO    R517432  12.034   5.086   7.015  0.0957  0.0317  0.1541
 1296ERGO    C117433  11.793   5.238   7.269 -0.0089 -0.1561  0.1709
 1296ERGO    C217434  11.578   5.364   7.426 -0.0026 -0.1397 -0.1153
 1297ERGO   ROH17435  17.720   7.269   6.492  0.1986  0.1712  0.0496
 1297ERGO    R117436  17.832   7.202   6.744  0.1243  0.1820  0.0853
 1297ERGO    R217437  17.937   7.393   6.915  0.0482  0.1900  0.1177
 1297ERGO    R317438  17.763   7.281   7.092  0.0059  0.1725  0.0661
 1297ERGO    R417439  17.972   7.400   7.259  0.2835 -0.3306  0.1146
 1297ERGO    R517440  17.902   7.194   7.266  0.0104 -0.2604 -0.1351
 1297ERGO    C117441  17.829   7.300   7.625  0.3807 -0.6502  0.0644
 1297ERGO    C217442  17.882   7.337   7.803 -0.1915  0.0359 -0.0337
 1298ERGO   ROH17443  15.190   2.672   6.122 -0.0561 -0.1500  0.0566
 1298ERGO    R117444  15.165   2.786   6.380 -0.0002  0.0558 -0.0262
 1298ERGO    R217445  15.143   2.632   6.609 -0.2127  0.2314  0.0790
 1298ERGO    R317446  15.354   2.783   6.691 -0.0738  0.0714  0.0178
 1298ERGO    R417447  15.236   2.680   6.939 -0.1703  0.2944  0.0579
 1298ERGO    R517448  15.278   2.888   6.892  0.0248  0.2324 -0.0319
 1298ERGO    C117449  15.489   2.848   7.207 -0.0153  0.1807 -0.0119
 1298ERGO    C217450  15.601   2.750   7.529  0.2595  0.0647 -0.0460
 1299ERGO   ROH17451   4.972  18.771   9.094 -0.3235 -0.2744  0.1710
 1299ERGO    R117452   4.988  18.904   8.845 -0.2413 -0.0438  0.2972
 1299ERGO    R217453   5.029  18.770   8.607  0.0576  0.1954  0.2097
 1299ERGO    R317454   4.803  18.902   8.531  0.0034  0.0701  0.1487
 1299ERGO    R417455   4.897  18.769   8.287  0.1311  0.0975  0.1791
 1299ERGO    R517456   4.852  18.981   8.311  0.0128  0.0777  0.1521
 1299ERGO    C117457   4.609  18.892   8.030  0.1230 -0.0772  0.1039
 1299ERGO    C217458   4.430  18.730   7.747  0.0262  0.1857  0.0237
 1300ERGO   ROH17459  16.266  12.748   6.047  0.3170 -0.1200  0.0937
 1300ERGO    R117460  16.470  12.796   6.237  0.2483  0.0387  0.1317
 1300ERGO    R217461  16.425  12.935   6.472  0.0744 -0.0566  0.1625
 1300ERGO    R317462  16.532  12.712   6.586  0.2814  0.0124  0.1210
 1300ERGO    R417463  16.588  12.927   6.777  0.2495  0.0700  0.0730
 1300ERGO    R517464  16.733  12.789   6.691  0.2948  0.1514  0.0015
 1300ERGO    C117465  16.782  12.713   7.062  0.5459  0.2086 -0.0180
 1300ERGO    C217466  16.987  12.695   7.268 -0.2962  0.3234 -0.0608
 1301ERGO   ROH17467  11.272   8.900   6.326  0.1350 -0.0201  0.0334
 1301ERGO    R117468  11.252   8.828   6.598 -0.0473  0.0573  0.0421
 1301ERGO    R217469  11.473   8.802   6.762 -0.1328 -0.1647  0.1260
 1301ERGO    R317470  11.337   8.978   6.919  0.0110  0.0262  0.0415
 1301ERGO    R417471  11.516   8.836   7.103 -0.2044 -0.1338  0.1323
 1301ERGO    R517472  11.300   8.858   7.123 -0.1891  0.1131  0.0586
 1301ERGO    C117473  11.413   9.020   7.449 -0.1111  0.0633  0.0566
 1301ERGO    C217474  11.348   9.277   7.778  0.0918  0.4810  0.3288
 1302ERGO   ROH17475  11.929  17.056   6.536  0.1415 -0.0003  0.0750
 1302ERGO    R117476  11.993  17.036   6.811  0.0881 -0.2440  0.0722
 1302ERGO    R217477  11.903  17.219   6.998  0.3671 -0.1883  0.1533
 1302ERGO    R317478  11.810  16.996   7.123 -0.0079 -0.1056  0.0357
 1302ERGO    R417479  11.865  17.184   7.340  0.3847 -0.3232  0.1425
 1302ERGO    R517480  11.940  16.981   7.323  0.0189 -0.4586  0.0008
 1302ERGO    C117481  11.755  16.955   7.656  0.0429 -0.3240  0.0258
 1302ERGO    C217482  11.694  16.999   7.931 -0.0201  0.0205 -0.2509
 1303ERGO   ROH17483  12.134  12.795   6.707 -0.0568 -0.0955  0.0201
 1303ERGO    R117484  12.244  12.838   6.965 -0.0162  0.0063 -0.0135
 1303ERGO    R217485  12.098  12.803   7.197  0.0417  0.0243  0.0266
 1303ERGO    R317486  12.303  12.638   7.263  0.1050  0.1032  0.0279
 1303ERGO    R417487  12.140  12.655   7.506  0.0521 -0.0283  0.0001
 1303ERGO    R517488  12.354  12.694   7.490  0.0365  0.0734  0.0499
 1303ERGO    C117489  12.358  12.414   7.749  0.1177  0.0152 -0.0142
 1303ERGO    C217490  12.219  12.400   8.003  0.2132 -0.2432  0.0962
 1304ERGO   ROH17491   2.041  11.482   5.397 -0.0275 -0.4589  0.0098
 1304ERGO    R117492   1.965  11.420   5.663 -0.0026 -0.3417  0.0451
 1304ERGO    R217493   2.038  11.186   5.788  0.1290 -0.2250  0.1931
 1304ERGO    R317494   2.133  11.355   5.979  0.0239 -0.0515  0.0931
 1304ERGO    R417495   1.964  11.165   6.125  0.0679 -0.0119  0.1935
 1304ERGO    R517496   1.950  11.383   6.130 -0.0175 -0.0135  0.0350
 1304ERGO    C117497   2.010  11.312   6.500 -0.0665  0.2751  0.1000
 1304ERGO    C217498   2.010  11.270   6.827 -0.0225  0.1677 -0.1429
 1305ERGO   ROH17499  17.711   8.546   6.285 -0.0832 -0.0502  0.1767
 1305ERGO    R117500  17.618   8.662   6.526 -0.1443 -0.0897  0.1741
 1305ERGO    R217501  17.541   8.510   6.745  0.0438 -0.1238  0.2266
 1305ERGO    R317502  17.722   8.666   6.875 -0.0713  0.0752  0.1498
 1305ERGO    R417503  17.555   8.554   7.087  0.2440 -0.2352  0.2329
 1305ERGO    R517504  17.598   8.764   7.054 -0.0710 -0.1638  0.2802
 1305ERGO    C117505  17.733   8.725   7.409  0.2525 -0.1132  0.1644
 1305ERGO    C217506  17.957   8.827   7.734 -0.0987 -0.5407  0.1364
 1306ERGO   ROH17507   9.664   1.266   6.111  0.1659  0.1209  0.0807
 1306ERGO    R117508   9.543   1.368   6.346  0.0650  0.1317  0.0245
 1306ERGO    R217509   9.310   1.262   6.452  0.0156  0.1407 -0.0738
 1306ERGO    R317510   9.460   1.241   6.677 -0.0834  0.1447 -0.0068
 1306ERGO    R417511   9.185   1.192   6.766 -0.1073  0.0164 -0.1491
 1306ERGO    R517512   9.324   1.339   6.848 -0.2028  0.0507 -0.0472
 1306ERGO    C117513   9.253   1.132   7.161 -0.2719 -0.0522 -0.1300
 1306ERGO    C217514   9.208   0.917   7.332 -0.0371 -0.1690  0.0241
 1307ERGO   ROH17515   6.875   6.918   5.773 -0.0251 -0.2225 -0.1384
 1307ERGO    R117516   6.760   6.967   6.027  0.1739 -0.1361 -0.0638
 1307ERGO    R217517   6.497   6.906   6.085  0.1542  0.1037  0.0895
 1307ERGO    R317518   6.608   6.768   6.291  0.1484 -0.0162  0.0141
 1307ERGO    R417519   6.354   6.868   6.398  0.2466  0.1311  0.1361
 1307ERGO    R517520   6.551   6.896   6.486  0.3054 -0.0164  0.0659
 1307ERGO    C117521   6.375   6.716   6.773  0.2948  0.0345  0.0924
 1307ERGO    C217522   6.218   6.903   7.026 -0.0015  0.2885 -0.2680
 1308ERGO   ROH17523   3.404  18.339   5.704 -0.0706  0.0507  0.1455
 1308ERGO    R117524   3.497  18.322   5.971 -0.1896  0.1181  0.1923
 1308ERGO    R217525   3.332  18.253   6.181 -0.2285 -0.0794  0.1017
 1308ERGO    R317526   3.523  18.064   6.226 -0.0516  0.1137  0.1738
 1308ERGO    R417527   3.334  18.034   6.449 -0.0769 -0.0463  0.1279
 1308ERGO    R517528   3.550  18.063   6.464 -0.1091  0.1693  0.1792
 1308ERGO    C117529   3.514  17.730   6.647  0.1775  0.1543  0.2107
 1308ERGO    C217530   3.419  17.387   6.638 -0.1187 -0.0262  0.0312
 1309ERGO   ROH17531  17.232  12.452   5.823  0.0524 -0.1667 -0.0640
 1309ERGO    R117532  17.391  12.322   6.018  0.1019 -0.1185 -0.0716
 1309ERGO    R217533  17.598  12.449   6.149  0.0582 -0.0493 -0.0671
 1309ERGO    R317534  17.465  12.367   6.371  0.0894 -0.1080 -0.0704
 1309ERGO    R417535  17.718  12.474   6.473  0.1126 -0.1526 -0.0793
 1309ERGO    R517536  17.635  12.277   6.514  0.1078 -0.1603 -0.1251
 1309ERGO    C117537  17.662  12.412   6.869  0.1738 -0.2678 -0.0896
 1309ERGO    C217538  17.492  12.588   7.166 -0.0748  0.0452  0.0098
 1310ERGO   ROH17539  14.671  16.673   6.689 -0.1308 -0.1386 -0.1742
 1310ERGO    R117540  14.720  16.650   6.967 -0.0687 -0.1579 -0.1868
 1310ERGO    R217541  14.892  16.463   7.073  0.2332  0.0697 -0.2693
 1310ERGO    R317542  15.007  16.680   7.188 -0.0874  0.2108 -0.2034
 1310ERGO    R417543  14.991  16.479   7.403  0.2573  0.0833 -0.2774
 1310ERGO    R517544  14.915  16.684   7.410 -0.0675 -0.0283 -0.1839
 1310ERGO    C117545  15.158  16.692   7.704 -0.0297  0.2235 -0.2203
 1310ERGO    C217546  15.027  16.593   8.089  0.0629 -0.5682  0.0545
 1311ERGO   ROH17547   2.509   4.416   5.462 -0.4138  0.0877 -0.0704
 1311ERGO    R117548   2.501   4.258   5.696 -0.1242  0.0844 -0.0597
 1311ERGO    R217549   2.646   4.320   5.924 -0.1505  0.3063 -0.1030
 1311ERGO    R317550   2.403   4.305   6.044 -0.1028 -0.0386 -0.0363
 1311ERGO    R417551   2.593   4.326   6.265 -0.0816  0.4914 -0.0936
 1311ERGO    R517552   2.441   4.173   6.239  0.1857  0.1864  0.0674
 1311ERGO    C117553   2.333   4.315   6.576  0.0034  0.2753 -0.0255
 1311ERGO    C217554   2.179   4.248   6.954  0.0044 -0.1970 -0.0549
 1312ERGO   ROH17555   2.974  13.887   6.073  0.0154 -0.0747 -0.0054
 1312ERGO    R117556   2.961  13.873   6.355 -0.1170 -0.0461 -0.0084
 1312ERGO    R217557   3.177  13.936   6.517 -0.1387 -0.1857  0.0844
 1312ERGO    R317558   2.999  14.106   6.633 -0.0719 -0.0507 -0.0123
 1312ERGO    R417559   3.206  14.066   6.836 -0.1363 -0.0764  0.0388
 1312ERGO    R517560   2.991  14.038   6.862 -0.1515  0.0445  0.0103
 1312ERGO    C117561   3.056  14.302   7.130 -0.0721  0.1140 -0.0785
 1312ERGO    C217562   2.999  14.301   7.456 -0.3938 -0.1898 -0.2000
 1313ERGO   ROH17563   7.827   6.909   6.029  0.0323 -0.2005 -0.1218
 1313ERGO    R117564   7.814   6.778   6.279 -0.1553 -0.1977 -0.1287
 1313ERGO    R217565   7.789   6.914   6.518 -0.0473 -0.1775 -0.1283
 1313ERGO    R317566   7.574   6.751   6.552 -0.2350  0.0539 -0.1716
 1313ERGO    R417567   7.669   6.806   6.824 -0.0630 -0.2598 -0.1632
 1313ERGO    R517568   7.635   6.610   6.735 -0.3339 -0.1581 -0.2978
 1313ERGO    C117569   7.398   6.590   7.033 -0.2483 -0.0905 -0.2242
 1313ERGO    C217570   7.198   6.618   7.273  0.0493  0.1037  0.1404
 1314ERGO   ROH17571  18.625   4.154   5.555  0.0186  0.0737 -0.0867
 1314ERGO    R117572  18.796   4.144   5.781  0.0109 -0.0655 -0.0859
 1314ERGO    R217573  18.762   4.310   6.000  0.2311  0.0661 -0.1480
 1314ERGO    R317574  18.760   4.075   6.137 -0.0792  0.1167 -0.0583
 1314ERGO    R417575  18.904   4.262   6.311  0.2129 -0.0162 -0.1522
 1314ERGO    R517576  18.974   4.067   6.244 -0.0710 -0.1448 -0.0895
 1314ERGO    C117577  18.984   4.013   6.621 -0.0890 -0.0166 -0.0705
 1314ERGO    C217578  19.007   4.125   6.976  0.3233  0.2166  0.0101
 1315ERGO   ROH17579  14.373   6.314   6.161 -0.0302 -0.0332 -0.1008
 1315ERGO    R117580  14.281   6.452   6.391 -0.0327 -0.0809 -0.0736
 1315ERGO    R217581  14.194   6.321   6.618  0.0503 -0.1259 -0.0707
 1315ERGO    R317582  14.379   6.477   6.741  0.0209 -0.0766 -0.0878
 1315ERGO    R417583  14.236   6.344   6.960 -0.0057 -0.0306 -0.0694
 1315ERGO    R517584  14.267   6.558   6.936 -0.0184 -0.0312 -0.1258
 1315ERGO    C117585  14.435   6.504   7.275 -0.0658  0.0711 -0.0848
 1315ERGO    C217586  14.571   6.491   7.498 -0.2167 -0.4077 -0.2165
 1316ERGO   ROH17587   0.100   1.597   5.854  0.0054  0.1550 -0.2643
 1316ERGO    R117588   0.250   1.744   6.044 -0.1739  0.0679 -0.0506
 1316ERGO    R217589   0.443   1.928   5.971  0.1739 -0.1758  0.2126
 1316ERGO    R317590   0.297   2.094   6.131  0.0576  0.0564 -0.1237
 1316ERGO    R417591   0.568   2.207   6.133  0.1909 -0.2431  0.3160
 1316ERGO    R517592   0.448   2.154   6.307 -0.1919 -0.0357  0.1286
 1316ERGO    C117593   0.505   2.525   6.376  0.0918 -0.0643  0.0605
 1316ERGO    C217594   0.521   2.753   6.498 -0.2240  0.0763 -0.1925
 1317ERGO   ROH17595   4.877   7.146   6.030 -0.1396  0.1218  0.0459
 1317ERGO    R117596   4.880   7.247   6.294 -0.1101 -0.0304  0.1053
 1317ERGO    R217597   4.744   7.477   6.367  0.0794  0.0561  0.2026
 1317ERGO    R317598   4.634   7.313   6.554 -0.1151  0.0445  0.0808
 1317ERGO    R417599   4.601   7.583   6.663  0.0394  0.0124  0.1990
 1317ERGO    R517600   4.694   7.414   6.763 -0.1253 -0.1033  0.1537
 1317ERGO    C117601   4.415   7.492   7.011 -0.1665 -0.0241  0.0827
 1317ERGO    C217602   4.218   7.546   7.247 -0.4126  0.2778 -0.1714
 1318ERGO   ROH17603  12.454  10.486   6.926 -0.2518  0.1489 -0.0752
 1318ERGO    R117604  12.378  10.412   7.189 -0.0983  0.1563 -0.0288
 1318ERGO    R217605  12.552  10.422   7.403 -0.0083  0.2704 -0.1157
 1318ERGO    R317606  12.355  10.574   7.513 -0.0278  0.1953 -0.0408
 1318ERGO    R417607  12.490  10.451   7.742  0.2809  0.4322 -0.0723
 1318ERGO    R517608  12.277  10.446   7.699  0.2356  0.2433  0.1169
 1318ERGO    C117609  12.270  10.611   8.043  0.4310  0.4556  0.0231
 1318ERGO    C217610  12.339  10.848   8.241  0.0310  0.2706 -0.1475
 1319ERGO   ROH17611   6.233   7.854   6.012  0.0103 -0.0769  0.0345
 1319ERGO    R117612   6.288   7.835   6.289  0.0382  0.0663  0.0403
 1319ERGO    R217613   6.165   7.997   6.476 -0.0982  0.0276 -0.0069
 1319ERGO    R317614   6.100   7.759   6.591  0.1126  0.0067  0.0700
 1319ERGO    R417615   6.113   7.949   6.814 -0.0402  0.0769  0.0084
 1319ERGO    R517616   6.219   7.760   6.799  0.1199  0.1675  0.0618
 1319ERGO    C117617   6.022   7.699   7.119  0.1914  0.0859  0.0894
 1319ERGO    C217618   5.757   7.683   7.337  0.3450  0.2270  0.1478
 1320ERGO   ROH17619   4.098   1.032   5.986  0.0974  0.1532 -0.0816
 1320ERGO    R117620   4.017   1.024   6.257 -0.0374  0.0304 -0.1235
 1320ERGO    R217621   4.185   1.097   6.465 -0.0877 -0.2014  0.0081
 1320ERGO    R317622   3.979   1.262   6.529 -0.0183 -0.1156  0.0065
 1320ERGO    R417623   4.076   1.161   6.787 -0.2718 -0.3964 -0.0131
 1320ERGO    R517624   3.871   1.155   6.714 -0.2228 -0.1940 -0.1607
 1320ERGO    C117625   3.820   1.355   7.034 -0.3138 -0.4292 -0.0270
 1320ERGO    C217626   3.794   1.700   7.147 -0.0535 -0.2529  0.3090
 1321ERGO   ROH17627  11.211   5.535   6.236  0.0064 -0.1017  0.0779
 1321ERGO    R117628  11.227   5.508   6.517 -0.0211  0.1211  0.1024
 1321ERGO    R217629  11.111   5.688   6.691 -0.3587  0.0603 -0.0542
 1321ERGO    R317630  10.994   5.465   6.793 -0.0279 -0.0632  0.0695
 1321ERGO    R417631  10.948   5.672   6.995 -0.3448 -0.0094 -0.0500
 1321ERGO    R517632  11.039   5.477   7.028 -0.0488  0.1400  0.0657
 1321ERGO    C117633  10.744   5.454   7.268 -0.0261 -0.1658  0.0685
 1321ERGO    C217634  10.511   5.330   7.576  0.0859 -0.0726  0.0989
 1322ERGO   ROH17635   4.879   5.259   5.743 -0.1713  0.2335  0.0893
 1322ERGO    R117636   4.849   5.061   5.942 -0.1203  0.2722  0.1351
 1322ERGO    R217637   5.062   4.914   6.040 -0.1407  0.0711 -0.1234
 1322ERGO    R317638   4.972   5.004   6.280  0.2423  0.1666 -0.0076
 1322ERGO    R417639   5.129   4.765   6.344 -0.2990 -0.2930 -0.2614
 1322ERGO    R517640   4.923   4.805   6.404 -0.1784  0.1975 -0.1011
 1322ERGO    C117641   5.083   4.762   6.747 -0.0316 -0.4154 -0.2330
 1322ERGO    C217642   5.327   4.487   6.896 -0.1920 -0.0443 -0.0836
 1323ERGO   ROH17643   6.860  18.068   6.304 -0.1677 -0.2447 -0.1822
 1323ERGO    R117644   6.648  17.967   6.463 -0.1918  0.1238  0.0312
 1323ERGO    R217645   6.661  17.721   6.589 -0.5519  0.0208 -0.1295
 1323ERGO    R317646   6.602  17.868   6.810  0.0421  0.0351  0.0411
 1323ERGO    R417647   6.662  17.601   6.913 -0.6945 -0.2759 -0.2354
 1323ERGO    R517648   6.482  17.717   6.952 -0.3370  0.2595 -0.0168
 1323ERGO    C117649   6.606  17.668   7.309 -0.2200 -0.4352 -0.1368
 1323ERGO    C217650   6.601  17.571   7.654  0.0108 -0.0744  0.0079
 1324ERGO   ROH17651  14.561   4.061   6.124 -0.0312 -0.0898 -0.0455
 1324ERGO    R117652  14.676   4.211   6.335 -0.1382 -0.1050  0.0230
 1324ERGO    R217653  14.660   4.486   6.349 -0.1050 -0.1046  0.0195
 1324ERGO    R317654  14.557   4.436   6.595 -0.2563 -0.0879 -0.0494
 1324ERGO    R417655  14.640   4.716   6.607 -0.1440 -0.1352  0.0451
 1324ERGO    R517656  14.697   4.559   6.745 -0.2913 -0.1729  0.0455
 1324ERGO    C117657  14.531   4.802   6.988 -0.3087 -0.1374 -0.0047
 1324ERGO    C217658  14.594   4.938   7.282 -0.0577  0.1033 -0.0369
 1325ERGO   ROH17659   2.278   3.257   5.671  0.2030 -0.4116  0.0693
 1325ERGO    R117660   2.201   3.262   5.944  0.1283 -0.3525  0.0487
 1325ERGO    R217661   2.294   3.078   6.128  0.0816 -0.3143  0.1188
 1325ERGO    R317662   2.367   3.301   6.265  0.0432 -0.2809  0.0828
 1325ERGO    R417663   2.350   3.091   6.469  0.2106 -0.2728  0.0952
 1325ERGO    R517664   2.250   3.285   6.473  0.1352 -0.3180  0.1277
 1325ERGO    C117665   2.452   3.309   6.796  0.2497 -0.2172  0.0477
 1325ERGO    C217666   2.409   3.416   7.099 -0.2420 -0.1162  0.3586
 1326ERGO   ROH17667   4.836   2.219   5.745  0.0426  0.0384 -0.0065
 1326ERGO    R117668   4.846   2.229   6.028  0.1533 -0.0447 -0.0072
 1326ERGO    R217669   5.066   2.145   6.172  0.2657  0.0433 -0.1246
 1326ERGO    R317670   5.050   2.394   6.279  0.1573  0.0014 -0.0412
 1326ERGO    R417671   5.213   2.242   6.469  0.2065  0.0094 -0.0837
 1326ERGO    R517672   5.034   2.357   6.515  0.1586 -0.0808 -0.0557
 1326ERGO    C117673   5.283   2.533   6.744  0.0703 -0.0496  0.0184
 1326ERGO    C217674   5.468   2.679   6.907 -0.0753  0.2840  0.1085
 1327ERGO   ROH17675   9.421   5.775   5.826  0.0718  0.0415 -0.1493
 1327ERGO    R117676   9.528   5.615   6.034 -0.0060 -0.0195 -0.1555
 1327ERGO    R217677   9.795   5.621   6.104 -0.0006 -0.1575 -0.1590
 1327ERGO    R317678   9.696   5.673   6.351  0.0282 -0.1139 -0.1567
 1327ERGO    R417679   9.987   5.697   6.381  0.0233  0.0088 -0.2199
 1327ERGO    R517680   9.854   5.572   6.501  0.0956 -0.0027 -0.1532
 1327ERGO    C117681  10.006   5.790   6.775  0.0642  0.1466 -0.2532
 1327ERGO    C217682  10.061   6.004   7.049  0.1795 -0.1872 -0.3269
 1328ERGO   ROH17683   6.565  16.829   6.208 -0.0903 -0.1192  0.0051
 1328ERGO    R117684   6.445  16.688   6.422 -0.0393 -0.1706  0.0007
 1328ERGO    R217685   6.588  16.606   6.644 -0.0217 -0.0706  0.0299
 1328ERGO    R317686   6.394  16.742   6.778 -0.1189 -0.1679 -0.0117
 1328ERGO    R417687   6.441  16.502   6.939  0.0655 -0.0725  0.0724
 1328ERGO    R517688   6.249  16.572   6.863  0.0118 -0.2442  0.0555
 1328ERGO    C117689   6.174  16.569   7.237  0.0251 -0.1650  0.0581
 1328ERGO    C217690   6.096  16.591   7.511 -0.0112  0.2672  0.0307
 1329ERGO   ROH17691   2.070  13.146   5.965  0.3782  0.1234  0.0700
 1329ERGO    R117692   2.264  13.234   6.151  0.2616  0.1205  0.1941
 1329ERGO    R217693   2.200  13.381   6.376  0.1004 -0.0298  0.2454
 1329ERGO    R317694   2.334  13.183   6.505  0.1464 -0.0311  0.1965
 1329ERGO    R417695   2.273  13.379   6.714  0.0946 -0.0946  0.2469
 1329ERGO    R517696   2.469  13.298   6.665  0.1170 -0.0363  0.2277
 1329ERGO    C117697   2.442  13.193   7.031  0.1343 -0.1334  0.2019
 1329ERGO    C217698   2.570  13.215   7.357  0.0534 -0.1953 -0.0706
 1330ERGO   ROH17699  18.778   9.915   6.407 -0.1883 -0.0361 -0.0137
 1330ERGO    R117700  19.021   9.793   6.486 -0.1913 -0.1987 -0.2472
 1330ERGO    R217701  19.161   9.872   6.711  0.2345 -0.0828 -0.5450
 1330ERGO    R317702  19.142   9.609   6.775  0.0548  0.0029 -0.2170
 1330ERGO    R417703  19.363   9.709   6.939  0.1344  0.0629 -0.3472
 1330ERGO    R517704  19.369   9.538   6.804  0.0129 -0.1147 -0.1412
 1330ERGO    C117705  19.464   9.366   7.131 -0.0925  0.2281  0.0759
 1330ERGO    C217706  19.558   9.479   7.496 -0.3782 -0.2276 -0.0118
 1331ERGO   ROH17707   9.065  15.385   6.301  0.1827  0.1501  0.1984
 1331ERGO    R117708   8.843  15.408   6.474  0.1529  0.0500  0.1761
 1331ERGO    R217709   8.678  15.194   6.535  0.1229  0.0157  0.0064
 1331ERGO    R317710   8.738  15.263   6.791  0.0906 -0.1570  0.0602
 1331ERGO    R417711   8.475  15.137   6.809 -0.0510  0.1302 -0.0970
 1331ERGO    R517712   8.530  15.333   6.885  0.1333  0.0344  0.0041
 1331ERGO    C117713   8.414  15.167   7.209 -0.1823  0.0347 -0.1066
 1331ERGO    C217714   8.281  14.843   7.365 -0.2005  0.0377 -0.0147
 1332ERGO   ROH17715  10.389   4.573   6.143  0.2416 -0.1853  0.0114
 1332ERGO    R117716  10.409   4.545   6.424  0.1020  0.2263  0.0700
 1332ERGO    R217717  10.265   4.702   6.599 -0.4562  0.0942 -0.2368
 1332ERGO    R317718  10.184   4.462   6.698  0.0924 -0.0096 -0.0097
 1332ERGO    R417719  10.175   4.643   6.928 -0.4803  0.2323 -0.2188
 1332ERGO    R517720  10.280   4.452   6.917  0.0066  0.4737  0.0539
 1332ERGO    C117721  10.047   4.383   7.211  0.0206  0.2154  0.0049
 1332ERGO    C217722   9.874   4.562   7.481  0.3674 -0.1379 -0.3200
 1333ERGO   ROH17723  13.503  13.377   6.315  0.0014  0.0732  0.0424
 1333ERGO    R117724  13.431  13.419   6.586 -0.0434 -0.0742  0.0554
 1333ERGO    R217725  13.233  13.274   6.712  0.0103 -0.2239 -0.0202
 1333ERGO    R317726  13.429  13.223   6.893  0.0221 -0.2072 -0.0296
 1333ERGO    R417727  13.182  13.144   7.028  0.0268 -0.0651  0.0484
 1333ERGO    R517728  13.333  13.282   7.104  0.0812 -0.0830 -0.0398
 1333ERGO    C117729  13.337  13.020   7.382  0.0476  0.0431  0.0795
 1333ERGO    C217730  13.345  12.826   7.547  0.1430 -0.1156  0.0515
 1334ERGO   ROH17731  11.655  11.839   6.757 -0.0103 -0.0559 -0.1218
 1334ERGO    R117732  11.725  11.682   6.982 -0.0007 -0.0934 -0.1500
 1334ERGO    R217733  11.811  11.793   7.220  0.1266 -0.1356 -0.1707
 1334ERGO    R317734  11.609  11.644   7.325  0.0958 -0.0535 -0.1139
 1334ERGO    R417735  11.783  11.705   7.553  0.2063 -0.1745 -0.1746
 1334ERGO    R517736  11.716  11.507   7.490  0.0879 -0.1291 -0.1761
 1334ERGO    C117737  11.578  11.514   7.846  0.2238 -0.1200 -0.1236
 1334ERGO    C217738  11.494  11.552   8.226 -0.1999 -0.0455  0.3408
 1335ERGO   ROH17739  12.698   4.914   6.213 -0.2277 -0.0827  0.0601
 1335ERGO    R117740  12.587   4.969   6.467 -0.1083  0.0497  0.0840
 1335ERGO    R217741  12.738   4.967   6.699  0.0004  0.1694  0.0149
 1335ERGO    R317742  12.637   5.218   6.728  0.0158  0.1861 -0.0665
 1335ERGO    R417743  12.746   5.150   6.992 -0.3500  0.1047  0.0700
 1335ERGO    R517744  12.544   5.219   6.949 -0.2811  0.1591 -0.1870
 1335ERGO    C117745  12.656   5.492   7.190 -0.5397  0.0828  0.0256
 1335ERGO    C217746  12.635   5.866   7.410 -0.1160 -0.2758 -0.0234
 1336ERGO   ROH17747   6.327   0.858   5.970 -0.1047 -0.1340 -0.0729
 1336ERGO    R117748   6.214   0.993   6.191 -0.0573 -0.0585 -0.0951
 1336ERGO    R217749   5.944   0.982   6.250 -0.0260 -0.1183  0.0211
 1336ERGO    R317750   6.033   0.901   6.494  0.0978  0.0386  0.0304
 1336ERGO    R417751   5.752   0.976   6.537  0.0517 -0.1183  0.0737
 1336ERGO    R517752   5.925   1.049   6.648  0.0427  0.0406 -0.0034
 1336ERGO    C117753   5.723   0.896   6.933  0.2132  0.0290  0.1131
 1336ERGO    C217754   5.552   0.786   7.282 -0.0241  0.1325 -0.1738
 1337ERGO   ROH17755  12.928  17.431   6.591 -0.4329 -0.0378 -0.0334
 1337ERGO    R117756  12.972  17.593   6.819 -0.2849 -0.0966 -0.0196
 1337ERGO    R217757  12.766  17.684   6.979 -0.1901 -0.0348  0.0645
 1337ERGO    R317758  12.911  17.568   7.177 -0.1738 -0.1310 -0.0022
 1337ERGO    R417759  12.810  17.817   7.295  0.1393 -0.0012  0.0082
 1337ERGO    R517760  13.018  17.752   7.287  0.0762 -0.2048 -0.1112
 1337ERGO    C117761  12.972  17.786   7.665  0.3466 -0.0720 -0.0873
 1337ERGO    C217762  12.727  17.871   7.911 -0.2854 -0.1259  0.0677
 1338ERGO   ROH17763   2.954   4.075   5.487  0.0689  0.0219  0.0999
 1338ERGO    R117764   2.896   4.022   5.759 -0.0227  0.1194  0.0996
 1338ERGO    R217765   3.007   3.810   5.896 -0.3364 -0.0374  0.1148
 1338ERGO    R317766   3.083   4.004   6.071 -0.0621 -0.1362  0.1112
 1338ERGO    R417767   3.072   3.759   6.232 -0.4568 -0.1211  0.1262
 1338ERGO    R517768   2.971   3.947   6.275 -0.1799  0.0426  0.1009
 1338ERGO    C117769   3.181   3.911   6.591 -0.2694 -0.2627  0.1294
 1338ERGO    C217770   3.268   4.052   6.834 -0.0487  0.0169  0.5050
 1339ERGO   ROH17771  15.713   7.247   6.269  0.1947 -0.0400 -0.0359
 1339ERGO    R117772  15.836   7.201   6.520  0.1672  0.0010 -0.0149
 1339ERGO    R217773  16.064   7.333   6.601  0.1124  0.0722  0.0213
 1339ERGO    R317774  15.912   7.396   6.817  0.0575  0.0282 -0.0038
 1339ERGO    R417775  16.189   7.413   6.913  0.0384  0.1281  0.0371
 1339ERGO    R517776  16.028   7.296   7.002  0.0650  0.0752  0.0176
 1339ERGO    C117777  16.119   7.519   7.298 -0.0562  0.1193  0.0227
 1339ERGO    C217778  16.019   7.634   7.651 -0.0027 -0.4166  0.1388
 1340ERGO   ROH17779  14.950  16.400   6.423 -0.0442 -0.0142 -0.0292
 1340ERGO    R117780  14.982  16.325   6.694 -0.0532  0.0013 -0.0240
 1340ERGO    R217781  14.889  16.086   6.794 -0.0554  0.0076 -0.0141
 1340ERGO    R317782  15.146  16.056   6.876 -0.0583  0.0126 -0.0024
 1340ERGO    R417783  14.987  15.914   7.077 -0.0597 -0.0652 -0.0563
 1340ERGO    R517784  15.135  16.070   7.115 -0.0796 -0.0588  0.0016
 1340ERGO    C117785  15.287  15.785   7.318 -0.0647 -0.1028 -0.0700
 1340ERGO    C217786  15.099  15.604   7.556  0.3009  0.1295 -0.1141
 1341ERGO   ROH17787   8.202  15.094   6.066 -0.1528 -0.0368 -0.1312
 1341ERGO    R117788   8.243  15.091   6.346 -0.0270 -0.0032 -0.1492
 1341ERGO    R217789   8.035  15.083   6.527  0.0580 -0.0696 -0.0583
 1341ERGO    R317790   8.168  14.866   6.622  0.1810 -0.0131 -0.0972
 1341ERGO    R417791   7.925  14.883   6.787  0.2075 -0.1215 -0.0337
 1341ERGO    R517792   8.131  14.873   6.859  0.2351 -0.0309 -0.0849
 1341ERGO    C117793   7.987  14.563   7.028  0.4100 -0.0986 -0.0558
 1341ERGO    C217794   7.679  14.546   7.262 -0.4207  0.1378  0.3746
 1342ERGO   ROH17795  12.358   2.311   6.430 -0.0415 -0.1591  0.0618
 1342ERGO    R117796  12.425   2.300   6.705 -0.0193 -0.0890  0.0598
 1342ERGO    R217797  12.411   2.521   6.870 -0.0506 -0.0559  0.0163
 1342ERGO    R317798  12.254   2.359   7.021 -0.0087 -0.0566  0.0589
 1342ERGO    R417799  12.319   2.584   7.198  0.2188 -0.1691  0.1162
 1342ERGO    R517800  12.348   2.372   7.241  0.1599 -0.2003 -0.0042
 1342ERGO    C117801  12.118   2.467   7.530  0.4152 -0.2357  0.2144
 1342ERGO    C217802  12.165   2.722   7.928  0.1832 -0.1258 -0.2400
 1343ERGO   ROH17803   8.813   3.535   5.880  0.0655 -0.2748  0.1539
 1343ERGO    R117804   8.722   3.634   6.130  0.0597  0.0191  0.0388
 1343ERGO    R217805   8.885   3.646   6.352 -0.0249  0.0176  0.0978
 1343ERGO    R317806   8.810   3.907   6.353  0.2534  0.1048 -0.1373
 1343ERGO    R417807   8.876   3.848   6.633 -0.3009  0.1266  0.0147
 1343ERGO    R517808   8.690   3.934   6.559 -0.0876  0.3074 -0.3501
 1343ERGO    C117809   8.800   4.210   6.797 -0.2006  0.2720 -0.2542
 1343ERGO    C217810   8.906   4.501   7.179  0.0879 -0.2658  0.3929
 1344ERGO   ROH17811   5.028  13.064   6.085  0.0218  0.0817  0.0057
 1344ERGO    R117812   5.159  13.120   6.330 -0.0065  0.0484  0.0293
 1344ERGO    R217813   5.028  13.230   6.547 -0.0444 -0.0238  0.0489
 1344ERGO    R317814   5.128  13.013   6.676 -0.0163 -0.0386  0.0004
 1344ERGO    R417815   5.035  13.190   6.890 -0.1652 -0.1685  0.0348
 1344ERGO    R517816   5.234  13.103   6.871 -0.1291 -0.0846  0.0796
 1344ERGO    C117817   5.134  12.962   7.211 -0.2093 -0.2665 -0.0189
 1344ERGO    C217818   5.099  12.761   7.533 -0.1253  0.0672 -0.2051
 1345W        W17819  10.000  17.869   1.573 -0.0977 -0.0892 -0.2804
 1346W        W17820  16.912  15.427  13.448  0.3684  0.2797  0.0686
 1347W        W17821  17.750  18.372   4.905 -0.0565  0.1687  0.2663
 1348W        W17822   6.189   9.148  13.888  0.0869  0.4017  0.2374
 1349W        W17823   2.560   9.909  12.434  0.1806 -0.1431  0.1842
 1350W        W17824  18.078  11.831  13.573 -0.4996  0.0440  0.1627
 1351W        W17825  14.581  12.069   4.741  0.3082 -0.1713  0.3609
 1352W        W17826  16.672  13.249  14.683 -0.0183  0.1312 -0.1795
 1353W        W17827   1.480  14.775   0.860  0.0680 -0.2718 -0.0623
 1354W        W17828   3.960   3.435   3.686 -0.0824  0.1230  0.2867
 1355W        W17829  11.251  16.851   4.738  0.2236  0.0358  0.1136
 1356W        W17830   3.076   8.957  15.303 -0.1684  0.1434 -0.0181
 1357W        W17831   9.994   3.916   0.874 -0.0459  0.0453  0.1391
 1358W        W17832  11.042   8.506   0.615  0.1984 -0.1941 -0.2312
 1359W        W17833   9.313   6.524  14.519 -0.0526  0.1058  0.0332
 1360W        W17834  14.500   4.879   4.279 -0.1073  0.1028  0.1607
 1361W        W17835   7.676   3.106   1.239  0.1235 -0.0350  0.0067
 1362W        W17836  13.037  13.228   1.292  0.2650  0.0395 -0.2021
 1363W        W17837   1.490   7.315  12.517 -0.0189  0.1347  0.1042
 1364W        W17838  12.904   6.611   2.658  0.2813  0.3077 -0.1760
 1365W        W17839  16.770  14.281   2.314  0.1017 -0.1670 -0.4855
 1366W        W17840  14.171   7.977  14.632 -0.2774  0.3537  0.1279
 1367W        W17841  16.489   1.599  11.671  0.3725  0.1776 -0.1460
 1368W        W17842  11.481   7.971  12.973  0.2869 -0.1221  0.1679
 1369W        W17843  13.137  16.935  11.734 -0.2171  0.0084  0.1417
 1370W        W17844  12.969  14.879  13.612 -0.0721  0.4055  0.1687
 1371W        W17845   0.194  14.925   1.384 -0.0450 -0.2831 -0.0533
 1372W        W17846  11.529   2.202   3.683 -0.1362  0.0554 -0.1591
 1373W        W17847   6.282   8.129  15.003  0.0720 -0.2686  0.3807
 1374W        W17848  18.747   7.952   3.574 -0.0483  0.4337  0.1931
 1375W        W17849   3.795   8.540   2.702 -0.1508  0.1558 -0.2498
 1376W        W17850   3.526  10.169   5.318  0.3976  0.0060  0.0071
 1377W        W17851  14.405   7.623   5.436  0.0499 -0.1019 -0.1250
 1378W        W17852  15.961   3.639   1.714 -0.0223 -0.3247 -0.3409
 1379W        W17853  13.698   5.577  12.701 -0.0464 -0.0772  0.0616
 1380W        W17854  14.140   5.693   3.706  0.1191  0.2596 -0.1095
 1381W        W17855   8.465  10.107  14.550 -0.1574 -0.2101  0.1710
 1382W        W17856   0.634   0.693   5.063  0.0744 -0.0890 -0.0950
 1383W        W17857   8.574   4.916  15.045 -0.1854  0.2399 -0.2745
 1384W        W17858   7.946  18.494  13.828 -0.0712 -0.0059  0.1787
 1385W        W17859   9.699   6.453   0.710  0.0194 -0.0079  0.0650
 1386W        W17860  12.869  14.012  13.691  0.0580  0.2200  0.0084
 1387W        W17861  18.040   8.395   4.080  0.0710  0.0565  0.2892
 1388W        W17862  16.122  15.942  13.894 -0.2150 -0.3753 -0.1857
 1389W        W17863   4.274   6.273   9.295  0.2811 -0.1075  0.1393
 1390W        W17864   3.566  16.135   2.687  0.1854 -0.1003  0.3515
 1391W        W17865   0.369   6.590   9.866 -0.1624 -0.2803  0.1360
 1392W        W17866   5.309  13.786   3.058  0.3065  0.0104 -0.0047
 1393W        W17867   4.958   8.721   4.253 -0.5469 -0.0898 -0.1271
 1394W        W17868  12.185   3.761  13.889 -0.0573  0.0648 -0.0436
 1395W        W17869  15.387   0.908  12.948 -0.1965  0.1890 -0.3177
 1396W        W17870  18.640   6.163  11.489 -0.0302 -0.0490 -0.1150
 1397W        W17871   7.023  16.050  12.939 -0.3450 -0.0432  0.3384
 1398W        W17872   7.214   6.510  12.427  0.0929 -0.0627 -0.0351
 1399W        W17873   8.324   1.416  11.318  0.1833 -0.1829 -0.1186
 1400W        W17874  14.450  13.698  11.815 -0.2564  0.0997  0.2085
 1401W        W17875  14.268   4.853   5.162  0.0400 -0.0636 -0.1142
 1402W        W17876   6.729   5.799   1.569  0.0682 -0.1185 -0.0927
 1403W        W17877   4.666  18.046  14.437 -0.2857 -0.3105 -0.0711
 1404W        W17878  14.681  10.166   3.408 -0.1759 -0.2694  0.4425
 1405W        W17879   6.537  11.515  13.327  0.1628  0.1144 -0.2126
 1406W        W17880   0.961  13.970   3.405 -0.1887  0.2340  0.0819
 1407W        W17881   4.979  18.729   9.669  0.2288 -0.0587  0.4237
 1408W        W17882   2.412   8.234  10.142  0.0505 -0.2393  0.1219
 1409W        W17883  15.190  14.327  12.777 -0.2196  0.4461 -0.3091
 1410W        W17884   7.699   1.061   2.003  0.1249 -0.3519 -0.2887
 1411W        W17885  18.436  12.503   0.944  0.4316  0.2041 -0.4269
 1412W        W17886   2.081   1.033  13.582 -0.0902 -0.0741  0.1536
 1413W        W17887   9.995   0.313   5.003 -0.1060  0.3579  0.1839
 1414W        W17888   9.504   9.384  12.638 -0.1098  0.2034  0.1294
 1415W        W17889   7.041   6.602  13.236  0.0424 -0.2071 -0.1176
 1416W        W17890   2.512   4.046   1.591  0.4338 -0.0370 -0.1832
 1417W        W17891  17.754  11.704  14.877  0.1455 -0.1024  0.1984
 1418W        W17892  13.395   4.565   0.683  0.1737 -0.1594  0.1586
 1419W        W17893   1.688   6.389  15.074 -0.0270 -0.1942 -0.2315
 1420W        W17894  18.217   9.983   3.829  0.1763 -0.1405  0.0088
 1421W        W17895  18.322  17.383  12.421 -0.0583 -0.0064  0.0284
 1422W        W17896  11.559  12.732  14.803 -0.1681  0.1084 -0.2065
 1423W        W17897   3.423   1.920   3.666 -0.1850 -0.4978  0.1836
 1424W        W17898   6.627  14.877  12.252  0.2291 -0.1711  0.1055
 1425W        W17899   6.170  15.130  11.032  0.1211 -0.3318  0.0954
 1426W        W17900  13.550  16.818   4.211  0.1381  0.2812 -0.0821
 1427W        W17901  10.471   2.257  12.289  0.0046  0.1765 -0.2158
 1428W        W17902   6.945   0.655  15.018 -0.1625 -0.3456 -0.0205
 1429W        W17903   9.860   4.542  15.508  0.2696  0.0164 -0.0370
 1430W        W17904  14.030  10.582  11.864  0.0745  0.0427  0.3113
 1431W        W17905  16.727   6.864   1.462 -0.0895  0.0918  0.3535
 1432W        W17906  12.949   1.150   5.972 -0.0396  0.1759  0.2686
 1433W        W17907  13.416   6.017   6.059 -0.2501 -0.1278  0.0979
 1434W        W17908  15.218  14.670  11.764  0.0058  0.0084 -0.1766
 1435W        W17909   9.918  11.770   4.851 -0.0309  0.1045 -0.0383
 1436W        W17910  18.506   0.445  12.626  0.0158  0.1613  0.0059
 1437W        W17911  12.148   2.664  11.435 -0.4082 -0.3722  0.0552
 1438W        W17912  12.436   3.652  15.425 -0.2241  0.0749  0.1739
 1439W        W17913  17.601   1.155  12.937  0.1986  0.0666 -0.1074
 1440W        W17914  15.449  11.675  14.906 -0.0469  0.2437 -0.0747
 1441W        W17915   2.622  11.137  14.698  0.2000  0.2866  0.1134
 1442W        W17916  10.032   3.600  12.089 -0.3547 -0.0802 -0.0631
 1443W        W17917   9.049   7.353   2.846 -0.0129  0.1115  0.2210
 1444W        W17918  10.581  12.779  13.914  0.1897 -0.4829  0.1060
 1445W        W17919  13.079   5.371   2.878 -0.0854 -0.3189 -0.0217
 1446W        W17920   8.721  15.799   4.483 -0.2011  0.5294 -0.1387
 1447W        W17921   6.300   3.344  15.144 -0.3437 -0.1272 -0.0389
 1448W        W17922   7.802   4.799   0.986  0.0449 -0.0470  0.0123
 1449W        W17923   4.176   8.168  15.441  0.0993  0.0966 -0.1562
 1450W        W17924   3.249  15.174  14.494 -0.0268 -0.0142 -0.1314
 1451W        W17925  15.147  16.597  12.517  0.0882 -0.1862  0.2173
 1452W        W17926   7.738  12.879   3.470 -0.0981  0.1367 -0.0251
 1453W        W17927   5.440   9.607  13.397 -0.0808  0.0853 -0.3238
 1454W        W17928  12.522   9.863  10.943 -0.1861 -0.4185 -0.1403
 1455W        W17929  14.061  13.233   3.880 -0.1554 -0.1155  0.2825
 1456W        W17930  16.628   2.538  14.181  0.1049  0.0105  0.0834
 1457W        W17931   6.941  16.706   3.254  0.1829  0.1116 -0.1366
 1458W        W17932  14.320  15.475  14.844 -0.1937 -0.1900 -0.2950
 1459W        W17933   5.830   3.130   3.159  0.0995  0.1505  0.3186
 1460W        W17934  17.883   3.986  15.000 -0.1593 -0.0765  0.0220
 1461W        W17935   5.289   5.465   9.647 -0.3274  0.4322 -0.0864
 1462W        W17936   3.549   0.548  10.942 -0.0524  0.1284 -0.2093
 1463W        W17937  13.019   2.090  12.376  0.0956 -0.0597  0.1855
 1464W        W17938  13.457  18.597   3.297 -0.0435 -0.0489 -0.1960
 1465W        W17939  14.408   7.299   4.723 -0.0120  0.0441 -0.1765
 1466W        W17940  16.749   7.702   5.047  0.1061 -0.3949 -0.2487
 1467W        W17941  11.682  15.387   1.199  0.1097 -0.0812  0.2172
 1468W        W17942   2.454  13.653   1.031 -0.1054  0.3198  0.0677
 1469W        W17943  11.461   7.805  13.439 -0.0640 -0.1753 -0.3030
 1470W        W17944  15.850  10.823   3.301  0.1710 -0.0755 -0.0342
 1471W        W17945  16.363   9.134   3.018 -0.1469 -0.0426  0.0244
 1472W        W17946  15.551   3.698   5.219  0.3059 -0.1883  0.1290
 1473W        W17947  10.992  14.928  11.189 -0.0097 -0.2144  0.2704
 1474W        W17948   1.161  18.450   1.742  0.0089 -0.1276 -0.0620
 1475W        W17949  17.041   8.446   0.161  0.0718  0.4288  0.0540
 1476W        W17950  11.422  14.218  13.077 -0.1685 -0.1058  0.0837
 1477W        W17951   2.165   7.054   2.592  0.1483  0.0589  0.3434
 1478W        W17952  12.386  16.928   1.063  0.4513  0.0356  0.2477
 1479W        W17953  14.195   3.981   2.486  0.0910  0.0216  0.0265
 1480W        W17954  10.738   1.265  13.023  0.0382  0.1556  0.1757
 1481W        W17955   8.039   3.548  13.161 -0.2190 -0.0905  0.0100
 1482W        W17956  15.853   0.263   4.490  0.3652  0.0442  0.0582
 1483W        W17957   8.085  12.704   0.629 -0.4610  0.1549 -0.0849
 1484W        W17958   1.423  16.706   2.552 -0.1476 -0.2047  0.3826
 1485W        W17959  17.364   8.038   4.425 -0.3660 -0.0578  0.1804
 1486W        W17960  18.780   8.018   1.346 -0.0246  0.0811  0.2445
 1487W        W17961  17.225  14.027   2.039 -0.4142  0.3576  0.2703
 1488W        W17962   1.500   0.404  12.318 -0.0260 -0.2014 -0.2511
 1489W        W17963   2.748  11.837   0.904  0.2037 -0.1368  0.0085
 1490W        W17964  17.378   9.754   5.091 -0.1270  0.0301 -0.0960
 1491W        W17965  14.231   7.157  12.604  0.2255 -0.3197  0.1407
 1492W        W17966   7.859   5.536   4.711  0.0753 -0.1888  0.1407
 1493W        W17967   7.364   3.921  14.108  0.1590  0.0297 -0.0117
 1494W        W17968   0.594  17.139  13.039 -0.1983  0.0590 -0.1254
 1495W        W17969  14.083   3.536   4.893  0.1929 -0.0569  0.1707
 1496W        W17970   9.085   0.432  11.801 -0.0551  0.0642  0.2028
 1497W        W17971   4.673   2.306  12.996  0.1251 -0.2519  0.1906
 1498W        W17972  10.412  13.092   2.117  0.0984  0.2512  0.1758
 1499W        W17973   9.532  13.449   1.849  0.1304  0.3861  0.2117
 1500W        W17974   5.222  13.452  12.206  0.0816  0.1733 -0.1149
 1501W        W17975  13.012  16.092  12.155  0.0304 -0.2243  0.2087
 1502W        W17976   5.017   5.674  10.729 -0.4222  0.0353  0.1319
 1503W        W17977  16.878  18.663  12.013  0.1011 -0.2059  0.3624
 1504W        W17978   1.497   6.651   3.703  0.2414 -0.0017  0.0793
 1505W        W17979   2.034  12.854   1.905  0.3463 -0.1641 -0.0337
 1506W        W17980   6.940   5.546  15.340 -0.1579 -0.1358  0.0348
 1507W        W17981   0.155   1.817   3.285 -0.0212  0.0904  0.1584
 1508W        W17982   4.110   7.316   3.588  0.3311 -0.1298 -0.0388
 1509W        W17983   9.773  12.016  14.713  0.0396 -0.1072  0.4740
 1510W        W17984   0.438  15.911  13.438  0.0268  0.0259  0.0089
 1511W        W17985  18.652  16.248   2.372 -0.1634 -0.1233  0.2950
 1512W        W17986   0.190   8.556  10.878 -0.1844  0.0323 -0.0865
 1513W        W17987   2.494   1.579  11.519 -0.2207 -0.0809 -0.2064
 1514W        W17988  16.354   5.687  11.114  0.2236 -0.0593  0.0583
 1515W        W17989  15.776   3.739  13.186  0.2681 -0.1679  0.3745
 1516W        W17990   5.380  16.190   1.938 -0.1911  0.2651 -0.1447
 1517W        W17991  11.930  15.422  12.868  0.1957 -0.1781 -0.2282
 1518W        W17992  11.361   6.728   4.980 -0.1845 -0.2291  0.2289
 1519W        W17993   7.573   5.078   0.068  0.1476 -0.0725  0.0733
 1520W        W17994   9.062   5.919   0.523  0.0460 -0.0142  0.0758
 1521W        W17995   3.035  11.940   0.121  0.2836 -0.1431  0.1025
 1522W        W17996   9.129   0.378   3.558  0.2100  0.0470  0.0409
 1523W        W17997   8.655  16.219  13.643 -0.1305 -0.2334 -0.0174
 1524W        W17998  10.707  13.956  15.316  0.2193 -0.0576  0.2716
 1525W        W17999   6.068   1.360   3.163  0.3181 -0.1761  0.0669
 1526W        W18000   9.486   1.033   3.230  0.3298  0.3865  0.0616
 1527W        W18001  11.981   6.415   1.017 -0.1340 -0.0420  0.1837
 1528W        W18002  11.867  17.630   3.655 -0.0727 -0.0133  0.0688
 1529W        W18003  11.559   8.295   0.813 -0.1386 -0.1594  0.0186
 1530W        W18004   3.335   2.634  10.116 -0.0837  0.1709  0.0849
 1531W        W18005  15.358   8.410   6.044  0.0712  0.1853 -0.3215
 1532W        W18006   4.183   0.159   0.267  0.2395  0.1490  0.0603
 1533W        W18007   7.434  10.076  12.568 -0.2236  0.1452  0.0018
 1534W        W18008  13.151   8.534  14.469 -0.1621 -0.2165  0.0591
 1535W        W18009   6.517  16.731   5.272 -0.3786 -0.2216  0.0373
 1536W        W18010  13.560   5.454   5.335 -0.0663  0.0000 -0.0313
 1537W        W18011   6.815  16.975  13.209 -0.1018 -0.1732  0.1332
 1538W        W18012  13.611   5.011   1.353  0.1739 -0.3026 -0.1157
 1539W        W18013   0.873  18.082   5.039  0.2491  0.2047  0.0756
 1540W        W18014   0.298  10.304   1.788  0.1145  0.0097 -0.2269
 1541W        W18015   6.868   7.072  12.597  0.0365 -0.0505 -0.1755
 1542W        W18016  12.104   9.338  15.140  0.1417  0.2629 -0.2230
 1543W        W18017  15.024  12.005   3.427  0.0017 -0.0752 -0.2078
 1544W        W18018   6.483   1.251  13.405 -0.0465  0.0915 -0.1804
 1545W        W18019  12.341   3.749   3.922 -0.0125  0.0122  0.0223
 1546W        W18020  10.464  13.551  12.816  0.4025 -0.1435 -0.2175
 1547W        W18021  12.602   1.926  13.224 -0.0688  0.1527 -0.0052
 1548W        W18022   4.841  17.286  13.203  0.4800  0.0584 -0.1370
 1549W        W18023   6.466  13.777   1.352  0.0781  0.1827 -0.1860
 1550W        W18024   3.859  18.329  15.560  0.0769  0.1366 -0.4545
 1551W        W18025   0.407   6.639  14.609 -0.2712 -0.2093 -0.0173
 1552W        W18026  14.603  10.747   2.170  0.0106  0.0005 -0.0344
 1553W        W18027  16.971   8.609   5.465  0.0111 -0.2356  0.4154
 1554W        W18028  12.774  10.776   2.172  0.0866 -0.2120  0.1325
 1555W        W18029  13.504   1.820   1.922 -0.1299 -0.1340  0.2260
 1556W        W18030  12.309   8.584  14.069  0.2327  0.1351 -0.0179
 1557W        W18031  13.559  13.565   5.852  0.1632  0.3698 -0.1499
 1558W        W18032  16.083  12.726  12.000 -0.0059  0.6311  0.1199
 1559W        W18033  12.108   6.489  13.232  0.0123 -0.1687  0.1571
 1560W        W18034   5.199   9.933   0.471 -0.0968  0.2165  0.0811
 1561W        W18035  12.904   4.589  11.518  0.3806  0.0249 -0.1412
 1562W        W18036  15.869   7.030   4.897  0.6708  0.0160  0.0352
 1563W        W18037   9.921   0.212   4.061 -0.0912  0.0346  0.0141
 1564W        W18038  18.350   4.633   2.972  0.1436 -0.0274 -0.1540
 1565W        W18039   6.516   1.585   5.283 -0.1451 -0.0588  0.0674
 1566W        W18040  12.293   2.878   3.761 -0.2389 -0.1400  0.1479
 1567W        W18041  10.127   9.647  15.558 -0.0170  0.1019 -0.3771
 1568W        W18042  14.241   7.344  14.083 -0.0461  0.1949 -0.1645
 1569W        W18043  13.752   5.374   2.148 -0.3102 -0.0660  0.2403
 1570W        W18044  17.587  14.449   9.854  0.0190 -0.0525  0.0078
 1571W        W18045  18.442   4.985  11.708 -0.0578  0.0493 -0.3014
 1572W        W18046   4.187  18.475   3.761  0.0963  0.0064  0.0536
 1573W        W18047  11.431   4.149   4.861  0.2152 -0.0404 -0.0963
 1574W        W18048   6.959   7.933  13.338  0.0781 -0.4243 -0.1703
 1575W        W18049   1.063  11.086   2.699  0.4016  0.1041 -0.1068
 1576W        W18050   8.011   4.421   0.756 -0.4130  0.1899  0.3646
 1577W        W18051   8.308   1.810  15.283 -0.0004 -0.2685  0.1028
 1578W        W18052   5.559  10.847  15.184  0.0927 -0.0118  0.0664
 1579W        W18053   7.815   1.841   3.089  0.0329  0.2210  0.0282
 1580W        W18054   4.065  16.396  13.320  0.1694  0.0107  0.3087
 1581W        W18055   2.762  10.056   3.005  0.1128 -0.3709  0.0454
 1582W        W18056   3.284  13.982  13.298 -0.2338  0.1462  0.3657
 1583W        W18057  13.221   4.721  15.020 -0.1227  0.0439 -0.3500
 1584W        W18058   4.499  11.155  12.968  0.1045 -0.4520 -0.0468
 1585W        W18059  12.956  17.444   3.633 -0.1141  0.0397 -0.0632
 1586W        W18060  14.794   4.304  10.978  0.2685 -0.0289 -0.0566
 1587W        W18061   1.438  16.187   1.591 -0.2435 -0.0535 -0.1215
 1588W        W18062  14.279  15.284  13.507 -0.1410  0.1575  0.0011
 1589W        W18063  18.087  12.751   0.634  0.0871  0.1851  0.0555
 1590W        W18064   0.660  13.316  11.987 -0.1889  0.0316 -0.1544
 1591W        W18065  17.546   4.341   3.928 -0.1549  0.1415  0.1811
 1592W        W18066  11.615  16.980  11.636 -0.3313 -0.0558 -0.3486
 1593W        W18067   5.767  18.192  10.810  0.1857 -0.0854 -0.0867
 1594W        W18068   7.650   9.162  11.380 -0.1485  0.1983  0.0054
 1595W        W18069   5.399   1.617   1.404  0.1869 -0.4566  0.1624
 1596W        W18070  12.319   9.758   3.069 -0.0345 -0.1460 -0.1754
 1597W        W18071   6.917  10.425  10.727 -0.2244  0.2352  0.0641
 1598W        W18072   3.370   9.637   0.134 -0.1908 -0.2316  0.1016
 1599W        W18073  11.345   9.768  12.729  0.1356 -0.1758 -0.1588
 1600W        W18074   3.064   2.922   0.132  0.0992 -0.2283  0.0471
 1601W        W18075   4.039   6.199  12.554 -0.1135 -0.1702 -0.3219
 1602W        W18076  12.521   9.356  14.426 -0.0191  0.0501  0.0599
 1603W        W18077   8.792   8.103  12.470  0.0881 -0.0069 -0.3275
 1604W        W18078  12.669   7.741   3.357  0.1050  0.4199 -0.0217
 1605W        W18079   8.952  16.226   2.345 -0.0241 -0.1788 -0.2929
 1606W        W18080   0.377   2.702   2.279  0.1318 -0.0373 -0.1510
 1607W        W18081   8.810   5.836  11.287 -0.0656  0.1067 -0.0093
 1608W        W18082   6.605   9.953  12.478  0.2665  0.1219  0.0328
 1609W        W18083   6.693   0.149  11.834 -0.0394  0.1733  0.2409
 1610W        W18084   0.032   8.492   1.259 -0.0972 -0.1600 -0.0398
 1611W        W18085  12.036  10.596  12.942 -0.1763 -0.0458 -0.3249
 1612W        W18086  12.220   2.845  11.912  0.1123 -0.0883 -0.0774
 1613W        W18087  11.563  16.295   1.063  0.1204 -0.1782  0.5404
 1614W        W18088   2.074   8.093  13.059 -0.0459  0.1893 -0.3629
 1615W        W18089   8.299   7.416   0.133 -0.1347 -0.2134  0.1399
 1616W        W18090   9.894  12.001   0.192  0.2101 -0.0002  0.0641
 1617W        W18091   9.261  14.303  13.783 -0.1188  0.0928 -0.0427
 1618W        W18092  10.311   0.778  14.079  0.2814  0.1978  0.1580
 1619W        W18093  18.118   0.675   2.350 -0.2612 -0.2125  0.0557
 1620W        W18094  18.151  16.637  13.729  0.1146  0.3287 -0.0979
 1621W        W18095  10.373   4.618   4.103  0.0359 -0.2897  0.2251
 1622W        W18096  17.991  13.090  11.928  0.1941 -0.0595 -0.1350
 1623W        W18097  11.079   3.800   3.050  0.3234  0.3297 -0.2497
 1624W        W18098  12.581   3.278   3.865  0.2883  0.0817 -0.2176
 1625W        W18099  10.349   2.780   0.036  0.0088  0.1926  0.2844
 1626W        W18100  16.139  13.215  11.902  0.3970  0.2106 -0.2145
 1627W        W18101   1.814   2.822   3.798  0.0100 -0.2017 -0.0813
 1628W        W18102  10.137   2.691   3.757 -0.0499  0.1672 -0.2197
 1629W        W18103  17.831  14.273   3.263 -0.0443  0.0690  0.1805
 1630W        W18104   6.069  11.872  11.474  0.0625 -0.2194  0.1106
 1631W        W18105   3.953   0.701   5.168 -0.0500 -0.1163 -0.5499
 1632W        W18106   8.757   5.010   4.483  0.0029  0.0654  0.3207
 1633W        W18107  12.069   0.846   2.658  0.2763  0.1672 -0.2727
 1634W        W18108  12.413   7.705   1.840  0.1472  0.4052 -0.0642
 1635W        W18109  12.796   0.365   0.470  0.0513 -0.0704 -0.0846
 1636W        W18110  18.488   8.531   2.930  0.1561  0.1259 -0.1193
 1637W        W18111  13.314   2.525   0.117 -0.2451 -0.1265 -0.2347
 1638W        W18112   0.352  10.797   1.028 -0.0618  0.0569 -0.2663
 1639W        W18113   1.100   3.880  10.587  0.1703 -0.1160  0.0836
 1640W        W18114   0.407   9.944   5.182 -0.2369  0.0760 -0.0541
 1641W        W18115   0.297   0.653   0.408 -0.1089 -0.0146 -0.0879
 1642W        W18116  16.699   7.210  13.396 -0.1303  0.0671 -0.0531
 1643W        W18117  16.629  13.507  13.259 -0.2179  0.1464  0.0974
 1644W        W18118   5.595  13.523   2.252  0.0288 -0.2083  0.1741
 1645W        W18119   1.348  12.707   2.161  0.0351  0.1178 -0.1388
 1646W        W18120   7.842   7.552   5.114 -0.1201  0.0083 -0.0450
 1647W        W18121   0.025  17.623  13.484 -0.2206 -0.0297  0.0167
 1648W        W18122  14.179  10.135   2.117  0.0083  0.0999 -0.2006
 1649W        W18123   5.713  10.098  15.385 -0.5650 -0.1024  0.1864
 1650W        W18124  16.937  16.884   4.401  0.0132  0.0817  0.1212
 1651W        W18125  14.204   2.773  12.739  0.0458  0.0764  0.2588
 1652W        W18126   7.254   9.029  12.960 -0.1315 -0.3296  0.2281
 1653W        W18127  13.221  12.297   5.239 -0.0574 -0.0910  0.4763
 1654W        W18128   3.912  15.215   2.164  0.3300  0.0365 -0.1554
 1655W        W18129   3.616   1.873   4.442  0.2220 -0.1429  0.1419
 1656W        W18130  18.754   4.668   3.568  0.1035 -0.0719 -0.0170
 1657W        W18131  18.299   1.515  14.398 -0.3349 -0.1829  0.0367
 1658W        W18132   0.753  17.746  13.983 -0.1312 -0.0391 -0.1092
 1659W        W18133  17.576   3.584  15.135  0.0818 -0.1562 -0.0746
 1660W        W18134   7.376  17.796   0.020  0.1156  0.2162 -0.0804
 1661W        W18135  11.097  14.785  14.700 -0.0999  0.1360 -0.3955
 1662W        W18136  11.383   8.565  14.239 -0.0733 -0.0417  0.0704
 1663W        W18137  12.439   5.007   4.435  0.2140  0.2395 -0.1037
 1664W        W18138  13.159   3.844  11.380  0.0409 -0.1342 -0.1889
 1665W        W18139   4.780  10.259   0.557 -0.1892  0.1051 -0.1406
 1666W        W18140   6.025  14.030   4.694  0.0141 -0.0163 -0.2133
 1667W        W18141   6.984   0.462   1.251 -0.1003  0.2513  0.1424
 1668W        W18142  12.618   7.006   4.273 -0.0309  0.0810 -0.1343
 1669W        W18143   3.825  10.941  10.386  0.3713  0.1579  0.2654
 1670W        W18144   6.636   8.870   4.299  0.2097 -0.5502  0.2787
 1671W        W18145   6.215   1.696   3.531  0.0907 -0.0121 -0.3345
 1672W        W18146   7.780  16.343   1.643  0.1848  0.1576 -0.2057
 1673W        W18147  18.557   8.005  10.231  0.0406 -0.1618 -0.0272
 1674W        W18148  13.915   4.659   0.327  0.0421  0.0402  0.0565
 1675W        W18149  12.770   4.890  11.089 -0.2037  0.0503  0.2993
 1676W        W18150  11.445  15.878   1.998 -0.2927 -0.1586  0.0131
 1677W        W18151   5.295   8.887  14.234  0.1407 -0.0863  0.3604
 1678W        W18152   4.415   1.769  13.815 -0.0872 -0.2735  0.0664
 1679W        W18153  10.887  14.824   4.633 -0.2977 -0.0392  0.1685
 1680W        W18154  10.939   7.245  12.441 -0.1361  0.1924 -0.0112
 1681W        W18155  13.114  17.548  12.183 -0.0758  0.0401 -0.1208
 1682W        W18156  15.270   4.249   1.514  0.1985  0.0438 -0.0673
 1683W        W18157   9.984  18.227   2.155  0.1265  0.0668  0.0074
 1684W        W18158   0.766   0.956   1.756  0.0987  0.1127  0.0369
 1685W        W18159  18.498  14.017  10.760  0.1657 -0.0058  0.2437
 1686W        W18160   3.794   3.977   1.261  0.0405  0.0310  0.0898
 1687W        W18161   6.593  13.872   1.797 -0.1415 -0.2374  0.1456
 1688W        W18162  11.993   2.712  10.907 -0.2051 -0.1292  0.1125
 1689W        W18163   5.034   6.540  12.465  0.0824 -0.0361 -0.1242
 1690W        W18164  17.078  13.097   0.610 -0.1343 -0.2632 -0.1081
 1691W        W18165  15.876  17.226   2.094 -0.1401 -0.0331 -0.0670
 1692W        W18166  12.182   4.121   4.173 -0.2065 -0.1098  0.1988
 1693W        W18167  17.976  11.559  13.970  0.3820 -0.0170 -0.1298
 1694W        W18168   0.500  11.318   3.812 -0.0285 -0.0184  0.1035
 1695W        W18169   5.723  10.220   2.658  0.1585  0.0869 -0.2088
 1696W        W18170  10.545   0.670   0.057 -0.0617 -0.1687  0.1822
 1697W        W18171   4.308  10.205  15.433 -0.1753  0.0033 -0.1406
 1698W        W18172  10.915   5.356   1.606 -0.0395  0.0573 -0.0437
 1699W        W18173  10.167  12.016  13.113  0.0929  0.0799 -0.0839
 1700W        W18174   9.161  17.771  13.490  0.1648 -0.0605 -0.0686
 1701W        W18175   3.163   1.534  11.703 -0.0931 -0.3462 -0.3614
 1702W        W18176  15.401  14.083  15.271 -0.0282 -0.2298  0.0879
 1703W        W18177   5.123  16.158   4.475  0.1245 -0.4456 -0.3477
 1704W        W18178  13.591   2.452   4.158 -0.0220 -0.0831  0.0590
 1705W        W18179  10.791  16.844   4.053  0.1422 -0.0471  0.0692
 1706W        W18180   6.701  10.287  15.388 -0.0478  0.1048  0.0222
 1707W        W18181  11.107   5.451   3.824  0.1285 -0.0268  0.0480
 1708W        W18182  15.926  14.049  11.883 -0.0186 -0.0620 -0.0757
 1709W        W18183   6.487   1.754  14.023  0.3245 -0.2537  0.0566
 1710W        W18184   8.553   9.897  10.171  0.0781  0.1075  0.3162
 1711W        W18185   2.725  14.262   0.273 -0.0186  0.0697 -0.3342
 1712W        W18186   8.967  11.592   3.537  0.0738  0.0420 -0.0499
 1713W        W18187  14.612  18.734  12.495  0.1257 -0.0122  0.2008
 1714W        W18188   8.065   1.459  11.925 -0.0380 -0.0999 -0.0770
 1715W        W18189  10.205   8.228   0.492 -0.1543  0.0711  0.2260
 1716W        W18190  11.777   2.812  12.475 -0.2722  0.1736  0.2321
 1717W        W18191  11.994   3.584   2.287 -0.3594 -0.0847 -0.0922
 1718W        W18192  15.071   3.326   5.457  0.1701 -0.1706  0.3841
 1719W        W18193   4.917  12.925   1.815  0.0955  0.1590  0.1972
 1720W        W18194  16.965   6.664   2.061 -0.0887  0.2036  0.1200
 1721W        W18195   8.538   4.427  14.211  0.2694  0.1761  0.3471
 1722W        W18196   0.844  10.768  10.007 -0.2486 -0.1193  0.0199
 1723W        W18197   7.437   0.545   2.632  0.2699 -0.1648 -0.1961
 1724W        W18198   4.806   2.779   3.247  0.2751 -0.0817  0.1697
 1725W        W18199  15.176   2.146  12.498  0.1811 -0.1725 -0.0193
 1726W        W18200  10.826   3.337   1.795 -0.2053 -0.0577  0.1487
 1727W        W18201   0.144  18.067   1.647  0.0465  0.1044 -0.0160
 1728W        W18202   3.945  12.928   2.270  0.3168 -0.0252  0.2612
 1729W        W18203   9.130   4.644  10.901 -0.2024 -0.1022  0.2774
 1730W        W18204   8.471   1.204   4.921  0.1780  0.0762 -0.2978
 1731W        W18205  11.318   8.005  14.389 -0.1339  0.0342 -0.0414
 1732W        W18206  18.700  13.144   2.191 -0.0413 -0.3566  0.1155
 1733W        W18207   3.883   3.417  11.865  0.0833 -0.2247  0.1119
 1734W        W18208  11.737   8.613   4.965  0.0973  0.0459 -0.3861
 1735W        W18209  16.486   5.891  12.563 -0.0153 -0.1713 -0.1446
 1736W        W18210  11.980  12.395   1.991 -0.2988  0.2064 -0.0601
 1737W        W18211   1.546  13.496   0.967 -0.2703  0.0475  0.1152
 1738W        W18212   0.085  15.987  11.220  0.0913  0.1672 -0.0490
 1739W        W18213   3.197  18.607  14.325 -0.3624  0.1959  0.2110
 1740W        W18214   8.310   0.876   4.523 -0.2598 -0.2478 -0.0414
 1741W        W18215   9.141   1.746   0.883 -0.2681  0.1193 -0.1755
 1742W        W18216  17.442  10.400   4.888  0.1923  0.4346  0.0387
 1743W        W18217  14.973   5.395  11.670 -0.0458 -0.0510 -0.3873
 1744W        W18218   7.670   0.140   1.113  0.0005 -0.0493  0.0734
 1745W        W18219  11.898   5.564  15.184  0.0990  0.0485 -0.2683
 1746W        W18220  17.541   9.585  12.226  0.2596  0.2825  0.0147
 1747W        W18221  15.230   6.152  15.313  0.3161  0.1485 -0.0355
 1748W        W18222  11.396  13.598   2.528  0.1728 -0.0439 -0.0256
 1749W        W18223   3.252   1.951  10.795  0.3155 -0.0752  0.0552
 1750W        W18224   4.625  10.340   1.835  0.0845  0.1468 -0.1277
 1751W        W18225  15.587   5.524   4.993 -0.0121  0.1248  0.1282
 1752W        W18226  13.160  11.323   4.879  0.0420  0.2213 -0.3503
 1753W        W18227  16.907   9.997   1.150 -0.0666  0.2633 -0.0102
 1754W        W18228  12.822  11.997   3.038  0.0530 -0.1920 -0.1321
 1755W        W18229   3.247   4.741  10.682  0.0839 -0.1143 -0.2354
 1756W        W18230   4.881  16.848   1.068  0.1701 -0.1925  0.0789
 1757W        W18231  11.411  14.901  10.272  0.1226  0.0480  0.0862
 1758W        W18232  16.790   6.346  13.295  0.1927 -0.1084 -0.1359
 1759W        W18233   2.752  15.711  14.798 -0.0202 -0.1784 -0.1405
 1760W        W18234  14.636   1.459   3.653 -0.3204 -0.5172 -0.0068
 1761W        W18235   9.750   5.970   3.369 -0.0621  0.0993  0.1203
 1762W        W18236   1.595   5.805   0.930  0.3270  0.1476 -0.1604
 1763W        W18237  14.527   4.087   3.148  0.1459 -0.1574 -0.2406
 1764W        W18238   4.477   1.302  15.481  0.0671  0.0338 -0.6505
 1765W        W18239   2.416   5.030   1.454  0.1154 -0.0035  0.2053
 1766W        W18240  13.263   2.923   3.124 -0.0512 -0.0791  0.0199
 1767W        W18241  15.817   0.163  11.719 -0.0059  0.0368  0.1940
 1768W        W18242  13.127  11.580  13.585  0.1293 -0.0061 -0.0623
 1769W        W18243   0.586  18.646   0.815 -0.1070  0.1801 -0.4147
 1770W        W18244  17.694   2.763  14.369  0.0930  0.0693 -0.1319
 1771W        W18245   3.300   9.280   1.109  0.2040 -0.0890 -0.2205
 1772W        W18246   6.995  18.638   1.940 -0.2793 -0.1336  0.1217
 1773W        W18247   2.532  12.749   3.076 -0.0820  0.1332 -0.2964
 1774W        W18248   6.866  10.557  14.969  0.1024  0.1029 -0.1498
 1775W        W18249  17.359  12.356  11.486  0.0858 -0.1820  0.0912
 1776W        W18250   2.815   6.866   0.814  0.0617 -0.0401 -0.0220
 1777W        W18251   4.245   6.973   2.276 -0.2349 -0.0887  0.0980
 1778W        W18252  17.887   3.189  12.746  0.1738  0.1225 -0.1883
 1779W        W18253   1.591  17.202  13.444  0.1092 -0.1522  0.0432
 1780W        W18254  15.013  15.229   0.434 -0.0978  0.1488 -0.0342
 1781W        W18255  11.565   2.649  13.046 -0.0983 -0.0596  0.1000
 1782W        W18256  10.257  13.557  14.456 -0.0110 -0.2850  0.0511
 1783W        W18257  11.984   4.468   1.174  0.1426  0.2947 -0.0869
 1784W        W18258   1.963  18.309   2.187  0.0139 -0.1026 -0.1337
 1785W        W18259  15.592   0.788   0.695  0.0933 -0.2898 -0.1684
 1786W        W18260   9.730  16.654  12.611  0.3023 -0.0650  0.0543
 1787W        W18261  17.606   2.557   0.515  0.0760 -0.2800  0.0705
 1788W        W18262  18.595  11.811  15.275  0.2699  0.0561 -0.4356
 1789W        W18263   3.432   0.728  13.439 -0.1749  0.5030 -0.1443
 1790W        W18264   2.594  13.094   4.723  0.1909  0.4169 -0.1911
 1791W        W18265   2.332  14.209   1.582  0.4250 -0.3420 -0.1222
 1792W        W18266  17.036  13.969   3.792 -0.0279 -0.3764 -0.0757
 1793W        W18267   8.089   7.630   4.590  0.1996 -0.1969 -0.3232
 1794W        W18268  17.653  11.802  12.518  0.0913 -0.0573 -0.2835
 1795W        W18269   7.472  15.715   0.764  0.2042  0.1938 -0.4147
 1796W        W18270  14.459   6.533   3.328  0.0920  0.4202  0.0199
 1797W        W18271   1.646   4.898  15.520 -0.1387  0.1363 -0.3755
 1798W        W18272  12.672   0.770   2.523  0.3123  0.1242  0.2637
 1799W        W18273   0.274  12.125   1.421 -0.1822 -0.1367  0.1584
 1800W        W18274  16.832   2.536   0.829  0.5144  0.2693  0.0175
 1801W        W18275   2.956  10.869   4.109  0.0799 -0.0881 -0.1491
 1802W        W18276   9.456   3.060   1.959  0.0174  0.2337 -0.1514
 1803W        W18277  18.770   1.896  12.417  0.0016 -0.2639 -0.0141
 1804W        W18278   3.469  11.880   5.225  0.0562  0.1702 -0.0713
 1805W        W18279   7.345   4.249  11.033 -0.0333 -0.0648  0.0276
 1806W        W18280  18.388   2.686  12.369 -0.1852  0.0218 -0.0028
 1807W        W18281   0.613  11.730   2.852 -0.0873  0.2880 -0.1263
 1808W        W18282   1.271  10.093  13.661  0.0325 -0.2868  0.0680
 1809W        W18283  14.973   2.582   1.316 -0.0609  0.0052 -0.3987
 1810W        W18284   4.740   5.169  15.569  0.1752 -0.2778 -0.1810
 1811W        W18285  17.698  10.739   2.926 -0.3449  0.0927  0.0091
 1812W        W18286  15.064   3.833  12.932  0.0821 -0.0943  0.2434
 1813W        W18287  13.349  15.487  12.697  0.1537 -0.2350  0.4196
 1814W        W18288  15.829  17.225  15.317  0.0486 -0.1250 -0.1235
 1815W        W18289  11.489  13.726   3.148 -0.3287  0.1403  0.0258
 1816W        W18290   8.059   6.987   2.223  0.0672  0.0693  0.1695
 1817W        W18291  14.383   1.767   2.732  0.1996 -0.0151  0.0706
 1818W        W18292  16.210  10.382  13.875 -0.1975  0.0036  0.0706
 1819W        W18293   7.089   1.569   3.594  0.0134  0.2262  0.0763
 1820W        W18294   0.412   1.437   0.933  0.0466 -0.1847  0.0659
 1821W        W18295   4.931   1.358  12.947  0.1021 -0.0972 -0.1310
 1822W        W18296   3.011   3.165  15.209  0.0884  0.1344 -0.0332
 1823W        W18297   8.437  10.487  10.881  0.0727  0.2637  0.3543
 1824W        W18298   6.915   9.099   3.946  0.0309  0.2082  0.3710
 1825W        W18299   7.071   1.061   4.597 -0.1507 -0.1699 -0.0978
 1826W        W18300  16.362  18.055  11.851 -0.1345 -0.2521 -0.3209
 1827W        W18301  16.566   5.535  13.587  0.4047  0.2854 -0.0946
 1828W        W18302  17.822   8.176  14.779  0.0763 -0.1661 -0.0086
 1829W        W18303   5.471   6.429  14.570 -0.1651 -0.2342  0.4563
 1830W        W18304  17.867   8.151  13.248  0.2979  0.2991  0.0560
 1831W        W18305  14.670  11.499   4.967 -0.2403 -0.0432  0.0591
 1832W        W18306  14.157  13.746   3.900 -0.0694  0.0242 -0.1786
 1833W        W18307  14.196   6.005   0.503  0.0232 -0.1284 -0.2701
 1834W        W18308  13.658   1.978  10.696  0.1039 -0.0517  0.1639
 1835W        W18309  17.790  17.650  13.377  0.1455  0.2041 -0.0732
 1836W        W18310   9.248   1.035  14.763 -0.1218 -0.1623  0.1611
 1837W        W18311   5.784   3.116  13.120 -0.0620 -0.3764 -0.2739
 1838W        W18312  13.021  13.384  10.945  0.0146 -0.0406  0.2207
 1839W        W18313  15.011  17.570   2.146 -0.1465  0.1588 -0.3835
 1840W        W18314  12.303  15.495  12.127  0.2665  0.0389  0.0344
 1841W        W18315   1.855  11.957  13.930  0.0425  0.1113 -0.2960
 1842W        W18316  16.708  11.370  14.819  0.0183 -0.3569  0.0108
 1843W        W18317   3.030  16.745  10.798 -0.2900 -0.1229 -0.0264
 1844W        W18318   6.682  15.510  14.438 -0.0460 -0.0883  0.0246
 1845W        W18319  13.436   8.477  12.715 -0.0139 -0.1039  0.2337
 1846W        W18320   7.103  16.592   2.353  0.4688 -0.3415  0.1277
 1847W        W18321   1.488   3.387   1.095  0.1794 -0.2806  0.0232
 1848W        W18322   6.059  11.502  14.275  0.1102 -0.1935  0.1308
 1849W        W18323   3.879  14.958  13.765 -0.1151 -0.1734 -0.0131
 1850W        W18324  18.484   4.032  12.812 -0.1146  0.1223  0.0508
 1851W        W18325  14.773   8.323   0.773 -0.1993 -0.2000 -0.0504
 1852W        W18326  15.986   1.607  12.543 -0.3180  0.3757 -0.0361
 1853W        W18327   9.793   8.702   3.861 -0.1891  0.0931  0.1982
 1854W        W18328   3.912  18.073  10.769 -0.1768 -0.0408 -0.1259
 1855W        W18329   1.817   8.016   4.959  0.2365 -0.0277  0.1188
 1856W        W18330   8.265   5.027   4.257  0.1815 -0.4164 -0.0316
 1857W        W18331  16.572   9.694  10.859 -0.0612  0.0691  0.0676
 1858W        W18332  13.606   3.973   3.173 -0.1107  0.4030  0.2167
 1859W        W18333   2.178   6.158  12.605 -0.3090 -0.2844 -0.0948
 1860W        W18334  18.416   2.175  13.454 -0.0812 -0.1090  0.2286
 1861W        W18335   5.228  11.356  13.941 -0.2657 -0.0403 -0.2469
 1862W        W18336  12.440   9.929  11.463  0.0145 -0.0251  0.1249
 1863W        W18337   9.186  18.455   1.557  0.2128  0.1126  0.1299
 1864W        W18338  11.244   2.426   4.035  0.1081 -0.0376 -0.6847
 1865W        W18339  11.524   5.123   0.823  0.0566 -0.0417 -0.0149
 1866W        W18340   7.035   9.813  12.452  0.1680  0.0863  0.2023
 1867W        W18341   5.985   0.770   1.051 -0.0018 -0.1016 -0.2624
 1868W        W18342   4.390   1.006   2.960 -0.0784 -0.2962 -0.0379
 1869W        W18343  17.433   1.998  11.337  0.2879 -0.1587 -0.2581
 1870W        W18344   2.041  14.210   3.903  0.0740 -0.1785 -0.2558
 1871W        W18345   5.089   0.365  11.749 -0.3042  0.3806 -0.2553
 1872W        W18346   9.989  10.060   4.546 -0.0963  0.2267  0.1820
 1873W        W18347  13.460   1.683  14.588 -0.2419  0.1238  0.0729
 1874W        W18348  13.669  16.318   0.296 -0.2212  0.1847 -0.0411
 1875W        W18349  17.893  16.593   4.544 -0.0461 -0.2252 -0.1019
 1876W        W18350   3.435   5.907   4.234 -0.1365  0.1138 -0.0830
 1877W        W18351   7.762   1.380  11.012  0.2979  0.0136 -0.1131
 1878W        W18352  12.926   2.082  11.778 -0.0188 -0.0039 -0.0342
 1879W        W18353  13.286  12.873  12.001  0.1762 -0.1970 -0.3386
 1880W        W18354  17.453  11.205  13.372  0.0012 -0.3178  0.2161
 1881W        W18355  17.342  16.465  11.155  0.2000 -0.1014 -0.3835
 1882W        W18356  11.838  18.640   1.244 -0.0747  0.1208 -0.0550
 1883W        W18357   8.578   4.399   2.747 -0.0316 -0.1064  0.2061
 1884W        W18358  16.461  17.445  10.882  0.1252 -0.1409 -0.2473
 1885W        W18359   5.673   4.150   5.091 -0.1054 -0.0284  0.0290
 1886W        W18360   1.632  12.884   3.878 -0.0390 -0.0297  0.0610
 1887W        W18361   3.338  16.971  14.758 -0.1839 -0.0710  0.0826
 1888W        W18362   7.239  13.642  14.351  0.2422  0.1079 -0.2197
 1889W        W18363   3.101  15.055  15.395  0.1544 -0.2202 -0.3557
 1890W        W18364   3.516  11.818  12.479  0.0370  0.2376 -0.0692
 1891W        W18365  13.301  10.214   5.686  0.0327  0.0950 -0.1362
 1892W        W18366  12.318  13.154   5.657  0.2457  0.2094  0.1735
 1893W        W18367   4.434   8.836   1.926  0.0819 -0.2278 -0.2249
 1894W        W18368   3.999  17.018  10.429 -0.0028  0.1772 -0.1091
 1895W        W18369   6.527  14.800   4.720 -0.1382  0.1749  0.1438
 1896W        W18370  18.234  14.277  13.637  0.0252 -0.0776 -0.1261
 1897W        W18371   9.302  15.072   1.743 -0.1230 -0.1001  0.0926
 1898W        W18372  10.832  14.362   1.185 -0.0370  0.2681  0.0790
 1899W        W18373  17.588   9.779  11.290  0.1934  0.0080 -0.1161
 1900W        W18374   2.741   8.414   0.363  0.1222 -0.0025 -0.0417
 1901W        W18375   9.258  10.516   4.282 -0.0184  0.0468 -0.0106
 1902W        W18376  17.257   5.768  13.087 -0.0548 -0.0161  0.0169
 1903W        W18377   6.382   4.605  10.303  0.3794  0.0741 -0.0857
 1904W        W18378  17.934   2.999   2.319 -0.0899 -0.0236 -0.0045
 1905W        W18379  10.456  18.121   2.123 -0.0048  0.2296 -0.2046
 1906W        W18380  14.784   2.350   2.076  0.0025  0.0835 -0.1538
 1907W        W18381   8.757  14.870  12.699 -0.0682 -0.1586  0.0621
 1908W        W18382   3.311   2.902   4.623  0.0088 -0.2437 -0.1134
 1909W        W18383   9.676  18.480  15.207  0.2625  0.0048 -0.1989
 1910W        W18384   4.994   3.506  14.903  0.0178 -0.1081 -0.2378
 1911W        W18385  16.691  13.015   5.436  0.0368  0.2013  0.1395
 1912W        W18386  16.164  15.234   0.098 -0.1466  0.1148  0.1409
 1913W        W18387   7.871   8.369   2.537  0.2843 -0.1973  0.2013
 1914W        W18388   2.657  13.682   4.023  0.2576 -0.3005  0.1738
 1915W        W18389   4.656  15.139  13.611 -0.0218 -0.1244 -0.3040
 1916W        W18390   9.290   1.544   5.957 -0.1660 -0.0005  0.3274
 1917W        W18391   4.203  16.766  11.520  0.2638 -0.0233 -0.1366
 1918W        W18392  18.700   8.288  14.913  0.0478 -0.0062 -0.0577
 1919W        W18393   3.758  12.594   5.242  0.4294  0.0417  0.1169
 1920W        W18394  13.059   8.153   5.223 -0.0074 -0.0249 -0.1209
 1921W        W18395   6.553  15.851   1.901  0.0383 -0.1754  0.1861
 1922W        W18396  14.559  17.482   2.402 -0.0079 -0.1644  0.0013
 1923W        W18397   1.989   2.885   1.541 -0.2514  0.2262  0.1562
 1924W        W18398   1.159  15.495  11.901  0.2610 -0.0240 -0.1059
 1925W        W18399  14.476   4.937  12.320  0.2215  0.0134  0.0879
 1926W        W18400   0.462  11.560  10.615 -0.0043  0.0508 -0.2079
 1927W        W18401  13.727   5.137   4.581  0.0408  0.0225  0.2722
 1928W        W18402  13.151   3.330  14.920 -0.0034 -0.0918  0.0110
 1929W        W18403  11.951  18.015  12.013 -0.2819 -0.0965  0.1690
 1930W        W18404  12.371   3.054  15.381 -0.0800 -0.1641  0.0870
 1931W        W18405  13.017  10.334  13.047  0.0828  0.2914 -0.0906
 1932W        W18406   8.551  16.580  12.709  0.1077  0.0384  0.0920
 1933W        W18407  12.708  17.659  14.211 -0.0014 -0.0948  0.0504
 1934W        W18408  11.894   6.961  12.849 -0.1393 -0.1930 -0.1753
 1935W        W18409   2.835   0.248   2.351  0.0985 -0.1143 -0.2161
 1936W        W18410  15.910   9.893  11.559 -0.1854 -0.2014  0.0549
 1937W        W18411   2.754   3.867   4.095  0.0017 -0.0292 -0.0569
 1938W        W18412  10.541   3.000   2.511 -0.0815  0.2891 -0.1941
 1939W        W18413  17.202   1.350  11.957  0.0323 -0.0309  0.1405
 1940W        W18414   5.257  11.895  11.171  0.2084  0.1940 -0.1664
 1941W        W18415  17.662  13.154  10.965 -0.2210 -0.0352  0.2687
 1942W        W18416   1.750   6.717   2.847 -0.0296 -0.0640 -0.0640
 1943W        W18417   4.476   9.656   0.249 -0.0893 -0.1365 -0.2723
 1944W        W18418  15.583  14.473   0.985  0.1032  0.3347 -0.0666
 1945W        W18419  10.005  17.470   3.721  0.0299 -0.4561 -0.0032
 1946W        W18420   6.675  15.600   3.704  0.0704  0.1786 -0.0595
 1947W        W18421  11.492  18.619   0.671  0.0426 -0.1274 -0.2369
 1948W        W18422   7.783   3.254   4.944  0.0031  0.4211 -0.1068
 1949W        W18423   1.705   6.925  14.870 -0.1366  0.1444 -0.1272
 1950W        W18424   9.429  15.586   4.178 -0.2187 -0.2725  0.0244
 1951W        W18425  12.412  18.760  14.237  0.2357  0.0977 -0.0167
 1952W        W18426   8.794   3.203  15.446  0.1162  0.0544 -0.1132
 1953W        W18427  15.695   9.069   3.698  0.1449  0.1906 -0.2475
 1954W        W18428   4.233   6.077  14.138  0.3358  0.0599 -0.0486
 1955W        W18429  11.334   4.074   1.714 -0.0605 -0.1551 -0.0569
 1956W        W18430  16.127   9.853   4.782 -0.1701  0.0283 -0.1151
 1957W        W18431  15.901  16.105   5.373 -0.0366  0.0756  0.0916
 1958W        W18432   7.897   1.017   3.138  0.0109 -0.0420  0.0637
 1959W        W18433   3.826  13.221   4.148  0.2769 -0.2195  0.1628
 1960W        W18434   9.100  18.266  13.194  0.1291 -0.1689  0.1260
 1961W        W18435  17.331   1.186   0.217 -0.0217  0.1472 -0.1786
 1962W        W18436  18.484  10.234  14.141  0.1075 -0.1145  0.0072
 1963W        W18437   3.442   6.719  10.418 -0.3435  0.4571  0.1062
 1964W        W18438   2.187   5.580  15.370 -0.0908  0.0889 -0.2989
 1965W        W18439  11.743   7.747  13.958  0.2206  0.4833  0.2511
 1966W        W18440   1.989   3.980   2.981  0.1797 -0.3189 -0.0797
 1967W        W18441   9.666  18.177  14.434  0.0044 -0.3523  0.0312
 1968W        W18442   8.326  14.437  13.733 -0.2645  0.0444  0.0569
 1969W        W18443   3.372  13.547   1.191  0.0101  0.2022 -0.1440
 1970W        W18444  18.037  13.544  12.021  0.5121 -0.0296 -0.0917
 1971W        W18445  11.988  11.202  15.316 -0.2363  0.2628 -0.0067
 1972W        W18446  12.837  18.164  14.900 -0.2114 -0.0569  0.3287
 1973W        W18447  15.641  18.627  11.111 -0.4187  0.1750  0.1795
 1974W        W18448  10.366   3.179   1.074 -0.2280  0.1373 -0.1299
 1975W        W18449   5.910   7.599   0.745  0.0919  0.2650  0.1487
 1976W        W18450  16.200   6.467   9.803  0.0004  0.4467 -0.1606
 1977W        W18451   4.738   9.828   1.701  0.1256 -0.0021 -0.1849
 1978W        W18452  18.552  14.921  15.202  0.3300  0.0470  0.1817
 1979W        W18453  14.185  17.438   2.736 -0.2025 -0.1596  0.1935
 1980W        W18454   2.356   0.127  13.434  0.2360  0.0446 -0.2609
 1981W        W18455   6.775   9.774   0.404  0.0190  0.1857  0.2676
 1982W        W18456   5.008   2.294  13.378 -0.1440 -0.0747 -0.2151
 1983W        W18457  15.378  12.764   2.186 -0.0668  0.0112 -0.0867
 1984W        W18458   8.404  11.036   4.481  0.1987  0.2523  0.2890
 1985W        W18459  13.288   1.179   0.355 -0.0279  0.1269  0.0053
 1986W        W18460   8.240   3.585  14.031  0.2649 -0.1878  0.0877
 1987W        W18461  10.188   2.273  11.523  0.0997  0.1412  0.0787
 1988W        W18462  16.667   7.729   4.490 -0.0291 -0.0156 -0.0660
 1989W        W18463   6.144  18.111  14.002 -0.2973 -0.0383 -0.3325
 1990W        W18464   3.959  17.789   1.388 -0.2466  0.1467  0.0180
 1991W        W18465  16.147  10.188   2.250 -0.3247  0.2205  0.3188
 1992W        W18466  12.120   1.777  13.468  0.1954 -0.1235 -0.1896
 1993W        W18467   9.873  14.847   4.344 -0.1495  0.0976 -0.0818
 1994W        W18468  15.597   7.095  12.682 -0.0737 -0.2701  0.3396
 1995W        W18469   8.430  16.864   0.210 -0.1098  0.2835  0.1516
 1996W        W18470  15.014  17.410  12.491  0.0152 -0.0030 -0.1204
 1997W        W18471  14.427  13.135   0.477 -0.4172  0.0123 -0.0026
 1998W        W18472  13.131   4.704   1.936 -0.0048  0.1819  0.0140
 1999W        W18473   8.566   3.961  13.971 -0.1740 -0.3177  0.1068
 2000W        W18474   2.737  10.795  15.567  0.3561  0.1405 -0.0353
 2001W        W18475   6.720  10.353   2.533  0.3772  0.0276 -0.3979
 2002W        W18476  17.127  11.831   4.048  0.2155  0.0200  0.0349
 2003W        W18477  16.894   4.600  12.238  0.0280  0.0594 -0.0781
 2004W        W18478  11.241   0.839   1.385  0.1128  0.3227  0.1450
 2005W        W18479  13.189  17.179  10.969 -0.0024  0.2312  0.2211
 2006W        W18480  12.080  13.498  13.473  0.3078  0.2422 -0.1242
 2007W        W18481  14.008  15.312   1.948 -0.2226  0.0385  0.0998
 2008W        W18482   3.082  15.781  12.760  0.1919 -0.1054  0.1793
 2009W        W18483  17.325  13.944   0.655 -0.0587  0.1985  0.0659
 2010W        W18484  13.240  13.712   1.501 -0.3200  0.0210 -0.0727
 2011W        W18485  13.497  16.572  11.808  0.1247 -0.0733  0.0244
 2012W        W18486   3.584  18.356   0.415  0.1089  0.0290 -0.2586
 2013W        W18487   0.493   0.914   3.378 -0.1486 -0.1865 -0.0435
 2014W        W18488   5.217  15.059  11.176 -0.3138  0.0971 -0.2377
 2015W        W18489  10.560  14.746   2.925  0.3068 -0.1543 -0.2176
 2016W        W18490   6.993  10.286   1.501  0.3633 -0.0445  0.1485
 2017W        W18491  13.572  14.528  11.209  0.1780 -0.2101 -0.1373
 2018W        W18492   2.708   7.996  12.316  0.3621  0.3659 -0.1017
 2019W        W18493   8.386   2.722  11.407  0.0089  0.0952  0.1822
 2020W        W18494  18.741  13.117   5.161 -0.0511 -0.1227  0.0638
 2021W        W18495  18.422   1.915   2.932 -0.1370  0.1095  0.2388
 2022W        W18496   1.918  12.982   3.437 -0.1896  0.1383  0.2473
 2023W        W18497  16.535  14.408   5.214  0.0263 -0.1334  0.3556
 2024W        W18498  13.109  10.346  13.532 -0.1113  0.1045  0.2213
 2025W        W18499   0.558  11.987  14.077  0.0007 -0.0659  0.1938
 2026W        W18500   7.517  10.392  15.533 -0.2083  0.2393 -0.0861
 2027W        W18501   4.142  11.450   3.224  0.1052 -0.1005 -0.1287
 2028W        W18502   6.065   7.358   5.292  0.1235  0.3008  0.2686
 2029W        W18503   7.632  16.191  12.504  0.2235  0.2085 -0.1166
 2030W        W18504   6.690  14.321  11.537  0.3221  0.1456 -0.1227
 2031W        W18505  18.135   5.876  11.613  0.0048  0.0261  0.1854
 2032W        W18506  13.386   1.648  13.128  0.1875 -0.0380 -0.3842
 2033W        W18507  14.336  18.788   3.524 -0.2578  0.0187 -0.0222
 2034W        W18508   9.168   3.642   4.581 -0.2920  0.1721 -0.0919
 2035W        W18509  17.985  11.522  14.493  0.1987 -0.0564  0.1083
 2036W        W18510   1.892   3.948  11.026 -0.0464 -0.2049 -0.4370
 2037W        W18511  14.355  11.937  14.785  0.1636  0.2051 -0.0158
 2038W        W18512   1.904  11.898   1.599  0.0574 -0.1351 -0.0754
 2039W        W18513   0.530   6.381   2.771 -0.5333 -0.0810 -0.2436
 2040W        W18514   8.726  17.060   5.399 -0.2443  0.0699 -0.0269
 2041W        W18515  14.265   6.288   2.305 -0.3934 -0.1937 -0.0924
 2042W        W18516  14.721   2.245   4.803 -0.1653 -0.0167 -0.0630
 2043W        W18517   9.394  11.144  14.879 -0.0775  0.1085 -0.1606
 2044W        W18518  17.769  17.360   0.895  0.1555  0.0397  0.0750
 2045W        W18519  11.098  12.412   4.231 -0.0549  0.0988 -0.1843
 2046W        W18520   4.429  16.238   3.702  0.0139  0.1206 -0.0838
 2047W        W18521  13.012   0.899   2.881  0.1319 -0.2541  0.1644
 2048W        W18522   6.945  10.835  10.422 -0.0034 -0.3906  0.0929
 2049W        W18523   6.943   5.749  10.316  0.2489  0.2508 -0.0427
 2050W        W18524  10.791   7.042   0.271  0.0406 -0.2230  0.1606
 2051W        W18525   3.215   5.744   3.384 -0.1690 -0.0099 -0.0456
 2052W        W18526  11.327  11.538   1.471  0.0342 -0.0328 -0.1301
 2053W        W18527  17.450  18.220   1.703 -0.2824 -0.0551 -0.2794
 2054W        W18528  13.033  16.387   0.021 -0.0638 -0.1159  0.2601
 2055W        W18529   3.169   2.383   0.172  0.2029  0.1833 -0.2938
 2056W        W18530  12.428  18.016  12.859 -0.0473 -0.0665 -0.1997
 2057W        W18531  10.885  13.165   2.981 -0.0587 -0.0336  0.0566
 2058W        W18532   2.646  10.305   0.095  0.0784 -0.0777  0.1057
 2059W        W18533  16.077   7.425   2.128 -0.1092 -0.0050 -0.0482
 2060W        W18534   6.883  11.581   2.205  0.2974 -0.1810  0.0404
 2061W        W18535  18.608   4.627  12.420 -0.1050  0.4721  0.1714
 2062W        W18536  10.474   7.322   3.707  0.0845 -0.0989 -0.1147
 2063W        W18537   5.635   3.309  14.354  0.1423 -0.0330  0.1276
 2064W        W18538   2.779   1.430  13.569 -0.2914 -0.0693 -0.1421
 2065W        W18539   2.118  13.971   4.467  0.1306 -0.0314 -0.0490
 2066W        W18540   8.618  18.778   1.866 -0.3800 -0.1074 -0.0180
 2067W        W18541  16.308  16.653   3.578  0.3588  0.1112  0.0094
 2068W        W18542  14.273  17.571  12.316 -0.2826  0.0552  0.5198
 2069W        W18543  15.291  17.018  12.683  0.1786 -0.0349  0.2399
 2070W        W18544   9.512   4.152   3.576 -0.1567 -0.2116 -0.0056
 2071W        W18545   3.108   9.155  12.719  0.1511 -0.2118  0.0011
 2072W        W18546  16.505   8.089  13.417  0.0080  0.2685 -0.1569
 2073W        W18547   5.626   1.048   3.131 -0.0424  0.4562  0.0313
 2074W        W18548   4.779   0.157   2.515  0.0879 -0.2439  0.0230
 2075W        W18549  16.981   3.813   1.836  0.0052  0.0682 -0.1833
 2076W        W18550   2.289  18.191  15.356 -0.0158  0.0327  0.1433
 2077W        W18551  14.547  11.906   0.919  0.1285  0.0460  0.0674
 2078W        W18552   8.737  11.932   1.472 -0.1912  0.1429 -0.0472
 2079W        W18553   6.271  17.712  13.305  0.0408 -0.0465  0.0318
 2080W        W18554   6.560  15.903  11.322 -0.2144 -0.1634  0.2558
 2081W        W18555  10.645  12.647  15.515 -0.0044  0.1769  0.1431
 2082W        W18556   4.531  17.135   2.484 -0.1871  0.0797 -0.2012
 2083W        W18557   9.335  13.609   0.248 -0.0652 -0.2132  0.2108
 2084W        W18558   6.123  16.056  10.767 -0.0472  0.0209  0.0715
 2085W        W18559   5.361  17.902   2.638 -0.0339  0.0951  0.3340
 2086W        W18560  17.749  17.646  14.655 -0.0764  0.0529  0.1052
 2087W        W18561  12.474   7.513  13.560  0.2017 -0.3091  0.0722
 2088W        W18562   7.893  15.277   1.370 -0.0673 -0.1025 -0.0709
 2089W        W18563  17.563   8.341   1.996 -0.2168 -0.1318 -0.0257
 2090W        W18564  17.375   8.726   1.199 -0.0326 -0.0016  0.3167
 2091W        W18565   8.030  11.603   0.993  0.0388 -0.0963  0.0096
 2092W        W18566  13.391  17.688   4.495  0.3704  0.0223  0.3031
 2093W        W18567   8.872  13.621  12.544 -0.0136 -0.0879  0.2041
 2094W        W18568   8.521   7.278   2.836  0.1566  0.2927  0.2033
 2095W        W18569  14.700  14.275  15.478  0.0330 -0.0308 -0.0511
 2096W        W18570   5.515   6.426   4.730 -0.0734  0.0519  0.0544
 2097W        W18571  12.580   7.613  12.282 -0.0256  0.0731 -0.2647
 2098W        W18572   1.887  11.703   0.809 -0.1465 -0.0960  0.1109
 2099W        W18573   8.666   1.593   3.402 -0.1507 -0.2977 -0.1596
 2100W        W18574  12.053  16.221  14.326 -0.1159  0.0834  0.3569
 2101W        W18575  11.572  12.613   0.252  0.2292  0.1177 -0.2033
 2102W        W18576   3.714   6.506   3.452 -0.0162  0.2302 -0.1910
 2103W        W18577  14.031  15.926  12.763  0.1767 -0.3997 -0.3433
 2104W        W18578   6.560   0.418   1.443  0.2533  0.0289  0.1448
 2105W        W18579   5.516  11.961   3.271  0.3622  0.0644 -0.3982
 2106W        W18580   5.061   6.867   1.718  0.0959  0.0078  0.5387
 2107W        W18581  11.914   9.640   3.672  0.0629 -0.4495  0.1905
 2108W        W18582  14.102   3.677  11.250 -0.3093 -0.2998 -0.0503
 2109W        W18583  13.864   8.730  15.016  0.0351  0.0359 -0.0186
 2110W        W18584   6.809   9.781  15.452 -0.2590 -0.2762 -0.0597
 2111W        W18585   2.776   0.729  11.281  0.0359  0.3390  0.0972
 2112W        W18586   8.925  12.068   2.933 -0.2326 -0.0310  0.1761
 2113W        W18587   3.940  15.027   3.476 -0.1335  0.0384  0.0590
 2114W        W18588   8.596   0.626  14.776  0.3613 -0.1021  0.0008
 2115W        W18589   5.004  12.356  14.890 -0.0197 -0.0006 -0.0529
 2116W        W18590   4.847  18.450   2.521  0.0448 -0.2828 -0.0334
 2117W        W18591   9.409  10.886  12.361  0.1044 -0.1427  0.0682
 2118W        W18592  15.110  16.525  11.983 -0.0638 -0.0137 -0.1806
 2119W        W18593   2.092  16.901   5.063  0.0127  0.1147  0.3576
 2120W        W18594  15.648   8.376   1.248  0.5200 -0.4753 -0.1189
 2121W        W18595   8.220  11.941  11.510  0.1653  0.0150  0.2025
 2122W        W18596   7.600   8.007   0.001 -0.2830 -0.1478 -0.1504
 2123W        W18597   8.004   1.380   4.210 -0.0354  0.1420  0.1664
 2124W        W18598  16.690  18.408   2.347 -0.1199  0.1096 -0.0681
 2125W        W18599   1.363   4.613  14.157  0.1551 -0.1365 -0.0467
 2126W        W18600  15.303   3.184  14.315  0.0244  0.0852  0.0248
 2127W        W18601   7.214   2.330   3.669  0.0095  0.0479  0.3420
 2128W        W18602   5.459  10.525   4.845 -0.0070 -0.2035  0.0510
 2129W        W18603   7.043   7.365   5.696  0.2877 -0.2711 -0.1445
 2130W        W18604   1.064   6.031  10.978  0.0631 -0.1626  0.0066
 2131W        W18605   6.147  17.287   0.218 -0.1558 -0.1392 -0.0170
 2132W        W18606   9.440   3.838  12.094  0.0903 -0.5095 -0.1073
 2133W        W18607   9.484   9.566   5.345  0.0740  0.4408 -0.0261
 2134W        W18608  16.164   0.259   1.937 -0.1994  0.2313 -0.0695
 2135W        W18609  17.923  15.719  15.142  0.0119  0.2362  0.2521
 2136W        W18610  11.345  16.029   2.470  0.2126 -0.1470 -0.0649
 2137W        W18611  15.415   6.345   3.625  0.0472 -0.1252 -0.0202
 2138W        W18612  16.765  10.407  12.305  0.0115  0.0726  0.0839
 2139W        W18613  17.551   2.537  15.206 -0.3030 -0.2242  0.0352
 2140W        W18614   9.394  16.545   0.357  0.1754 -0.1492  0.0999
 2141W        W18615  11.336  17.491  12.522  0.0495 -0.0132  0.0080
 2142W        W18616  14.512   1.548  12.848  0.1049 -0.0509  0.1959
 2143W        W18617   1.947  17.394  13.717 -0.1802 -0.1055 -0.0422
 2144W        W18618   7.512   4.001   2.240 -0.0234 -0.1079  0.1381
 2145W        W18619   2.712  11.667   1.375 -0.0093  0.0381 -0.4051
 2146W        W18620   2.503   3.193  14.085  0.1218 -0.1359  0.1656
 2147W        W18621  12.008   1.139   9.851  0.3512 -0.0713  0.1065
 2148W        W18622   5.612  12.930  10.620  0.0357 -0.1846 -0.1989
 2149W        W18623  15.271   1.900  12.975 -0.2079 -0.0172  0.2867
 2150W        W18624   1.603  10.040   4.354 -0.1689 -0.0022 -0.0043
 2151W        W18625   7.813   1.615  10.481 -0.2884 -0.2268 -0.1640
 2152W        W18626  17.685  16.996   1.896 -0.3430 -0.1827 -0.1537
 2153W        W18627   4.485  12.448  12.417  0.2114  0.0282  0.2920
 2154W        W18628   3.989  17.667   0.018 -0.2408  0.0063  0.0332
 2155W        W18629  14.117   0.174   4.473 -0.0545  0.1735 -0.1859
 2156W        W18630   0.020   9.583   1.265  0.1191  0.0890 -0.0949
 2157W        W18631   9.843   1.152   4.295  0.2169  0.2763  0.1707
 2158W        W18632   1.926   6.825  12.379  0.1788  0.1626 -0.0760
 2159W        W18633  18.739   9.529   4.630  0.1649  0.1117 -0.1759
 2160W        W18634   9.141   0.412   4.532 -0.0119  0.0532  0.1944
 2161W        W18635   7.268  14.074   5.064  0.5633 -0.1860  0.0735
 2162W        W18636  18.234  13.674   3.718  0.1534 -0.2326  0.3384
 2163W        W18637   4.412   4.676   1.511 -0.2355  0.2049 -0.0498
 2164W        W18638   6.998  11.638  13.604 -0.0690 -0.1965 -0.0165
 2165W        W18639   1.326   2.266   5.428 -0.1908 -0.1832 -0.0587
 2166W        W18640   4.768   1.122  13.347 -0.0612  0.0988 -0.0624
 2167W        W18641   9.795  12.849  15.455  0.3686  0.3331 -0.2386
 2168W        W18642   6.429   9.374   0.076  0.0377 -0.1837 -0.0980
 2169W        W18643   3.489   0.457   2.835  0.1582  0.0615  0.2730
 2170W        W18644  13.118  16.284  12.641  0.6172 -0.1361  0.1864
 2171W        W18645   7.301   0.168   1.489  0.4561  0.0019 -0.1779
 2172W        W18646   4.581   5.993   0.282  0.0524  0.0632 -0.1253
 2173W        W18647  15.857   5.166   4.014  0.0496 -0.0599 -0.0263
 2174W        W18648  10.654   7.749   0.503 -0.2104  0.1409  0.2435
 2175W        W18649  18.786   3.621   3.537 -0.1169 -0.2077 -0.1535
 2176W        W18650  17.808   2.290  14.058 -0.0038 -0.0095 -0.0524
 2177W        W18651  15.922   6.196   3.575  0.0859  0.0526  0.0146
 2178W        W18652  12.926   6.504   0.424  0.1375  0.0834  0.1717
 2179W        W18653  11.012   2.427   1.744 -0.0043  0.1806  0.1453
 2180W        W18654  10.669  16.132   3.253  0.2597  0.1766 -0.0141
 2181W        W18655   6.352  18.609   0.253 -0.1819 -0.2024  0.3926
 2182W        W18656  16.073  14.645   2.901 -0.1806 -0.0851 -0.1625
 2183W        W18657  14.550  17.741   4.342 -0.0333  0.3192  0.3260
 2184W        W18658  15.655   1.430   3.493 -0.2462  0.3602 -0.3558
 2185W        W18659  15.483   0.171   3.253 -0.1200 -0.1351 -0.1115
 2186W        W18660  15.434  17.769   4.904  0.3634 -0.0394 -0.1132
 2187W        W18661   6.635  13.037  12.378 -0.0977  0.2855  0.0410
 2188W        W18662   3.562  10.609   0.359  0.1055  0.1694 -0.2507
 2189W        W18663  12.349  15.548   0.867 -0.2861 -0.3304 -0.1391
 2190W        W18664  12.574  10.875  11.150  0.0714  0.2179  0.2980
 2191W        W18665   7.481   3.174   1.681  0.2328  0.2964  0.1299
 2192W        W18666  14.252  16.281   0.365 -0.2021 -0.1075 -0.0541
 2193W        W18667   5.382  12.977  12.110 -0.2539  0.2476 -0.0026
 2194W        W18668  11.091   0.102   4.453 -0.2800 -0.1600 -0.1318
 2195W        W18669  16.889  13.916   3.250  0.1635  0.1346  0.0341
 2196W        W18670   3.589   3.834  12.707 -0.0836  0.2808  0.2427
 2197W        W18671  12.568  17.834   3.757  0.2301 -0.1086 -0.3396
 2198W        W18672   6.261   3.368   0.050 -0.0589 -0.0509 -0.1210
 2199W        W18673  10.851  18.652   1.329 -0.2368  0.1900 -0.1134
 2200W        W18674  11.741   0.660  12.386  0.2774  0.0286  0.2500
 2201W        W18675   3.796   2.256   2.359  0.3067 -0.3104 -0.0134
 2202W        W18676   2.341  10.194   2.134 -0.2447 -0.0078  0.0786
 2203W        W18677  12.297  16.948   0.008 -0.0039 -0.1303 -0.0963
 2204W        W18678   4.922   8.543  12.628 -0.2167  0.0756  0.3714
 2205W        W18679   8.050   6.472  13.150 -0.0109 -0.0073 -0.2852
 2206W        W18680   3.709   1.478   3.530 -0.0516  0.2649 -0.1216
 2207W        W18681  16.819   2.314   5.147  0.2739 -0.0766 -0.0108
 2208W        W18682  14.386   8.730   5.330 -0.0635 -0.0673 -0.0649
 2209W        W18683   1.029   1.884   3.255  0.1568 -0.9120 -0.3649
 2210W        W18684  16.858   3.669   0.095  0.0561  0.0726  0.1109
 2211W        W18685   9.516   1.049   5.258 -0.2744 -0.0586  0.0403
 2212W        W18686   9.560   0.133  13.386  0.0610 -0.0234 -0.1915
 2213W        W18687  13.646   8.574   1.177  0.0220  0.0567  0.1394
 2214W        W18688   5.235   1.813  11.544  0.0593 -0.4346 -0.1302
 2215W        W18689   9.117   2.619   5.092 -0.1134  0.2404  0.0461
 2216W        W18690  11.974   5.425   0.927  0.1419  0.2020 -0.0905
 2217W        W18691  14.732   4.408   4.222  0.2754 -0.0925  0.1129
 2218W        W18692   7.923   6.496   2.103  0.0370  0.2478  0.2290
 2219W        W18693   6.751  11.746  10.212  0.1561 -0.0755  0.2661
 2220W        W18694   3.824   3.066  10.165 -0.1402  0.1550  0.1876
 2221W        W18695   4.907  16.545   1.991  0.2835  0.2684 -0.0673
 2222W        W18696  15.582  13.585   3.859 -0.1737  0.0361  0.0935
 2223W        W18697  18.278   1.510  11.206  0.0842 -0.0186  0.3290
 2224W        W18698   5.848  17.134   2.676 -0.0629  0.1576 -0.1562
 2225W        W18699  10.770   1.849  12.249 -0.1385  0.2122 -0.0407
 2226W        W18700   3.671  13.450   2.900 -0.0314  0.0684  0.7484
 2227W        W18701  15.194  14.937   2.201 -0.0317  0.4878  0.1781
 2228W        W18702   4.715  12.778  13.031 -0.1747  0.0200  0.1424
 2229W        W18703   8.883  18.501   3.150  0.0356 -0.3923 -0.3074
 2230W        W18704   9.109   3.123  12.988 -0.1040  0.2270 -0.1815
 2231W        W18705  14.635  13.242   5.135  0.1004 -0.0128 -0.2125
 2232W        W18706   4.859   2.423   1.385  0.0281 -0.1159  0.3741
 2233W        W18707  14.561  15.018  14.854  0.0307  0.0840  0.2934
 2234W        W18708  14.997   4.056   5.908 -0.0273 -0.0065  0.0082
 2235W        W18709   0.851   0.846   3.771 -0.0607  0.0821  0.1471
 2236W        W18710  13.584   1.417  14.989 -0.0714  0.1736  0.0880
 2237W        W18711  11.914  17.439   2.609 -0.1179  0.2508 -0.2990
 2238W        W18712   0.384  13.118   3.243  0.2504  0.0698  0.1002
 2239W        W18713   9.639  14.790  14.568 -0.4939 -0.3156  0.0057
 2240W        W18714   7.925   3.991   1.684 -0.0001  0.0615 -0.1562
 2241W        W18715  16.257  16.114   4.871 -0.0780 -0.1878 -0.0184
 2242W        W18716  12.113  11.308   4.555 -0.1682 -0.0839 -0.1822
 2243W        W18717   4.554  12.031   2.398 -0.4388  0.0756 -0.1332
 2244W        W18718  11.549  11.010   5.546 -0.1448 -0.0482  0.2155
 2245W        W18719  14.845  16.615   0.411  0.0721 -0.0310  0.0736
 2246W        W18720   5.189  10.412  12.143 -0.0831  0.0959 -0.1632
 2247W        W18721  16.223  18.113   4.708  0.0808 -0.3820  0.0408
 2248W        W18722  14.900  16.644  15.271  0.0204 -0.1935 -0.2560
 2249W        W18723   3.991  15.453  11.177 -0.0599  0.0524  0.3709
 2250W        W18724   5.841   7.897  10.427 -0.0025  0.2962 -0.0207
 2251W        W18725   8.481  11.803   4.361  0.0107 -0.0480  0.1667
 2252W        W18726  15.098   5.053   4.721 -0.1707 -0.0048  0.6327
 2253W        W18727  15.425  12.679  13.671 -0.0920 -0.1083  0.4427
 2254W        W18728  15.154  13.306  14.770 -0.3848 -0.1657  0.2018
 2255W        W18729  13.733  10.210  15.443  0.1048 -0.1099 -0.1022
 2256W        W18730   2.057   6.099  13.450  0.3641 -0.2202  0.2447
 2257W        W18731  12.250   5.740  14.832  0.0092  0.2765  0.1935
 2258W        W18732   3.530  14.069   0.109 -0.0439  0.1183 -0.0239
 2259W        W18733   1.488  16.556   3.917  0.1190 -0.0073  0.1482
 2260W        W18734  10.195   1.293  14.831  0.1487 -0.0522  0.1943
 2261W        W18735  11.185  10.638  14.285 -0.0938 -0.2072 -0.2111
 2262W        W18736   3.843  10.774   1.899  0.1391 -0.2170  0.0926
 2263W        W18737   6.182   4.457  12.052  0.2923 -0.3767  0.1740
 2264W        W18738   8.999  18.305   6.027  0.0137  0.1182 -0.0714
 2265W        W18739   7.403   9.772   3.536 -0.2725  0.0185  0.1110
 2266W        W18740  16.015  14.602   0.730  0.1177  0.0839  0.0848
 2267W        W18741  13.771  18.647  13.061  0.0217 -0.0249 -0.0169
 2268W        W18742  10.849  10.723  11.281  0.1015 -0.1379  0.2040
 2269W        W18743   4.316   6.289  12.994  0.0791  0.0148  0.1134
 2270W        W18744  10.717  11.118  12.326 -0.1414 -0.0743 -0.3385
 2271W        W18745   9.645   9.888  12.677 -0.1585  0.3249 -0.3079
 2272W        W18746   6.577  18.468  14.155  0.3371 -0.0821  0.0681
 2273W        W18747  15.725  17.478  14.185  0.1604  0.0870 -0.0646
 2274W        W18748  16.906   2.057   4.781 -0.2537 -0.0343 -0.3168
 2275W        W18749  16.097   2.403   0.823  0.0613  0.0484 -0.0187
 2276W        W18750   5.267  12.648   4.482 -0.0047 -0.1411  0.0636
 2277W        W18751   5.097   2.898  12.449 -0.1730 -0.0999  0.0582
 2278W        W18752  15.257  18.471  13.452 -0.0289  0.0529 -0.0576
 2279W        W18753   5.635   3.672  14.678  0.1058  0.0662  0.1015
 2280W        W18754   6.357   3.648  11.354  0.1213 -0.1210 -0.0121
 2281W        W18755  12.669   2.179  13.650  0.1928 -0.3612  0.2473
 2282W        W18756   7.069   0.201   3.421  0.2656  0.1397 -0.1487
 2283W        W18757  17.186  18.552  13.876  0.0294 -0.3930  0.0014
 2284W        W18758   6.133  11.586  10.987  0.3051  0.0567  0.1236
 2285W        W18759   7.257   5.945  11.727 -0.2379 -0.0533 -0.0805
 2286W        W18760   6.745   2.452   0.384  0.3798  0.0853  0.2513
 2287W        W18761  16.065  13.219  11.205 -0.1931 -0.0651  0.0082
 2288W        W18762   1.453   7.295   2.925  0.3206 -0.0149 -0.0504
 2289W        W18763   7.218   9.184   2.669  0.0739  0.0014  0.2486
 2290W        W18764   3.503   2.443   3.267 -0.0921 -0.0502  0.1556
 2291W        W18765   0.970   8.315   1.239 -0.2278  0.0787  0.1731
 2292W        W18766   6.478  15.618   1.423  0.0577 -0.1095 -0.2002
 2293W        W18767   3.571   2.203   0.451 -0.0405 -0.0936  0.3350
 2294W        W18768   2.897  15.492   2.085 -0.2137  0.4119 -0.1089
 2295W        W18769  18.472   9.178   0.807  0.2978 -0.1308 -0.1232
 2296W        W18770   2.671   8.665   2.955 -0.0133 -0.1227 -0.2297
 2297W        W18771   4.301   3.089  12.738 -0.0373  0.1434 -0.1673
 2298W        W18772  10.260   6.374  10.716  0.3389  0.0218 -0.2038
 2299W        W18773  18.053   7.467   1.053 -0.0654 -0.0668  0.0893
 2300W        W18774   5.911  11.137  10.837 -0.2113 -0.3002  0.0564
 2301W        W18775   4.505   6.483  12.440  0.0723  0.1648 -0.0116
 2302W        W18776  16.945  17.409  14.540 -0.1935  0.2637  0.1419
 2303W        W18777  11.609  12.189  13.620  0.5924  0.0665  0.0147
 2304W        W18778   4.339  14.643   2.717 -0.0731 -0.2452 -0.1700
 2305W        W18779   4.349   0.349   2.353 -0.0260  0.1533  0.0941
 2306W        W18780   0.267   3.353  10.285  0.1104 -0.0153  0.1083
 2307W        W18781  18.517   1.517   3.538 -0.0178 -0.0585 -0.2597
 2308W        W18782   7.186  13.641   0.128  0.0228 -0.3204  0.1314
 2309W        W18783  17.490   3.686  10.257  0.4558 -0.3062 -0.1951
 2310W        W18784  16.255  16.489   2.729  0.1219  0.3170  0.0189
 2311W        W18785   2.069  18.075  12.103 -0.2446 -0.3552  0.0601
 2312W        W18786   1.858   0.851  14.840 -0.0587 -0.2883 -0.1834
 2313W        W18787  17.003   5.257   4.781  0.0298 -0.0180  0.0480
 2314W        W18788  15.698  12.920   4.341  0.2644 -0.2965 -0.2890
 2315W        W18789  13.349   0.845   5.823 -0.0986  0.0940 -0.0393
 2316W        W18790   4.820  11.167  14.171  0.0113 -0.1639  0.0823
 2317W        W18791   6.244  12.477  14.341  0.3041 -0.1369  0.3787
 2318W        W18792  12.465  14.759   3.321 -0.1093 -0.2886  0.0037
 2319W        W18793  15.737  13.509   4.363 -0.2462 -0.0210  0.0559
 2320W        W18794   1.618   5.527  14.553  0.2635 -0.3812 -0.0129
 2321W        W18795   3.073   4.681   3.858  0.0296 -0.0165  0.1235
 2322W        W18796   3.232  11.624  12.046  0.3104 -0.0719  0.1923
 2323W        W18797   6.567  15.422   2.764  0.0968 -0.2333 -0.1969
 2324W        W18798  15.929  13.339   3.461  0.3206  0.0722 -0.0939
 2325W        W18799   7.703  10.946  12.623  0.0899  0.0832 -0.0222
 2326W        W18800  13.120   8.123  14.202  0.0973  0.1266  0.0303
 2327W        W18801   8.587   8.096   0.972 -0.1473 -0.0410 -0.0631
 2328W        W18802  14.012   8.109  11.971  0.0303  0.1287 -0.3694
 2329W        W18803  18.319  10.261  15.473  0.1960  0.1411  0.1351
 2330W        W18804  12.815  17.007   3.475  0.2406 -0.1363  0.1204
 2331W        W18805  12.991  16.819   2.341 -0.0255  0.0590  0.1555
 2332W        W18806   3.067   2.920  11.938  0.1111 -0.3020  0.0942
 2333W        W18807  11.841  16.548   3.051  0.2389 -0.0606 -0.2029
 2334W        W18808  10.198  12.247  12.682 -0.0375  0.4050  0.0247
 2335W        W18809   5.455  11.099  13.239 -0.2772  0.1090 -0.0611
 2336W        W18810  15.270   5.726  15.549  0.0246  0.3809  0.0135
 2337W        W18811   7.553  14.837  15.031  0.1769 -0.0286  0.0157
 2338W        W18812   7.720   8.904  12.371  0.1827  0.2727 -0.0464
 2339W        W18813  11.711  16.358  15.341  0.2395 -0.1002  0.1819
 2340W        W18814   4.120   0.661  13.614 -0.0776 -0.2785  0.2026
 2341W        W18815   6.357   4.871  10.715 -0.1371  0.0915 -0.0445
 2342W        W18816   3.353   7.896   2.084 -0.2531 -0.3010 -0.0903
 2343W        W18817  15.264  18.655  10.814  0.0150  0.1576 -0.0421
 2344W        W18818  18.312  13.239   0.309  0.2256 -0.0041  0.0741
 2345W        W18819   2.137   7.534  15.036  0.2021  0.1119 -0.1361
 2346W        W18820   5.891  14.959   0.094  0.0191  0.0906 -0.0396
 2347W        W18821   7.952  15.094  13.059  0.1583  0.1875 -0.1177
 2348W        W18822  12.464  17.408   3.470 -0.0444  0.2382  0.0300
 2349W        W18823   8.073  18.318   4.782 -0.0632  0.1050  0.0144
 2350W        W18824   1.375  13.463  14.757  0.2111 -0.0980 -0.0650
 2351W        W18825  12.587  17.652  12.281  0.1116  0.0227 -0.2397
 2352W        W18826  10.012   2.266   5.067  0.3553  0.2708 -0.0522
 2353W        W18827  14.289  16.875  12.396 -0.1146 -0.0580 -0.2794
 2354W        W18828   9.482   1.575   3.134 -0.1098  0.0961 -0.0228
 2355W        W18829   7.046  12.510  11.817  0.2079  0.0795  0.0124
 2356W        W18830   8.314   4.978  13.654 -0.0300  0.1159 -0.0698
 2357W        W18831   0.665   2.995  10.342  0.0129 -0.2240  0.1189
 2358W        W18832  17.100  15.503   2.907  0.1036  0.2655  0.3049
 2359W        W18833  14.174  14.686   0.941 -0.1274  0.1467  0.3404
 2360W        W18834  12.845  16.373   4.070 -0.0614  0.0251  0.1634
 2361W        W18835  11.821  16.856  11.198  0.0797 -0.1134  0.1189
 2362W        W18836   4.682   3.962  12.657  0.0023  0.0684  0.2729
 2363W        W18837  10.987  17.190   4.358 -0.0821  0.1074  0.1392
 2364W        W18838  10.087  16.480  11.830  0.1348 -0.1571 -0.1294
 2365W        W18839   8.714  10.153  12.064 -0.0650 -0.0701  0.2321
 2366W        W18840   5.985  15.648   4.391 -0.2350  0.1031 -0.0280
 2367W        W18841  12.801   1.047  14.367 -0.0092 -0.1570  0.0869
 2368W        W18842   3.887  17.488   0.466 -0.1107 -0.0655  0.0196
 2369W        W18843   2.508  10.612  14.288 -0.3259 -0.1682 -0.2657
 2370W        W18844  11.036  18.139   4.113 -0.1298  0.2049  0.0921
 2371W        W18845   7.706   1.410  14.736  0.0674  0.1408 -0.3292
 2372W        W18846  17.808  18.507  13.727  0.0642 -0.0573  0.2058
 2373W        W18847   7.717  18.491   2.703  0.1507 -0.0514 -0.1936
 2374W        W18848   7.356   6.961   5.597 -0.2878 -0.2003 -0.0334
 2375W        W18849   8.536  14.897  13.175 -0.1159  0.0312 -0.1063
 2376W        W18850   2.134  15.651  13.109  0.1839 -0.6112  0.1010
 2377W        W18851  13.893  13.569   0.374 -0.3712  0.0476  0.2927
 2378W        W18852   6.280  12.984   2.870 -0.5117 -0.1490  0.0432
 2379W        W18853   1.213  13.676  11.077  0.0909  0.0151 -0.0268
 2380W        W18854   5.463   5.900   0.371  0.1238 -0.0773 -0.1277
 2381W        W18855   9.238  17.583  12.437  0.2357 -0.2806 -0.0655
 2382W        W18856  15.734  18.121   2.002 -0.0023 -0.0853 -0.3778
 2383W        W18857  11.684  15.271   3.348 -0.2815  0.2037  0.1200
 2384W        W18858  15.678   4.079  14.558 -0.0368  0.0434  0.1312
 2385W        W18859  12.219   4.702  11.857 -0.1432 -0.0926 -0.1822
 2386W        W18860  15.602  15.723   5.596  0.0960 -0.1916  0.3216
 2387W        W18861  12.903  15.653   1.780 -0.2326  0.2441 -0.0735
 2388W        W18862   3.230   4.744   3.403 -0.1027 -0.1047 -0.2532
 2389W        W18863   8.450   1.705   1.049  0.2960  0.1193  0.0312
 2390W        W18864   7.117   1.937   1.910 -0.0429 -0.0646  0.1157
 2391W        W18865   1.102   3.453   1.460 -0.3071 -0.1150 -0.1208
 2392W        W18866   2.955  16.042  15.225 -0.1735  0.1809  0.3185
 2393W        W18867  18.351   6.705  14.139  0.1851  0.1626  0.0594
 2394W        W18868  17.637  13.837  13.257 -0.0353 -0.1462  0.1676
 2395W        W18869  13.769   4.804   5.032 -0.0386 -0.1888  0.1593
 2396W        W18870   6.640   7.612   3.397  0.0776  0.2603 -0.1490
 2397W        W18871   7.206   1.346   2.607  0.1579 -0.0266  0.1040
 2398W        W18872   9.723   9.359   3.361 -0.0836 -0.0328  0.2085
 2399W        W18873   8.642   2.590   2.450  0.1237  0.0336  0.1157
 2400W        W18874   6.273   7.653   4.249  0.0114 -0.1364 -0.0760
 2401W        W18875  12.128   2.793   1.655  0.0688  0.0825  0.5716
 2402W        W18876  14.255   5.461  12.061  0.2129 -0.3669  0.3236
 2403W        W18877  18.049   7.272   0.605 -0.2008 -0.0787 -0.0092
 2404W        W18878  12.148   0.718   1.744  0.0762  0.1971 -0.1536
 2405W        W18879  16.789  10.217  10.374  0.0016  0.4269 -0.3882
 2406W        W18880   2.788   8.795  12.045  0.0410  0.0051  0.1373
 2407W        W18881  18.290  17.506   2.844  0.0196  0.2406  0.0718
 2408W        W18882  14.983   2.247  11.848 -0.1516 -0.1289  0.0735
 2409W        W18883   1.856  16.312   0.358  0.0944 -0.0909  0.1703
 2410W        W18884   6.859   0.374   5.327  0.1033  0.2965  0.1187
 2411W        W18885   7.489  13.829   4.422  0.2385 -0.1874 -0.1503
 2412W        W18886   2.531   6.927   2.247  0.0289  0.3671 -0.1239
 2413W        W18887  16.797  12.428  14.989 -0.1193  0.2379 -0.1699
 2414W        W18888   9.595   9.628  15.412 -0.3188 -0.0804 -0.0484
 2415W        W18889  14.410   5.371   5.263 -0.0097 -0.0669  0.2625
 2416W        W18890   9.780   6.677  14.399  0.0982 -0.5226  0.2439
 2417W        W18891   9.736  17.846   2.316 -0.0486 -0.1415 -0.1154
 2418W        W18892  18.301   4.868   3.392  0.3047  0.0031 -0.1469
 2419W        W18893  17.329   4.312   4.741 -0.0734  0.1188 -0.2402
 2420W        W18894   2.086   0.140  14.820 -0.0338 -0.0823 -0.0001
 2421W        W18895  10.315   6.807  14.142 -0.0776  0.2176  0.0598
 2422W        W18896  14.454  12.742  13.813 -0.0674  0.0080  0.1312
 2423W        W18897   9.053  17.269   0.953  0.0791 -0.4082  0.3021
 2424W        W18898   5.396   2.334   3.852 -0.1125  0.2283 -0.0161
 2425W        W18899  11.127  18.407   4.534 -0.1799 -0.1653  0.0496
 2426W        W18900   7.214  15.524  11.845  0.1177  0.1643 -0.0847
 2427W        W18901   1.874  11.498   2.499  0.1468 -0.2687 -0.1121
 2428W        W18902   1.658   5.311   4.896  0.0855 -0.3823 -0.1279
 2429W        W18903  18.270  14.791  11.367  0.0340 -0.0235  0.3543
 2430W        W18904   2.681  18.109  13.288  0.1586 -0.1952  0.1387
 2431W        W18905   3.959  13.029  12.217 -0.3320  0.1802 -0.1634
 2432W        W18906   9.869   1.546  12.164  0.1219 -0.4020 -0.1839
 2433W        W18907   7.404  10.525   2.122  0.3016 -0.1764  0.0714
 2434W        W18908  15.830  13.279   0.003  0.2777  0.1673  0.0351
 2435W        W18909   9.254  15.110  12.769 -0.2089  0.0590 -0.1380
 2436W        W18910   0.144  18.365  11.558 -0.2235  0.1084 -0.0100
 2437W        W18911   4.233   9.844   2.455 -0.0276  0.0952 -0.2170
 2438W        W18912  14.337   2.280  12.705 -0.1683 -0.1745  0.0515
 2439W        W18913  13.343   6.430  12.333  0.1352  0.5964  0.0376
 2440W        W18914  18.494   2.380   2.724  0.0739 -0.2376  0.0644
 2441W        W18915  15.197   8.849  12.002 -0.1042  0.0766 -0.0864
 2442W        W18916  14.247   0.319   2.538 -0.0027  0.0333 -0.2225
 2443W        W18917  11.960  10.589  11.995 -0.0229 -0.1469  0.0460
 2444W        W18918   1.141  10.465   1.919  0.0791  0.1259 -0.2608
 2445W        W18919  13.562   5.923   5.452  0.3194  0.1050  0.1005
 2446W        W18920   9.588   1.386  14.826  0.0830 -0.1901  0.2603
 2447W        W18921  17.503  10.535  15.034  0.1248  0.0586 -0.2242
 2448W        W18922  14.878   3.145  13.995 -0.0925  0.1237  0.0031
 2449W        W18923   2.341   8.679  13.916  0.1589 -0.2567 -0.3427
 2450W        W18924  17.093   5.647   2.415  0.2074 -0.0875  0.0594
 2451W        W18925   8.620   4.214   1.243  0.1240 -0.1871  0.0300
 2452W        W18926   6.005   5.312  13.419 -0.2245  0.0732 -0.0878
 2453W        W18927   0.998   6.584   0.571 -0.1180  0.0931  0.1052
 2454W        W18928  14.945   0.254  12.249 -0.4598  0.1096  0.0606
 2455W        W18929  17.950   1.280  12.051 -0.3135  0.0258 -0.1113
 2456W        W18930   1.584   1.525   0.449 -0.1159  0.0398  0.3144
 2457W        W18931  15.739  12.202  13.200  0.0790  0.1994 -0.2701
 2458W        W18932   5.748  11.182   1.151 -0.2264 -0.2255  0.1612
 2459W        W18933   3.818   2.859  12.756 -0.0851  0.0523  0.1367
 2460W        W18934   7.487  17.512  12.004 -0.0460  0.0266  0.2351
 2461W        W18935   8.370  13.875   0.080 -0.0044 -0.2387 -0.1588
 2462W        W18936  18.620   6.475   1.414 -0.0759  0.0865  0.5896
 2463W        W18937   6.843   1.772   1.345 -0.1021 -0.1904 -0.3352
 2464W        W18938  17.958   5.611   0.177 -0.0244  0.3461  0.0439
 2465W        W18939   9.557   0.896   0.761 -0.2367  0.0715  0.0801
 2466W        W18940  11.773  10.734   4.633  0.0260  0.2172  0.0899
 2467W        W18941   4.318  11.696  11.810  0.5715  0.0632 -0.1802
 2468W        W18942  13.525   1.974   1.437  0.0119 -0.2571  0.2162
 2469W        W18943   2.702   3.690   1.853 -0.0587 -0.0303 -0.0234
 2470W        W18944   1.973   8.136  12.512 -0.0215  0.0830 -0.1266
 2471W        W18945   3.800  15.705  15.473  0.1029  0.0917 -0.0353
 2472W        W18946  15.997  12.340   0.120 -0.2059 -0.0232  0.0876
 2473W        W18947  15.384  16.526   0.615  0.2139 -0.0357  0.1117
 2474W        W18948  10.892   5.047   4.180 -0.5527 -0.0988 -0.0060
 2475W        W18949   4.098   2.924  12.321  0.1890 -0.1667 -0.1461
 2476W        W18950   1.464   6.416   2.487  0.2494 -0.0537 -0.1752
 2477W        W18951  18.083   0.775  11.105  0.2824 -0.0776 -0.0875
 2478W        W18952   6.565  14.877  11.219 -0.0807 -0.2553  0.1225
 2479W        W18953  15.514  10.172   5.742  0.0334  0.2873 -0.3666
 2480W        W18954   1.790   9.016  14.065  0.0114  0.1504 -0.0771
 2481W        W18955   1.991   7.287   4.216  0.2040  0.0618 -0.1417
 2482W        W18956  16.567   2.007   0.865 -0.0457  0.1201 -0.3276
 2483W        W18957   1.757   1.691   4.420  0.1777 -0.2899  0.1292
 2484W        W18958  14.907  16.811  13.184  0.0749 -0.0105 -0.0168
 2485W        W18959  18.783  12.043  14.047  0.0696  0.0077  0.0325
 2486W        W18960   6.731   8.390   9.775  0.2045  0.0664  0.0006
 2487W        W18961   1.104  11.922   4.130  0.0024 -0.0380 -0.3971
 2488W        W18962   6.051   0.958  10.268 -0.2422  0.1167  0.0004
 2489W        W18963   9.010  14.593   5.255 -0.2158  0.1959 -0.0307
 2490W        W18964   1.312  16.496   2.083 -0.2657 -0.2779 -0.2575
 2491W        W18965   5.433  12.067   0.005  0.0873 -0.3233  0.0903
 2492W        W18966  11.585   9.985  10.226  0.2315  0.0632  0.0620
 2493W        W18967  18.321   7.045   0.954  0.1387 -0.0376 -0.1452
 2494W        W18968  14.282   2.214  12.073  0.1590  0.0109 -0.2178
 2495W        W18969  17.854  17.591  12.775 -0.3200 -0.1224  0.4447
 2496W        W18970   8.127   5.123   4.752 -0.1985  0.0605  0.0150
 2497W        W18971  10.329   9.002  13.179 -0.0758  0.1719 -0.1054
 2498W        W18972  16.057  11.371  13.674  0.1174 -0.0033  0.1875
 2499W        W18973   8.774  17.155   4.298 -0.3434  0.1565 -0.2245
 2500W        W18974  10.989  12.037   2.316  0.4781  0.2852 -0.1794
 2501W        W18975  12.287   5.409   2.822  0.0079 -0.0975 -0.0179
 2502W        W18976  10.169  12.638   4.549 -0.1181  0.0460 -0.0253
 2503W        W18977  14.549  13.184  14.054 -0.1618  0.2509  0.0198
 2504W        W18978   4.048   6.753  10.281  0.0299 -0.1511  0.0469
 2505W        W18979   2.933   6.593  14.433 -0.0410 -0.2381  0.2499
 2506W        W18980  10.724  10.765  15.404  0.0187  0.0385  0.0086
 2507W        W18981  17.859   9.417   5.215  0.0477  0.1222 -0.0092
 2508W        W18982   9.696  13.036   0.354  0.3707  0.4162  0.3004
 2509W        W18983   4.757   7.507  15.557 -0.1009  0.0352  0.1815
 2510W        W18984   0.165   4.137   2.291  0.3868  0.0267  0.1851
 2511W        W18985   1.562  13.613  15.545 -0.1602 -0.3966  0.1416
 2512W        W18986   7.880  18.353  11.600  0.0970 -0.2017 -0.1586
 2513W        W18987  15.106   3.140   1.320 -0.2702 -0.1122  0.1615
 2514W        W18988   2.328  11.611   2.364 -0.2177  0.0281  0.1965
 2515W        W18989   0.761   6.431   1.141  0.0517 -0.0192  0.2576
 2516W        W18990   6.384  13.512   0.911  0.2744  0.1377  0.1376
 2517W        W18991   9.925  16.730   0.662  0.1720 -0.1832 -0.0189
 2518W        W18992  17.328   5.493  12.208  0.1631 -0.3448 -0.0663
 2519W        W18993  18.183   3.004  11.856 -0.1181  0.0213  0.0044
 2520W        W18994   5.752  15.560  13.039  0.0796  0.0393 -0.0428
 2521W        W18995   8.053  16.942   5.476 -0.3250  0.2001 -0.1128
 2522W        W18996   1.484   3.965   0.641  0.1287 -0.2371  0.3343
 2523W        W18997  14.238   3.393  14.707 -0.1352 -0.0001 -0.4373
 2524W        W18998   7.922  17.315   4.215 -0.0384  0.2501 -0.1918
 2525W        W18999  10.095   7.237   4.250  0.1946  0.2814 -0.2737
 2526W        W19000   8.011   1.299   4.706 -0.0638  0.1309  0.0469
 2527W        W19001  18.780   7.919  11.286  0.0359  0.2004 -0.1913
 2528W        W19002   1.851  17.910  11.493 -0.1583 -0.0551  0.2984
 2529W        W19003  12.454   4.877  14.867 -0.1415  0.2527  0.1086
 2530W        W19004  12.350  10.642   5.874  0.0741  0.0390 -0.1103
 2531W        W19005  11.024  18.414   3.662 -0.0308 -0.2726 -0.1919
 2532W        W19006  10.573   3.654  10.589  0.0453 -0.3000 -0.0329
 2533W        W19007   7.493   6.308   9.978 -0.1597  0.0780  0.0438
 2534W        W19008   5.420   8.656  15.295  0.1120 -0.1057  0.2439
 2535W        W19009   1.375   4.749  10.475 -0.1531 -0.1889 -0.0654
 2536W        W19010   2.955  17.039  15.050 -0.3351 -0.0890  0.2454
 2537W        W19011  10.292   1.537  11.228  0.1699  0.0622  0.1113
 2538W        W19012   1.697   7.664   1.440  0.1472  0.0548 -0.1556
 2539W        W19013  10.196  18.487  14.576 -0.0221 -0.0516 -0.0264
 2540W        W19014   4.853  15.960  13.507 -0.1468 -0.2075  0.1880
 2541W        W19015   3.173  17.390   1.098  0.0664 -0.2323  0.0357
 2542W        W19016   4.464   2.725   4.627  0.1845  0.0678  0.4896
 2543W        W19017   3.597   2.414   3.762  0.3900 -0.3695 -0.3457
 2544W        W19018  13.935  14.151  14.760  0.2618 -0.1679 -0.0093
 2545W        W19019  12.131  11.408   5.559 -0.3456 -0.1839  0.0010
 2546W        W19020  16.589  10.696  13.828 -0.0306  0.1175 -0.0400
 2547W        W19021   0.514   0.517   4.090 -0.0294  0.0325 -0.0905
 2548W        W19022  16.453   0.166  11.094 -0.2472 -0.1859  0.1481
 2549W        W19023   8.350   0.473  12.902  0.0088  0.2328 -0.2044
 2550W        W19024  14.806   3.043   5.230  0.0158  0.3413 -0.2470
 2551W        W19025   6.038   8.742  13.136 -0.1607  0.0277 -0.1714
 2552W        W19026   3.723  13.803  14.758  0.2632  0.0722  0.0316
 2553W        W19027  12.484  15.174   0.601 -0.0508 -0.0873 -0.0726
 2554W        W19028   0.091   2.001   0.933  0.2545  0.1432 -0.3577
 2555W        W19029   5.200   3.374   3.839 -0.2930  0.0097  0.1553
 2556W        W19030  14.011  13.571  12.028 -0.0489 -0.0355  0.0248
 2557W        W19031   6.218  12.381   2.788  0.1141  0.1236 -0.0026
 2558W        W19032  11.151  11.465   3.968  0.2583  0.1755  0.1982
 2559W        W19033  13.907   8.822   3.165  0.0345  0.0232 -0.2419
 2560W        W19034   0.935   3.662   4.449  0.3742 -0.0945  0.2411
 2561W        W19035   9.970  12.254   3.665 -0.0187 -0.1031 -0.3591
 2562W        W19036  10.491   1.821  10.286  0.1185  0.2170 -0.1461
 2563W        W19037   8.624   0.194  14.357  0.1770 -0.0835 -0.2102
 2564W        W19038   7.705  15.871  14.132 -0.1866  0.0360  0.0840
 2565W        W19039   7.246  10.796  10.805 -0.3136 -0.2050  0.4675
 2566W        W19040   3.795   5.143  15.118 -0.1600  0.0824  0.0773
 2567W        W19041   1.218   3.119  13.220 -0.0208  0.0809  0.5087
 2568W        W19042   7.290  18.614  15.107 -0.5458  0.5083  0.1900
 2569W        W19043   6.684  16.160  13.243  0.3635 -0.0237  0.0298
 2570W        W19044  11.087  18.332   0.439  0.1287  0.1697  0.3438
 2571W        W19045  10.257   3.161  15.305  0.1489 -0.0166  0.1440
 2572W        W19046  13.569   6.307   1.125 -0.1429  0.1200 -0.0818
 2573W        W19047   2.240  15.603  14.383 -0.1975  0.0675  0.0039
 2574W        W19048   1.742   9.585   3.510  0.1247 -0.0315 -0.1167
 2575W        W19049  10.509   4.995  12.056 -0.1493 -0.0998  0.0727
 2576W        W19050  10.666  13.225   1.696  0.1380  0.2468 -0.0610
 2577W        W19051  10.851   6.021   4.568  0.3522 -0.1046  0.0381
 2578W        W19052  17.915   4.890  11.017 -0.0581 -0.4655  0.0243
 2579W        W19053   4.602   4.485  14.103 -0.2838 -0.1275  0.1848
 2580W        W19054   3.278   3.933  11.346 -0.1198  0.1210  0.0951
 2581W        W19055  12.067   3.760  12.167 -0.0538  0.0123  0.1557
 2582W        W19056  15.745   5.033  11.699  0.1188  0.4760 -0.3181
 2583W        W19057   0.684   4.096  14.356  0.0364 -0.1282  0.0988
 2584W        W19058  16.759   7.456   1.455 -0.0372 -0.0428 -0.3333
 2585W        W19059  14.222  10.720   3.384 -0.4925  0.0943  0.0342
 2586W        W19060   1.780  14.527  10.906 -0.3104 -0.2803 -0.1370
 2587W        W19061   0.782  18.325   2.805 -0.1572 -0.0507  0.2471
 2588W        W19062   4.492  10.195   4.264 -0.0366  0.1926 -0.0443
 2589W        W19063  11.640   1.564   1.154  0.0541 -0.3271 -0.0239
 2590W        W19064   8.563   5.009   3.404 -0.2940  0.1085 -0.0570
 2591W        W19065   1.973   0.562  13.500 -0.1971  0.3740  0.3235
 2592W        W19066  18.679   9.047   4.892 -0.1814 -0.1138  0.2067
 2593W        W19067  15.813   4.277   4.046 -0.2742  0.2254 -0.3977
 2594W        W19068   8.490  15.110   4.726  0.1716 -0.0909 -0.0474
 2595W        W19069   6.077  17.631   0.655  0.1917 -0.1328  0.2057
 2596W        W19070   9.704  14.528  13.847 -0.0306 -0.2475  0.0222
 2597W        W19071   1.296   3.675  12.277 -0.0165 -0.2823  0.0615
 2598W        W19072  17.470   1.196   1.865  0.0394 -0.0373 -0.1920
 2599W        W19073  18.062   4.771  11.492  0.1004  0.1068 -0.2423
 2600W        W19074  14.284   2.915  11.852  0.3793  0.1936 -0.4925
 2601W        W19075   6.711   7.819  12.253  0.0702  0.0300  0.3619
 2602W        W19076   2.552   4.033  14.133  0.1635  0.1388  0.1034
 2603W        W19077  12.130  13.914  15.090  0.1717 -0.1671  0.1946
 2604W        W19078  14.704  18.464  14.324  0.1303  0.2525  0.1835
 2605W        W19079  11.083   9.181   4.415  0.2654 -0.0682 -0.1597
 2606W        W19080  11.384   2.546  12.546  0.2395 -0.0224 -0.0892
 2607W        W19081   2.165  11.716   2.868  0.1541  0.2409  0.0411
 2608W        W19082   7.487   1.065   0.786  0.0171 -0.0164 -0.0528
 2609W        W19083   5.147   1.678   0.810 -0.1132  0.0469  0.0959
 2610W        W19084   7.541  16.486  10.697  0.1699 -0.2053 -0.1874
 2611W        W19085   5.642  14.112   1.327  0.1231 -0.1228 -0.1784
 2612W        W19086   1.592   1.563   1.469 -0.0034 -0.0377  0.0310
 2613W        W19087  16.551  17.754  11.319 -0.0130 -0.3085  0.1463
 2614W        W19088   8.801   7.156   3.328  0.0234  0.3858  0.0318
 2615W        W19089  16.913  14.161   2.795 -0.0916  0.0169 -0.2433
 2616W        W19090  11.351  17.094  12.163  0.1427 -0.0541  0.0083
 2617W        W19091   0.897  11.316  12.701  0.1514 -0.2098 -0.5117
 2618W        W19092  12.797  15.171  13.252 -0.0361 -0.0662 -0.0323
 2619W        W19093  13.375   1.525  14.119  0.1153 -0.0727  0.2638
 2620W        W19094   1.914   8.887  11.924 -0.0752  0.1272  0.2877
 2621W        W19095   9.759   9.556   1.383 -0.1509 -0.1977  0.2059
 2622W        W19096   6.421   1.978  11.389  0.0956 -0.0016 -0.2438
 2623W        W19097  17.416  14.259  13.081  0.2162  0.2909 -0.1169
 2624W        W19098  13.603  10.383   2.018 -0.0797 -0.0611 -0.0310
 2625W        W19099   4.557  17.952  11.898 -0.3872 -0.0338 -0.0462
 2626W        W19100   5.037   7.173  15.196  0.0969 -0.0074  0.0553
 2627W        W19101   8.341   8.016   1.989 -0.0677 -0.0960  0.1015
 2628W        W19102   2.354   0.624   4.562  0.1959  0.0832  0.1914
 2629W        W19103  13.766   1.587   5.505  0.0800  0.2395  0.1066
 2630W        W19104  17.122  14.612   5.282 -0.0549 -0.2685 -0.0366
 2631W        W19105   5.828  11.516  15.110 -0.0052 -0.2831 -0.0508
 2632W        W19106   4.263  15.064   4.597 -0.0409  0.1126  0.2306
 2633W        W19107   0.025  15.546   1.781 -0.0091 -0.0160  0.2949
 2634W        W19108   2.631   9.660  13.709 -0.1910 -0.1678 -0.3657
 2635W        W19109   6.686  15.696   6.216 -0.0311 -0.1077  0.0183
 2636W        W19110  14.726  10.921   2.823  0.1375  0.0951 -0.2976
 2637W        W19111  18.572  11.194   3.434 -0.0081 -0.3666  0.0167
 2638W        W19112   5.430  17.704  15.002  0.1913 -0.1288 -0.1735
 2639W        W19113  11.757  11.479  11.423 -0.0319  0.0242  0.0955
 2640W        W19114  16.510  14.933  15.263  0.2644 -0.0523 -0.1195
 2641W        W19115  17.130   3.432   4.803  0.0077  0.2976 -0.5812
 2642W        W19116  17.723   2.118  12.200 -0.1212 -0.0968  0.0541
 2643W        W19117  10.861   5.576   2.834 -0.1727 -0.0019  0.1745
 2644W        W19118  17.536  11.940  13.161  0.0775 -0.0016  0.0901
 2645W        W19119  18.229  12.783  13.756 -0.1520 -0.1283 -0.3477
 2646W        W19120  13.285   8.103   4.770  0.0227 -0.0943  0.1649
 2647W        W19121   8.890   5.699   4.514  0.0964 -0.1304  0.0776
 2648W        W19122   8.689  14.942  13.638  0.1406 -0.3600  0.2570
 2649W        W19123  14.364  16.573  14.025  0.0139 -0.0353  0.0520
 2650W        W19124   3.215  14.582  13.180 -0.3046 -0.0270  0.0188
 2651W        W19125  16.549  17.122  14.565  0.0243  0.2570  0.0054
 2652W        W19126   3.325  16.942   3.149  0.2067 -0.1773  0.4595
 2653W        W19127  13.415  13.216  13.162  0.3445 -0.0513  0.2214
 2654W        W19128   0.224  11.592  14.055  0.0770  0.0886  0.0550
 2655W        W19129   1.717   5.503  12.894 -0.0522 -0.3086 -0.0937
 2656W        W19130  15.841  10.585  11.602  0.0535  0.3341 -0.0209
 2657W        W19131   4.181   8.540   2.254 -0.2195 -0.3019 -0.0599
 2658W        W19132   8.955  14.963   2.489 -0.2241  0.1440 -0.0972
 2659W        W19133  10.229   4.564   2.893  0.1245 -0.1523  0.1648
 2660W        W19134   7.103  16.599  12.676 -0.1924  0.0610  0.0287
 2661W        W19135   5.757  17.658   3.790 -0.3877  0.0460 -0.0703
 2662W        W19136  17.397   9.205   0.997  0.3526  0.1138 -0.2506
 2663W        W19137   9.062   5.171  10.800 -0.0404 -0.1309  0.0831
 2664W        W19138  12.203  18.599   3.800 -0.1448 -0.3691  0.0105
 2665W        W19139  10.816  12.556   2.296  0.1150 -0.0686 -0.0365
 2666W        W19140   7.890   9.884  12.568  0.0327  0.0636  0.0610
 2667W        W19141   1.620   5.249  11.895 -0.1659 -0.0143  0.5151
 2668W        W19142   6.796   7.978   0.183 -0.1550 -0.0927  0.0216
 2669W        W19143   3.667   8.061  14.084  0.3741 -0.1941 -0.0628
 2670W        W19144   0.353   8.240  11.207 -0.0008  0.2241  0.0222
 2671W        W19145  13.745   0.389   4.918 -0.2880 -0.1966  0.1138
 2672W        W19146  11.221   6.885   0.469 -0.1211  0.0277  0.3967
 2673W        W19147  10.278   5.963  11.107 -0.2357  0.3437  0.0894
 2674W        W19148   9.824  11.690   4.118  0.1422  0.2253  0.1074
 2675W        W19149   7.963   5.786   1.075 -0.0669  0.1409  0.0308
 2676W        W19150   8.596  14.640   2.539  0.0461 -0.0879 -0.0478
 2677W        W19151   5.818   8.527   4.463 -0.2369 -0.0940  0.2105
 2678W        W19152   1.568  14.108   3.704 -0.0720  0.2289  0.1852
 2679W        W19153   8.844  15.942  14.058 -0.0462  0.1739  0.0718
 2680W        W19154  11.429   4.931   2.137  0.3785  0.3196  0.0232
 2681W        W19155  17.260   0.212   0.756  0.1443 -0.1232 -0.1324
 2682W        W19156  13.384   5.881   1.488 -0.0315 -0.1083 -0.1107
 2683W        W19157  15.853  10.555   5.952 -0.0693 -0.3091  0.3320
 2684W        W19158   7.259  16.201  10.274 -0.0710  0.0168 -0.5205
 2685W        W19159  13.947  13.742   3.044 -0.2243 -0.0733 -0.2432
 2686W        W19160  18.664   2.064  11.925  0.1934  0.0281 -0.0359
 2687W        W19161   3.301   4.472  12.449 -0.1876  0.0224  0.0724
 2688W        W19162  17.369   8.540   4.530 -0.1112  0.2264 -0.1177
 2689W        W19163  11.401   8.882   3.855  0.0563 -0.0631 -0.0429
 2690W        W19164  15.815   8.901  14.438 -0.1450  0.0630  0.0974
 2691W        W19165   5.450  12.945   0.059 -0.1241  0.0470 -0.4357
 2692W        W19166  16.060  11.618  11.112 -0.1070 -0.0227  0.0307
 2693W        W19167   0.541   7.781  14.392  0.3072  0.3078  0.3057
 2694W        W19168   9.425  17.657  11.870 -0.2476 -0.2900  0.0819
 2695W        W19169   6.073   5.299  11.825  0.1195 -0.2715  0.2058
 2696W        W19170   3.331   7.433   4.601 -0.0916 -0.2643 -0.0697
 2697W        W19171  16.428  17.899   5.320 -0.2215 -0.0397 -0.0620
 2698W        W19172  14.932  11.062   2.348 -0.1251  0.1484  0.0114
 2699W        W19173   3.403   8.743  14.004  0.2019 -0.0793 -0.2198
 2700W        W19174  15.183  16.646  11.558 -0.4003 -0.3416  0.0027
 2701W        W19175   7.260   2.163  11.943  0.0008 -0.0174 -0.1700
 2702W        W19176   8.615   7.843  13.270  0.1834  0.0878  0.3505
 2703W        W19177   0.655  11.545  14.936  0.1364 -0.3343  0.1688
 2704W        W19178   1.873   4.082   1.477  0.2181 -0.0114 -0.0643
 2705W        W19179  13.054   4.204   0.588  0.1378  0.1243  0.0757
 2706W        W19180  11.488  16.163   1.546 -0.4045  0.1545 -0.0317
 2707W        W19181  17.329   8.461  10.464 -0.1482  0.1482  0.0008
 2708W        W19182   4.401   1.291  14.145  0.0682  0.0786  0.0978
 2709W        W19183   1.331   3.482  12.906  0.0979  0.0766  0.1575
 2710W        W19184  10.372  16.611   4.157 -0.1286  0.1956  0.2638
 2711W        W19185   8.254   4.991  12.472 -0.2437  0.2908 -0.1820
 2712W        W19186   3.205  11.236   3.079  0.3386  0.1202 -0.3070
 2713W        W19187  14.305   8.893   0.165  0.2138  0.0457 -0.2477
 2714W        W19188   6.004  12.018   1.494  0.0780 -0.3280  0.2052
 2715W        W19189   6.800  17.226   1.267  0.0546  0.2778  0.1528
 2716W        W19190  10.423   7.145  10.711 -0.1051  0.1488  0.1368
 2717W        W19191   2.997   5.500  14.934  0.0855 -0.0804 -0.0538
 2718W        W19192   7.695  14.627  13.145 -0.1476  0.1055 -0.0143
 2719W        W19193  14.789  10.963   4.912  0.0772  0.3107  0.1001
 2720W        W19194   1.490  10.321   2.256 -0.1265  0.0515 -0.2542
 2721W        W19195  18.305  15.582   1.779 -0.0677  0.4950 -0.0741
 2722W        W19196  15.465   1.283   1.235  0.1945 -0.0515 -0.0713
 2723W        W19197   4.573  15.814  12.538 -0.4588  0.1305 -0.0850
 2724W        W19198   8.848   3.587   3.369  0.3595  0.1586 -0.1605
 2725W        W19199   6.752   9.899  10.752 -0.1867 -0.2146 -0.1367
 2726W        W19200   4.781  16.377  10.382 -0.1318 -0.0748 -0.0489
 2727W        W19201   2.085  14.752  11.363 -0.0327  0.2201  0.3127
 2728W        W19202  15.589   6.454   5.302  0.0136 -0.2353 -0.2208
 2729W        W19203  11.341  15.332  11.217  0.0790  0.1762  0.2012
 2730W        W19204   6.632  13.564  14.958  0.1504 -0.0131 -0.1020
 2731W        W19205  15.277   4.544   3.367  0.1201  0.0234  0.1267
 2732W        W19206   7.688   8.523   1.411 -0.1076  0.0598  0.1024
 2733W        W19207   4.259  13.029  15.077  0.1968  0.2375  0.0944
 2734W        W19208   9.381   9.717   2.087 -0.0167 -0.0328  0.1979
 2735W        W19209   0.545   7.679  12.083  0.2235 -0.3254 -0.0624
 2736W        W19210   3.202   8.279  14.025  0.1187 -0.0411 -0.1456
 2737W        W19211   0.370   6.334  14.980 -0.0389  0.2840 -0.1413
 2738W        W19212   2.483  11.103  11.210 -0.2205  0.0258  0.0441
 2739W        W19213  18.740   3.085  11.851 -0.2159  0.0351 -0.2815
 2740W        W19214  13.387  17.376  12.649 -0.1396 -0.2739 -0.4292
 2741W        W19215   3.884  14.803   1.811 -0.3709  0.0938  0.1676
 2742W        W19216  18.541   6.169   2.942  0.1952  0.0306 -0.0147
 2743W        W19217   1.565  15.672  12.210 -0.1838 -0.2217 -0.3152
 2744W        W19218   2.817   2.950   3.777  0.2738 -0.2687 -0.0685
 2745W        W19219   8.067   5.124  14.938 -0.1680 -0.1004  0.0550
 2746W        W19220   8.731  14.154  13.482  0.2076  0.2442 -0.0147
 2747W        W19221   0.769   5.866  14.057 -0.0750  0.2177  0.3325
 2748W        W19222   9.360   2.299   0.875 -0.1955 -0.0009 -0.0760
 2749W        W19223   7.165   6.122   1.715  0.2508  0.2837  0.0942
 2750W        W19224   2.073   3.693  15.336  0.2391 -0.3446 -0.2959
 2751W        W19225   8.826  14.668   3.503 -0.3059 -0.0870  0.2152
 2752W        W19226   2.474   1.829  12.542 -0.1943 -0.2345 -0.0562
 2753W        W19227   8.715   7.609   2.173  0.1371 -0.0239 -0.0023
 2754W        W19228  18.586   9.670   5.855  0.3811 -0.2046 -0.1826
 2755W        W19229  16.956  14.277   4.942 -0.1616 -0.0719  0.0749
 2756W        W19230  15.779   9.957   1.541 -0.1404  0.0132 -0.3789
 2757W        W19231   9.287   7.342  12.750  0.3078  0.2456  0.0557
 2758W        W19232   6.496   0.453  15.154  0.2306  0.0425  0.4320
 2759W        W19233   1.224  18.488   0.156 -0.1674 -0.0146 -0.0263
 2760W        W19234   8.766   8.928  14.132 -0.2292 -0.1242  0.1468
 2761W        W19235   2.359  15.211  11.247  0.4742  0.0520  0.1851
 2762W        W19236   6.413  17.509  14.906  0.0169  0.1340 -0.1732
 2763W        W19237  17.436   0.027   3.763 -0.0122  0.1060  0.4057
 2764W        W19238   3.751   0.126   4.691  0.1340 -0.3271  0.0989
 2765W        W19239   1.861   9.856  10.967 -0.0341 -0.1120  0.0664
 2766W        W19240   2.167   8.115   2.212  0.0551  0.2744  0.1996
 2767W        W19241   6.566  14.281   1.126 -0.0885 -0.0060 -0.0142
 2768W        W19242  11.429  15.148  14.795  0.0900  0.0220  0.2853
 2769W        W19243   0.139  14.601  11.274  0.3018  0.0929  0.1553
 2770W        W19244   7.922  16.232  13.870 -0.1277 -0.2401 -0.0819
 2771W        W19245  12.237   7.713  10.916  0.2269 -0.0419 -0.1476
 2772W        W19246  15.043   2.482  11.336 -0.1988  0.0383 -0.0258
 2773W        W19247  15.773   1.048  11.806  0.3078  0.1870  0.1558
 2774W        W19248  10.674  18.073   0.428 -0.0436 -0.1256 -0.1676
 2775W        W19249  18.040   1.966  13.642 -0.0643 -0.2992 -0.0290
 2776W        W19250   0.616  11.151  13.710  0.1095 -0.1110 -0.0724
 2777W        W19251  11.237   4.631   1.575  0.3345 -0.2562 -0.0923
 2778W        W19252   8.433  14.525  14.910  0.0149 -0.1158  0.0879
 2779W        W19253  10.138   0.401   0.228 -0.0159 -0.0739 -0.1085
 2780W        W19254   8.444   9.880   5.019  0.2800  0.2457 -0.0077
 2781W        W19255   2.763  17.698   5.356 -0.1647 -0.0362  0.1745
 2782W        W19256   9.481   1.359   3.601  0.2483 -0.1179  0.3218
 2783W        W19257  15.447   2.320  12.011  0.0470  0.2545  0.1717
 2784W        W19258  13.682  13.186   5.527  0.3638  0.0655  0.0656
 2785W        W19259   6.318  11.866   5.188  0.4129  0.2142  0.2666
 2786W        W19260  10.750  15.774   3.990  0.1684 -0.0247 -0.2396
 2787W        W19261  16.836   6.179  12.380 -0.3300 -0.2207  0.2019
 2788W        W19262  17.554   6.063   2.111 -0.0486  0.0517  0.2024
 2789W        W19263  14.602   5.583   0.490 -0.3149 -0.1178 -0.1525
 2790W        W19264   9.226   9.121  13.878  0.0691 -0.1647 -0.1389
 2791W        W19265   2.104  11.215   2.064 -0.0580  0.1858  0.0331
 2792W        W19266   7.539   8.691  13.885 -0.1744 -0.2735 -0.1455
 2793W        W19267   3.200   0.332  13.250 -0.5124  0.1683 -0.2628
 2794W        W19268  10.876   6.648   1.795  0.1585  0.1519  0.0053
 2795W        W19269   0.647  14.161  11.484 -0.0213 -0.0732  0.4073
 2796W        W19270   0.722  15.942   2.853 -0.1919 -0.3311  0.2649
 2797W        W19271   4.334  11.559   0.881 -0.0085  0.1559 -0.3482
 2798W        W19272   6.159  13.560   1.703  0.0026 -0.0632 -0.0427
 2799W        W19273   6.136  10.643  12.644  0.0986  0.0404 -0.1611
 2800W        W19274   0.420  14.262   1.362 -0.1083 -0.3544 -0.0509
 2801W        W19275   7.469  11.588  13.754 -0.0087 -0.2432 -0.2721
 2802W        W19276   7.221  11.545   2.792 -0.3262 -0.2216 -0.0458
 2803W        W19277   6.539   5.214  11.532  0.1749 -0.1069  0.2282
 2804W        W19278   1.881   4.386   1.038  0.2769  0.0567  0.3334
 2805W        W19279   7.439   4.287  14.513  0.1604 -0.0107 -0.0752
 2806W        W19280   4.680  10.026  13.360  0.1258 -0.1437  0.0127
 2807W        W19281   5.320   2.044  10.542 -0.0879  0.0992 -0.2194
 2808W        W19282   7.127   6.587   4.312 -0.2117  0.1557 -0.0535
 2809W        W19283   6.780   5.413  14.124 -0.0829 -0.1766  0.0510
 2810W        W19284  13.436   6.900  13.299 -0.0638 -0.2777 -0.0780
 2811W        W19285  11.359  10.692  11.167 -0.0310 -0.0799  0.2010
 2812W        W19286  13.370  17.188   3.134  0.0570  0.1488  0.1154
 2813W        W19287   6.554  13.292   4.834  0.0343 -0.1039  0.1669
 2814W        W19288   0.092  13.263  14.108  0.0213  0.1031 -0.2521
 2815W        W19289  10.261  12.559   2.019 -0.0690  0.4231 -0.0070
 2816W        W19290  16.766   9.436   2.086  0.2120 -0.1848 -0.0951
 2817W        W19291  16.553   7.214   3.838 -0.0773  0.1401 -0.0388
 2818W        W19292   3.883  13.121   1.359  0.0647 -0.1948 -0.0594
 2819W        W19293   7.031  14.705  11.253 -0.0595  0.2235  0.0845
 2820W        W19294  16.271  18.600   2.634 -0.2054  0.1997  0.0021
 2821W        W19295  12.004   5.974  13.408  0.1635 -0.0901 -0.0874
 2822W        W19296   2.055   5.949   0.642 -0.2939  0.0337 -0.3217
 2823W        W19297   8.176  17.019  12.588 -0.1948  0.2717  0.0003
 2824W        W19298  10.204   1.756   2.514  0.3105 -0.0889  0.0860
 2825W        W19299   1.648   6.816  11.120  0.2433 -0.1710 -0.0384
 2826W        W19300   9.523  17.516  13.323 -0.2161 -0.1481 -0.0677
 2827W        W19301  12.462  11.733   0.959  0.1763 -0.0904 -0.0257
 2828W        W19302   2.760   0.274  13.111  0.2294  0.0475  0.2793
 2829W        W19303   3.425   3.998   9.248  0.0801  0.4010  0.0197
 2830W        W19304   8.533  13.367   1.861  0.0385 -0.0416  0.0222
 2831W        W19305   5.204  16.839  13.218 -0.0532  0.1490  0.2720
 2832W        W19306  13.899   9.897  11.836 -0.1637 -0.2792 -0.0844
 2833W        W19307   3.720   3.813   4.268 -0.1988  0.0900 -0.0160
 2834W        W19308   8.306   4.772   2.233  0.0511  0.1745  0.0936
 2835W        W19309  18.775   7.893   0.577 -0.2417  0.0343 -0.2447
 2836W        W19310  13.729   4.874  15.036 -0.3906  0.1102 -0.0020
 2837W        W19311   7.401   0.508   0.671  0.0818 -0.1979  0.2712
 2838W        W19312   9.316   7.464   1.303 -0.4761 -0.2606 -0.3245
 2839W        W19313  11.494  10.340   4.861  0.1251 -0.0585 -0.1996
 2840W        W19314   3.672  14.437   9.745  0.1656 -0.1911  0.0392
 2841W        W19315  16.749   1.278  12.065  0.1429 -0.0574 -0.0348
 2842W        W19316   0.002   5.315  11.881 -0.2058 -0.1981  0.0069
 2843W        W19317   2.012  15.179  13.948  0.3037  0.2513  0.1146
 2844W        W19318   0.578   0.387   4.630  0.1773  0.0402  0.1982
 2845W        W19319  14.631  12.148   0.085 -0.3081 -0.3621  0.1666
 2846W        W19320   5.255  13.103   4.763 -0.0191  0.0864  0.4209
 2847W        W19321   3.141   7.553   3.792 -0.1380  0.2121  0.2423
 2848W        W19322  16.347   4.964  12.883 -0.0666  0.1658 -0.3205
 2849W        W19323   2.019   6.831   3.848 -0.1176 -0.3473  0.1039
 2850W        W19324   8.723   8.651  11.608 -0.0936 -0.0006 -0.0421
 2851W        W19325   5.429   3.314  10.215  0.0486 -0.0257  0.2198
 2852W        W19326  13.277   5.788  14.850  0.4553 -0.2143 -0.1044
 2853W        W19327  16.913  14.127   0.464  0.1332 -0.1487  0.0578
 2854W        W19328  12.174   7.885  13.662 -0.0103 -0.0732  0.0559
 2855W        W19329   1.485  10.964   4.134 -0.0229  0.1165  0.3554
 2856W        W19330   1.592  14.238  12.152  0.0451  0.1518  0.1038
 2857W        W19331  14.173  13.036  14.902  0.1914 -0.1260  0.1409
 2858W        W19332   1.006  13.528   5.118  0.0107 -0.1450  0.1705
 2859W        W19333   7.823  10.995  13.100 -0.2400 -0.1015 -0.0145
 2860W        W19334   8.763   3.952   2.973  0.1025 -0.0040 -0.3102
 2861W        W19335   5.994  11.942   0.550 -0.0467  0.0802  0.1328
 2862W        W19336   3.847   5.653   4.378  0.0253  0.1379  0.0360
 2863W        W19337  11.919  12.657   2.432 -0.0343  0.3132 -0.0559
 2864W        W19338  12.902  10.587   3.006 -0.1733  0.3137  0.0082
 2865W        W19339   4.009  10.920  10.880  0.0517 -0.1095 -0.1574
 2866W        W19340  10.491  18.572   3.063  0.2585 -0.2220 -0.0751
 2867W        W19341  16.967   2.910  11.044 -0.0402 -0.0664 -0.0765
 2868W        W19342   1.190   6.145   3.612 -0.3760 -0.3293  0.0265
 2869W        W19343   0.858   7.768  10.273 -0.0755  0.0748  0.2162
 2870W        W19344   9.863   7.469  14.416  0.1046  0.4888  0.1955
 2871W        W19345  10.333   2.519   4.351 -0.0775 -0.2284  0.2996
 2872W        W19346   5.579  17.941  11.312  0.0111  0.2023  0.0907
 2873W        W19347  13.737  11.036   1.897  0.2165 -0.1178 -0.0162
 2874W        W19348  11.915   6.551   3.088 -0.1568  0.2188 -0.0248
 2875W        W19349  13.769   1.285  15.406  0.0276  0.3741 -0.1767
 2876W        W19350   4.710   1.562  15.116 -0.2169 -0.2351 -0.3889
 2877W        W19351  14.639  12.160   1.512 -0.0012 -0.2667 -0.0252
 2878W        W19352  15.213  11.682   4.258 -0.0579 -0.1641 -0.0259
 2879W        W19353   3.383  18.258  13.837 -0.3055  0.0173  0.0859
 2880W        W19354   7.390   7.153   0.054  0.0080 -0.2334 -0.0998
 2881W        W19355   3.569  13.263  12.201 -0.1253  0.2020 -0.1815
 2882W        W19356  12.381  11.829   5.433 -0.2347 -0.0253 -0.1215
 2883W        W19357  10.936  17.311   2.264  0.0745  0.0153 -0.5667
 2884W        W19358   1.543  16.361  12.383  0.2086 -0.0390 -0.0558
 2885W        W19359  12.151   3.983   1.233 -0.2232  0.3718  0.3312
 2886W        W19360   9.694   5.335   4.693  0.0843 -0.0292  0.1148
 2887W        W19361  15.214  13.343   5.117 -0.1041 -0.1960 -0.0926
 2888W        W19362   5.245   0.378   1.823 -0.0737 -0.0612 -0.1875
 2889W        W19363   9.124  13.722   0.662 -0.0812 -0.3007  0.0390
 2890W        W19364   5.239   3.637   4.312  0.2466  0.0148  0.0504
 2891W        W19365  10.784   6.733  12.116  0.0340  0.2507  0.0323
 2892W        W19366   9.662  16.848   2.411 -0.2642  0.1252  0.0059
 2893W        W19367  13.584   4.862  11.091 -0.0864  0.2137 -0.0150
 2894W        W19368  16.387   6.008  13.143  0.0874  0.0120 -0.3194
 2895W        W19369   5.454   7.942   4.765  0.0191  0.1912  0.2581
 2896W        W19370   3.909   3.047  14.011  0.1489  0.0558  0.1977
 2897W        W19371  18.435  16.317  13.441 -0.0507 -0.1385 -0.2248
 2898W        W19372  13.274  17.065  14.279 -0.0858 -0.1351  0.1093
 2899W        W19373  16.755   4.570   2.429 -0.1787  0.1851 -0.0554
 2900W        W19374  12.843   1.431   0.321 -0.0976 -0.1112  0.1130
 2901W        W19375  17.896   9.109   3.669  0.2055 -0.0005 -0.3075
 2902W        W19376  12.369   0.130  12.138 -0.1930  0.0620 -0.0847
 2903W        W19377  12.602  11.430  12.711 -0.2544 -0.1639  0.2597
 2904W        W19378  13.995  13.405  11.107  0.1079  0.0967  0.0182
 2905W        W19379   9.003  14.937  13.130  0.0766 -0.1378 -0.2853
 2906W        W19380   1.306  12.207   2.170  0.2950  0.0055  0.1384
 2907W        W19381  11.047   7.177   1.593  0.0620  0.0001 -0.2738
 2908W        W19382   8.210   0.539  13.935  0.1432 -0.2738 -0.0403
 2909W        W19383   2.241   7.051  14.787  0.1668  0.0325  0.0022
 2910W        W19384  17.393   6.749  14.830 -0.1999  0.2844 -0.0127
 2911W        W19385  11.175  13.529   0.773 -0.0557 -0.0719  0.1172
 2912W        W19386  18.405  13.839   1.838 -0.4612 -0.0709  0.1812
 2913W        W19387   5.610   3.631   3.941 -0.2258  0.1416 -0.1209
 2914W        W19388   6.569  12.682  11.718 -0.0131 -0.0050 -0.1871
 2915W        W19389  14.655   2.896  12.622  0.1024  0.2792 -0.3464
 2916W        W19390   5.503  12.247   4.176 -0.2293 -0.3677 -0.2505
 2917W        W19391  16.242   9.977  10.038 -0.0378 -0.1866 -0.2106
 2918W        W19392  10.266  11.138  11.946 -0.0085  0.0664 -0.2613
 2919W        W19393  12.303  17.027  11.361 -0.0227 -0.0029 -0.0165
 2920W        W19394  16.678  17.675  13.665 -0.1174  0.1314 -0.4720
 2921W        W19395   8.435   4.127  11.846  0.2687  0.1901  0.0056
 2922W        W19396   0.247   5.278   1.620 -0.0809 -0.0381 -0.0132
 2923W        W19397   8.861   6.072   5.099 -0.3095 -0.1226  0.1383
 2924W        W19398  18.509  14.814   1.652  0.0589  0.0730  0.0780
 2925W        W19399   0.465   4.443   3.951 -0.3426 -0.0796 -0.0784
 2926W        W19400   2.299  12.413  11.561 -0.3096  0.2209 -0.0418
 2927W        W19401  10.149   1.918  14.559  0.0261 -0.0892  0.1186
 2928W        W19402   9.639  10.585  10.429  0.2062  0.0959  0.3661
 2929W        W19403  18.115   6.748  10.902 -0.1978 -0.3315  0.1856
 2930W        W19404   3.092   7.624  13.410 -0.0373  0.4230 -0.0704
 2931W        W19405  17.775   6.596  14.185 -0.2294 -0.3676 -0.1772
 2932W        W19406   3.263  15.465  11.696 -0.1784 -0.1805 -0.3552
 2933W        W19407   1.773  14.044   2.089  0.3094 -0.1725  0.1606
 2934W        W19408  11.322  12.195  14.031  0.0590  0.0148 -0.1114
 2935W        W19409  17.557  17.201  13.723 -0.1974  0.6367 -0.0657
 2936W        W19410  12.936   5.541  10.830 -0.3442 -0.0896  0.4045
 2937W        W19411   1.750   5.470  15.564 -0.1496 -0.3086 -0.2750
 2938W        W19412  17.660  13.346   3.928 -0.1632 -0.1774 -0.0132
 2939W        W19413   0.494  15.297  14.132 -0.0232  0.0548  0.0305
 2940W        W19414  11.372  16.793   1.777 -0.1805  0.1708 -0.2380
 2941W        W19415   6.608   8.598   2.427 -0.0890 -0.0877  0.2358
 2942W        W19416   9.096  10.019   4.265 -0.0604 -0.0670  0.1560
 2943W        W19417  17.202  18.574  12.899 -0.2901  0.0296  0.3155
 2944W        W19418   7.232  18.558  10.469 -0.3643 -0.0601 -0.4421
 2945W        W19419   7.653   9.620   0.056 -0.1767  0.2592 -0.3477
 2946W        W19420   2.522  17.828  12.244  0.1883 -0.1028 -0.1977
 2947W        W19421  10.489  16.976  15.450 -0.3030 -0.0732 -0.0608
 2948W        W19422   3.681  15.515  10.760  0.2406 -0.0922  0.0260
 2949W        W19423   7.685  13.243  15.186 -0.0372  0.0559 -0.0646
 2950W        W19424  14.414  16.482  14.525  0.1329  0.1569 -0.2747
 2951W        W19425  10.799  18.553   4.123 -0.4005 -0.1489 -0.1815
 2952W        W19426   3.741  11.808   3.509 -0.0585 -0.3707 -0.0032
 2953W        W19427   5.840  14.023   5.231  0.1049  0.0207 -0.1855
 2954W        W19428   8.556   7.800   2.578 -0.3250 -0.2499  0.0753
 2955W        W19429  17.512   7.612  13.485  0.2200 -0.1836 -0.2510
 2956W        W19430   1.514  10.924   4.654 -0.1070 -0.2087 -0.0495
 2957W        W19431  18.350   9.513   5.438 -0.1367 -0.2446  0.0597
 2958W        W19432   5.588  13.596  14.945  0.0749  0.2635  0.1159
 2959W        W19433  17.788   0.192  14.475 -0.0185 -0.2057 -0.2904
 2960W        W19434  13.334  13.904   2.962  0.1147  0.3489 -0.1359
 2961W        W19435   0.610  18.120  13.057 -0.0623  0.1077 -0.2256
 2962W        W19436  13.828   9.251  14.439 -0.0041  0.1171  0.2983
 2963W        W19437   4.412   8.587  12.556 -0.3128 -0.0214  0.1056
 2964W        W19438   7.049  17.641   2.188 -0.2262 -0.1694 -0.0914
 2965W        W19439   2.716  18.221  13.780 -0.1194 -0.0797 -0.0171
 2966W        W19440   5.056   9.596   0.191  0.3020  0.2093  0.1924
 2967W        W19441   7.436  17.909   2.404  0.5557  0.1392  0.0054
 2968W        W19442   4.218  15.978   0.121 -0.2872  0.0591  0.2293
 2969W        W19443  10.981   0.536  12.296  0.1109 -0.1418 -0.5994
 2970W        W19444   7.810  16.155   1.006 -0.0756 -0.3482  0.1684
 2971W        W19445   8.554  12.427  12.946 -0.0884 -0.0021 -0.3298
 2972W        W19446   6.739   2.152  13.481  0.2282 -0.1976  0.0822
 2973W        W19447  12.796   3.908   3.602  0.1386 -0.0414  0.1936
 2974W        W19448   8.257  16.048  13.408 -0.0266  0.0180  0.1653
 2975W        W19449  11.924  13.443   5.425  0.1271 -0.1718 -0.0991
 2976W        W19450   2.032  15.054  12.047 -0.2649  0.1746  0.0765
 2977W        W19451  18.615  14.138  13.917  0.0196 -0.2098  0.1379
 2978W        W19452   9.974   0.931  13.544  0.0033 -0.0134 -0.0103
 2979W        W19453  11.873  10.947   5.070  0.0439 -0.1015  0.1380
 2980W        W19454  10.103  18.196  12.244  0.2154 -0.1604  0.4190
 2981W        W19455  17.755  10.291  14.697  0.1758 -0.0794 -0.3146
 2982W        W19456  17.224  14.509   2.088 -0.1820 -0.3484 -0.1355
 2983W        W19457  11.576   6.679  14.347 -0.1907 -0.4885 -0.2707
 2984W        W19458   0.044   9.910   3.780 -0.1342 -0.0201  0.0833
 2985W        W19459   0.867   5.455  14.425  0.3900  0.4614  0.1178
 2986W        W19460   4.171   5.172  14.622 -0.2124 -0.1230  0.3616
 2987W        W19461   3.243   8.757  11.886  0.0217  0.1256  0.3656
 2988W        W19462   4.081  18.134  14.349 -0.3030  0.3286  0.1063
 2989W        W19463   1.461   3.707  14.389 -0.2775  0.0987  0.1440
 2990W        W19464  16.564  16.842  11.137  0.1239  0.2482  0.0314
 2991W        W19465   8.340   5.915  11.430  0.4379 -0.0141 -0.0708
 2992W        W19466  11.752   4.031  11.181 -0.0384 -0.0664  0.0900
 2993W        W19467   1.980  15.438   4.540 -0.0647  0.2137 -0.0869
 2994W        W19468  15.489   9.747   2.580  0.0483  0.0309  0.0915
 2995W        W19469   2.113  11.543   0.439 -0.2085  0.0866 -0.0399
 2996W        W19470   1.911   2.113  11.393  0.1528  0.0843 -0.0439
 2997W        W19471  11.060  16.054   2.948  0.1968 -0.2033 -0.1325
 2998W        W19472  12.533  18.609   0.460  0.2775  0.0633  0.1712
 2999W        W19473   9.161   9.996  12.295 -0.2119  0.1181  0.0575
 3000W        W19474  11.008  17.131  15.519  0.0515  0.1708  0.0848
 3001W        W19475  16.983  13.445   1.466 -0.1541  0.0276 -0.0880
 3002W        W19476   9.143   0.430   2.089  0.2852  0.1079  0.1259
 3003W        W19477  10.272   3.010  12.318  0.0818 -0.0715 -0.0534
 3004W        W19478   6.428  18.211   3.243  0.2252 -0.0912 -0.1426
 3005W        W19479   0.151   3.511   2.551  0.1473  0.2936  0.1217
 3006W        W19480  15.415  14.121   3.830  0.1177 -0.1899 -0.2896
 3007W        W19481   4.976   8.020   1.883 -0.1195  0.2063  0.2571
 3008W        W19482  11.389   1.125   4.620 -0.2511 -0.0104  0.0811
 3009W        W19483  15.576   4.255  12.178 -0.0664  0.0891 -0.1516
 3010W        W19484   5.264  10.352   3.443 -0.3646 -0.0085  0.2733
 3011W        W19485  13.517   3.425   3.127 -0.1432 -0.2933  0.0529
 3012W        W19486  11.035  18.728  14.516  0.0700  0.0479 -0.0201
 3013W        W19487   6.851   6.058  13.043 -0.1322 -0.1162  0.1025
 3014W        W19488  16.575   0.999   1.724  0.2169  0.1728  0.1315
 3015W        W19489   4.744  13.360   1.915  0.3623  0.0221  0.1789
 3016W        W19490   7.752   3.995  10.640 -0.1008  0.0614  0.2666
 3017W        W19491  15.784   9.490   4.005  0.0799  0.1669  0.2459
 3018W        W19492  11.624  14.774   0.403  0.1574  0.2097  0.0365
 3019W        W19493   3.349   2.327  14.257 -0.2257 -0.1644  0.0376
 3020W        W19494  16.575  13.027  11.808 -0.2446  0.2475  0.3127
 3021W        W19495  13.189   0.713  13.201 -0.2559  0.1124 -0.0918
 3022W        W19496   7.674  16.172   2.905 -0.0699 -0.2164 -0.2878
 3023W        W19497  14.338   0.741  13.834 -0.3824  0.1976 -0.3118
 3024W        W19498   7.051  13.112   0.219  0.1468  0.1419  0.3144
 3025W        W19499   7.770  10.131  14.558  0.0540 -0.2129 -0.1541
 3026W        W19500   6.589   8.181  11.899 -0.0912 -0.2250  0.1035
 3027W        W19501   6.750  10.279   4.596 -0.2689 -0.0298 -0.0150
 3028W        W19502  13.607   5.968  14.006  0.0196  0.0066 -0.2886
 3029W        W19503  10.205  16.602  12.272  0.2101 -0.0274 -0.2426
 3030W        W19504  14.852   2.434   4.337 -0.0189  0.1145  0.0371
 3031W        W19505   3.010   3.008  11.412 -0.1819 -0.0623 -0.0307
 3032W        W19506   0.760  10.882   3.448  0.1786  0.3356  0.0730
 3033W        W19507   6.217  15.164   4.530  0.0316 -0.0581 -0.0456
 3034W        W19508   8.123  13.729   1.715  0.1784 -0.3898 -0.0921
 3035W        W19509   9.128   1.447   4.457 -0.0181 -0.3364  0.0127
 3036W        W19510   2.831  14.663   1.730  0.1210 -0.3478 -0.0550
 3037W        W19511  16.516  18.275   0.717 -0.1025 -0.0302  0.2960
 3038W        W19512  12.763   7.583   1.403  0.1836 -0.0310 -0.0553
 3039W        W19513  18.201  16.890   1.981 -0.0603  0.2289 -0.0610
 3040W        W19514  15.062  14.986  12.164  0.0422 -0.3885  0.1640
 3041W        W19515  18.376  12.665  12.034 -0.3239 -0.0653  0.1555
 3042W        W19516   5.266   7.677   4.315  0.2932  0.0548 -0.0285
 3043W        W19517  11.467   2.148   1.014  0.0135  0.0527 -0.1265
 3044W        W19518  16.662   4.367  14.038  0.0830 -0.0322  0.1637
 3045W        W19519  17.064   2.496   4.601 -0.0326  0.0118 -0.2256
 3046W        W19520   8.964   4.333  12.700  0.0776 -0.1179  0.2847
 3047W        W19521  12.096  15.439  15.424  0.0381  0.1661  0.1072
 3048W        W19522  13.810   2.468   0.824  0.0368 -0.2049 -0.0331
 3049W        W19523   0.759   4.235   2.903 -0.2544  0.3918  0.0334
 3050W        W19524   0.476  13.169  14.733 -0.0395 -0.2504 -0.0488
 3051W        W19525  15.989   6.373  13.699  0.2076 -0.0028 -0.0988
 3052W        W19526   3.741   5.146   1.861 -0.1792 -0.0662 -0.0936
 3053W        W19527   5.721   3.202   0.013  0.0197 -0.1598  0.1266
 3054W        W19528  12.726   7.939  13.350  0.0364  0.0783 -0.1272
 3055W        W19529  17.527  18.451   0.684 -0.2056 -0.0706 -0.2006
 3056W        W19530  15.673   7.202  12.220 -0.1175  0.0414  0.1178
 3057W        W19531   9.504   8.770  14.491  0.3398 -0.1569  0.4416
 3058W        W19532   9.877  15.580  11.989 -0.1235  0.0594  0.0423
 3059W        W19533  11.526   3.659   3.322 -0.3152 -0.0644  0.1285
 3060W        W19534   2.446   5.952  10.588  0.0337  0.0358 -0.0922
 3061W        W19535   1.972   2.299  10.919 -0.1262 -0.3543 -0.1529
 3062W        W19536   4.545  16.292   9.911 -0.0303  0.1765  0.1116
 3063W        W19537  13.746   4.500   3.186 -0.1252  0.0424 -0.1440
 3064W        W19538   4.986   3.882   3.858 -0.2130 -0.0812  0.0318
 3065W        W19539  16.110   7.191   3.493 -0.1126 -0.0526 -0.0238
 3066W        W19540  15.570   4.226   3.101 -0.1281 -0.1618 -0.1076
 3067W        W19541  18.368   7.648  13.232  0.1475  0.1542 -0.0442
 3068W        W19542   8.232   3.461  15.405 -0.0551 -0.1476 -0.0344
 3069W        W19543  12.466   5.402   2.014  0.1613 -0.0541  0.1399
 3070W        W19544  11.531   3.321   2.414 -0.0141 -0.3647 -0.1690
 3071W        W19545   4.588  15.162  11.881 -0.1982  0.1995  0.1760
 3072W        W19546   5.162   5.795   4.286  0.0417 -0.1593 -0.0294
 3073W        W19547  11.252   5.155  13.503 -0.0587  0.3230  0.1851
 3074W        W19548   5.916   9.586   2.486 -0.0570  0.2109 -0.1144
 3075W        W19549  15.096  17.777   0.752 -0.0232  0.0701  0.4585
 3076W        W19550  18.399   1.227  10.814  0.0062  0.0810  0.0731
 3077W        W19551   3.880  16.369  12.779 -0.0361 -0.0237  0.3094
 3078W        W19552   8.645   2.282   1.902 -0.3115 -0.1268  0.0498
 3079W        W19553  17.352   4.860  14.698  0.0261 -0.2699 -0.1327
 3080W        W19554  15.590  15.217  13.303  0.0230 -0.1341  0.0296
 3081W        W19555   0.883  13.683   3.819 -0.1373  0.0993  0.1675
 3082W        W19556  10.186  16.455  14.095 -0.0168 -0.0561  0.0714
 3083W        W19557  18.375  13.043  14.954  0.2675  0.2048 -0.3892
 3084W        W19558  11.259   2.617  11.054  0.3509  0.0136  0.0700
 3085W        W19559   9.123   1.252  15.569  0.1550  0.2514  0.1537
 3086W        W19560   4.922  14.980  12.806 -0.2386 -0.0992 -0.1244
 3087W        W19561   6.106   9.617   3.459 -0.1788  0.1331 -0.2744
 3088W        W19562   2.852   6.789   3.323  0.2660 -0.1823 -0.0756
 3089W        W19563  17.405   3.156   5.207  0.1227  0.0307 -0.0637
 3090W        W19564  17.753  13.385   3.326  0.0704  0.1405 -0.1035
 3091W        W19565  12.246   1.570   0.502  0.1760  0.2462 -0.1582
 3092W        W19566   0.597  13.305  15.279 -0.0055 -0.2255  0.2407
 3093W        W19567  10.750   1.050   0.317  0.1947  0.0149  0.0878
 3094W        W19568  14.874   8.901  13.555  0.3083  0.0780  0.0992
 3095W        W19569   4.417  10.124  11.886 -0.0532  0.3397 -0.0635
 3096W        W19570   3.451   1.827  12.634 -0.0368  0.0432 -0.3329
 3097W        W19571   4.098   1.828   9.655 -0.0137  0.0271 -0.0725
 3098W        W19572   9.666  10.601   2.027 -0.0121 -0.1971 -0.1486
 3099W        W19573   9.995   9.781   3.083 -0.4029 -0.4049 -0.0529
 3100W        W19574   4.007   8.480   4.448  0.1940 -0.1234  0.0434
 3101W        W19575   5.079   9.269  13.262  0.1690  0.0135 -0.1504
 3102W        W19576   3.443  16.579   4.812  0.2492 -0.2779 -0.1227
 3103W        W19577   5.042   6.318  11.055  0.0279  0.0404 -0.0759
 3104W        W19578  15.633   9.787  11.118 -0.2744  0.4459 -0.3804
 3105W        W19579   9.009  12.987   3.560  0.2071  0.1218  0.3267
 3106W        W19580  16.134   3.341  12.252  0.4302 -0.0847  0.1116
 3107W        W19581  18.696   6.764  10.759  0.2339 -0.1993  0.0410
 3108W        W19582   1.250   4.582   1.501 -0.4735 -0.2794 -0.0928
 3109W        W19583   1.185  15.685   1.586 -0.1838  0.2363 -0.2308
 3110W        W19584   5.734  17.105   0.027 -0.1154 -0.0316 -0.1649
 3111W        W19585  16.382  16.129   5.526 -0.4670  0.2063  0.2557
 3112W        W19586  15.147  12.321   0.882  0.0894  0.0899  0.1987
 3113W        W19587   8.329   1.929   3.201  0.1360 -0.0378 -0.1715
 3114W        W19588   7.244  18.323   2.814 -0.1276 -0.0768  0.1034
 3115W        W19589  17.656  11.246   5.101  0.1311  0.1711 -0.0136
 3116W        W19590   5.187  15.903  11.759  0.3769  0.0295 -0.0707
 3117W        W19591  11.862  13.073   0.480  0.2727  0.0049 -0.0230
 3118W        W19592  13.096  13.561   0.921 -0.4405  0.4576  0.1074
 3119W        W19593   2.241  16.817  12.245 -0.0707 -0.1794  0.3259
 3120W        W19594  15.987   6.171   2.709  0.0100  0.1282  0.2323
 3121W        W19595   6.956   4.513   4.539  0.0265  0.1481  0.1982
 3122W        W19596   9.330  13.564  14.250  0.0745 -0.0227  0.1127
 3123W        W19597   3.038   3.722  14.777 -0.0120 -0.2216  0.1956
 3124W        W19598   6.255  16.598  12.543 -0.0516 -0.2681 -0.1288
 3125W        W19599   9.925  15.241   2.849 -0.1028 -0.0971  0.1799
 3126W        W19600  17.249   6.398   0.203 -0.1819  0.1271 -0.3532
 3127W        W19601   7.851   3.551   1.405  0.1633 -0.0877  0.4346
 3128W        W19602  12.614   6.831   5.442 -0.0726  0.2303 -0.0196
 3129W        W19603  11.421   8.869   9.972  0.0720  0.1759 -0.2281
 3130W        W19604   3.422  17.462   0.225  0.0040 -0.0603  0.0837
 3131W        W19605   7.577   1.485   5.028 -0.2634  0.3411 -0.3707
 3132W        W19606  12.079  13.720   0.048  0.0504 -0.0441  0.0065
 3133W        W19607  15.231   9.439   4.759  0.1124 -0.0754  0.5090
 3134W        W19608  17.484  14.173   4.760 -0.2537 -0.1940  0.1624
 3135W        W19609   2.539   1.191  11.208  0.1307  0.0478  0.2094
 3136W        W19610   4.858  16.926  13.547 -0.0672  0.0055 -0.2194
 3137W        W19611   2.022   0.333   0.571  0.0950 -0.0004 -0.3781
 3138W        W19612  11.014   6.107  11.417 -0.0921  0.0583 -0.1528
 3139W        W19613   7.864   7.176   3.251 -0.2269 -0.0507  0.6078
 3140W        W19614  11.207  17.903  12.781 -0.0111  0.4373  0.1690
 3141W        W19615   7.951  18.230  14.408  0.1482 -0.2587 -0.1818
 3142W        W19616  11.070   8.072   0.892 -0.1550 -0.1559 -0.1104
 3143W        W19617  14.232   1.811  13.906  0.0557 -0.2193 -0.2146
 3144W        W19618   3.045   3.815   4.973 -0.0011  0.1489 -0.2011
 3145W        W19619   3.107   2.507  12.194  0.0887 -0.0127  0.1468
 3146W        W19620  10.476   0.063  15.342 -0.0548  0.0368 -0.2753
 3147W        W19621  17.994  13.722   2.745 -0.1229 -0.0132  0.1780
 3148W        W19622   9.296  10.491  13.152 -0.1496  0.1871  0.3748
 3149W        W19623   8.026   8.883   4.835  0.4078  0.2573  0.0659
 3150W        W19624   0.106  11.577   9.773  0.0512  0.0760  0.1158
 3151W        W19625   6.450  13.497   2.667  0.2012 -0.3364 -0.3120
 3152W        W19626   2.627   9.509   3.659  0.0296  0.0229 -0.0867
 3153W        W19627   5.586   2.098  11.890 -0.1648 -0.1489  0.0397
 3154W        W19628   1.153  11.503  13.973 -0.0633  0.1035  0.2945
 3155W        W19629  12.063  16.278   4.883 -0.0155 -0.3137 -0.3539
 3156W        W19630  17.867  16.676   2.284 -0.0141  0.0774 -0.1419
 3157W        W19631   0.053   6.155  11.014 -0.1857 -0.2484  0.1928
 3158W        W19632   6.603   5.233  15.273  0.0952  0.0500 -0.0537
 3159W        W19633   7.956  14.525   4.774  0.2201 -0.0613  0.2458
 3160W        W19634  13.444   9.257   6.001  0.3537  0.3538 -0.0082
 3161W        W19635   8.264   8.905  10.848  0.1157 -0.1748  0.1573
 3162W        W19636  16.161  11.427   1.955  0.0991  0.1023 -0.2231
 3163W        W19637  13.115   2.850  11.667  0.3799  0.0568 -0.1736
 3164W        W19638  16.734   1.531  14.010 -0.2114 -0.1211 -0.1493
 3165W        W19639   9.713  17.386   2.592 -0.2904 -0.0271 -0.1138
 3166W        W19640   8.653   7.256   0.541 -0.1165 -0.1828  0.0156
 3167W        W19641   2.052   1.467   0.286 -0.1537 -0.1102  0.2610
 3168W        W19642  12.750   7.064  13.776 -0.1492 -0.0600 -0.0416
 3169W        W19643  10.084  10.754  14.043  0.0737 -0.0619 -0.0018
 3170W        W19644   8.952  10.455  15.341 -0.0680  0.3072 -0.3412
 3171W        W19645  12.786  11.199   1.462 -0.1381 -0.0913  0.2338
 3172W        W19646   8.966   1.449   3.776  0.0635 -0.1656 -0.0050
 3173W        W19647  11.535   4.478   2.077  0.0184  0.2965  0.1127
 3174W        W19648   9.550  14.234  14.274  0.2410 -0.1794  0.3327
 3175W        W19649  14.538   2.821   2.408 -0.0943  0.4144  0.0870
 3176W        W19650   9.823   9.059   5.061 -0.1781  0.0526 -0.1956
 3177W        W19651   1.112   6.487  11.874 -0.3310 -0.1671 -0.2753
 3178W        W19652   1.258   9.648   1.185  0.0636  0.2426  0.2937
 3179W        W19653   4.745   5.332   2.167  0.1214 -0.1553  0.0404
 3180W        W19654   7.697  18.216   0.057 -0.1807 -0.0759 -0.4264
 3181W        W19655   7.264  11.574  14.623  0.2262  0.1153  0.2271
 3182W        W19656  17.936  16.718   5.452 -0.1404 -0.0150  0.0818
 3183W        W19657  13.155   3.792   4.845 -0.1163 -0.1256 -0.3029
 3184W        W19658  18.298   0.037  14.500  0.0824 -0.1645 -0.2652
 3185W        W19659   3.307   0.777   4.100 -0.1546 -0.1490  0.1110
 3186W        W19660  14.176  14.447  12.400 -0.0148 -0.0960  0.2629
 3187W        W19661   4.099  10.881  12.818 -0.0538  0.0798 -0.0923
 3188W        W19662  13.697   7.503   2.053 -0.0710 -0.0747  0.0665
 3189W        W19663   1.783   0.959  10.519 -0.3819  0.0917 -0.0895
 3190W        W19664   5.305   0.805   4.144 -0.2506  0.2072 -0.0719
 3191W        W19665  15.647  17.866   2.989 -0.1009  0.1309 -0.0194
 3192W        W19666  12.464   3.481   2.473 -0.2334 -0.0175 -0.1863
 3193W        W19667   2.300   9.443  15.169  0.2157  0.0079  0.2041
 3194W        W19668   9.964   2.196   2.424 -0.1453 -0.1262 -0.0856
 3195W        W19669   7.223  18.096   5.727 -0.0138  0.2233  0.0972
 3196W        W19670   5.235  18.286   3.839  0.3405  0.0192 -0.1813
 3197W        W19671   8.660   3.053   3.664  0.0314 -0.0753 -0.1466
 3198W        W19672   1.423  18.350  13.492 -0.0845  0.1334  0.1291
 3199W        W19673   6.970   6.923   1.192  0.0306 -0.1512 -0.0665
 3200W        W19674   5.908  11.986   4.389  0.1851  0.1449 -0.1941
 3201W        W19675   0.884  11.275   0.020 -0.2135  0.1980 -0.0856
 3202W        W19676   4.529  18.746  10.442 -0.1635  0.0523 -0.1200
 3203W        W19677   4.485   7.932   1.621 -0.3030 -0.1840 -0.1004
 3204W        W19678  11.588   3.599  12.103  0.1517  0.2161  0.0397
 3205W        W19679   0.246  11.303   0.750  0.1021  0.1992  0.2075
 3206W        W19680   2.030   8.463  10.529 -0.0345 -0.3740 -0.0616
 3207W        W19681   2.933  15.628   2.904 -0.1992 -0.2031  0.1640
 3208W        W19682   0.242  10.556  12.008  0.2583 -0.0933 -0.1070
 3209W        W19683  10.956   8.418  11.554  0.0142  0.1433 -0.0201
 3210W        W19684   5.357  10.391  14.358 -0.2607 -0.0449  0.1762
 3211W        W19685   2.564   5.563  13.684  0.0541 -0.0668 -0.0142
 3212W        W19686  16.570   8.546  14.958  0.0102 -0.0929 -0.2492
 3213W        W19687   0.990  11.547  11.711  0.2837  0.2274  0.1643
 3214W        W19688  17.336   6.937  12.663  0.0133  0.1920  0.0307
 3215W        W19689  10.738   1.772   2.181 -0.0769 -0.1002 -0.2434
 3216W        W19690   7.895   7.485  13.955  0.1574 -0.0029  0.1544
 3217W        W19691   7.384  14.442   2.238 -0.3396  0.2009  0.0885
 3218W        W19692  18.070   2.091  13.068 -0.1917  0.2120 -0.3154
 3219W        W19693   7.950  15.968   4.836  0.1961  0.0351 -0.0606
 3220W        W19694  17.442   3.638   4.385  0.1912  0.2371  0.2285
 3221W        W19695   0.309  14.596   3.889  0.3225 -0.1791 -0.0909
 3222W        W19696   9.424   7.909  11.953  0.3946  0.0467  0.0170
 3223W        W19697  18.539  10.658  12.714 -0.1417 -0.0153  0.0315
 3224W        W19698  13.973  15.268   5.092  0.2826 -0.3008  0.0400
 3225W        W19699   9.495   6.609   3.928  0.1327 -0.1991 -0.0039
 3226W        W19700   8.992  18.762   0.338  0.2307 -0.1463 -0.0437
 3227W        W19701   9.626   3.531   0.999  0.0904  0.2904  0.2663
 3228W        W19702  14.234  17.404  10.337 -0.1207  0.4756  0.0275
 3229W        W19703   0.454   6.349  12.356  0.3230 -0.0158 -0.0353
 3230W        W19704  12.770  11.102   3.051  0.0925  0.0688 -0.0242
 3231W        W19705   8.221   0.352   1.075  0.0392  0.1910 -0.2426
 3232W        W19706   1.174   4.223   3.471 -0.0293 -0.1198  0.0615
 3233W        W19707  15.698  13.670   2.705 -0.2670  0.3451 -0.2493
 3234W        W19708   6.766  15.652  13.214  0.2267 -0.1867 -0.0008
 3235W        W19709  16.568  12.006  11.851  0.0118  0.0063  0.1430
 3236W        W19710  11.634   4.099  12.107 -0.2106  0.2652 -0.4498
 3237W        W19711   2.767  15.037   0.831  0.0064 -0.1998  0.0790
 3238W        W19712   1.968   9.938  12.789 -0.1315 -0.0618 -0.0199
 3239W        W19713   3.811  10.744  12.391  0.0009  0.3138  0.1374
 3240W        W19714  10.111  16.130   1.845 -0.1016  0.3090  0.1996
 3241W        W19715   4.611  16.397   0.200  0.0335  0.0554 -0.0725
 3242W        W19716   3.688   0.874  11.432  0.0438  0.2060  0.0896
 3243W        W19717   3.137   4.619  15.253 -0.1560 -0.2795  0.0954
 3244W        W19718   6.407  13.719   0.398  0.3132  0.2320 -0.1192
 3245W        W19719  18.035   2.080   3.499 -0.0351  0.1118  0.1450
 3246W        W19720   6.832  10.309   9.909 -0.1050  0.1871 -0.2214
 3247W        W19721   4.269  16.781   2.268 -0.1046  0.1539  0.0780
 3248W        W19722  16.082   4.266   5.128  0.0742 -0.1074  0.0147
 3249W        W19723  18.614  15.834   2.789  0.0292 -0.2626 -0.0401
 3250W        W19724   2.492   2.701  14.232  0.1831 -0.0729 -0.0846
 3251W        W19725   6.440   1.845  11.904 -0.2461  0.2763  0.0158
 3252W        W19726   5.796   9.644   4.957 -0.1775  0.1952 -0.2913
 3253W        W19727   1.254   5.974  11.426 -0.0663 -0.0731 -0.0245
 3254W        W19728   8.086   9.629  13.001  0.2814 -0.2649 -0.0409
 3255W        W19729   1.545  14.955   5.055  0.2471 -0.0449  0.1780
 3256W        W19730   6.769   6.657   0.370 -0.2530  0.0442 -0.1175
 3257W        W19731  13.930   6.431   3.238  0.1062 -0.1981 -0.0895
 3258W        W19732   9.193  15.076   4.208 -0.0217 -0.2799 -0.0492
 3259W        W19733  15.431  16.274   6.212  0.2000 -0.0889  0.1738
 3260W        W19734  13.065  13.476  13.498  0.0965  0.1104 -0.2460
 3261W        W19735   6.679  10.477   5.037 -0.0277  0.1682  0.2070
 3262W        W19736  16.161   7.310  12.067  0.1379  0.1853  0.1638
 3263W        W19737   5.885   4.675   1.889 -0.0204 -0.0162  0.0369
 3264W        W19738  10.351   8.927  14.801  0.1830  0.2674  0.1921
 3265W        W19739  15.786   2.814   0.649 -0.0992  0.2620  0.1301
 3266W        W19740   0.078  17.188  13.858  0.0307 -0.0514  0.2057
 3267W        W19741  17.436   7.771   1.371 -0.0685 -0.4123  0.0660
 3268W        W19742  15.006   8.197   2.672  0.1775 -0.1578 -0.2854
 3269W        W19743   9.782  12.067   5.217  0.0544  0.0717 -0.0710
 3270W        W19744  16.440   3.214  13.143  0.1145 -0.1367 -0.0719
 3271W        W19745  11.301  13.544  14.176  0.1656  0.5072 -0.2240
 3272W        W19746  12.882  15.355   0.840 -0.0335  0.3971 -0.1096
 3273W        W19747  15.938   1.516   1.211  0.0327 -0.0565  0.1823
 3274W        W19748  14.901   0.959   0.321  0.0947 -0.0052  0.1415
 3275W        W19749   2.843   3.138  10.951  0.1066 -0.0137 -0.1279
 3276W        W19750  13.932   6.240  12.287  0.3134 -0.3354  0.3344
 3277W        W19751  17.400   7.213  14.909  0.0972 -0.0351  0.0451
 3278W        W19752   4.960  16.004  15.213  0.2106 -0.0241  0.0480
 3279W        W19753   4.884  11.809   5.131  0.0772 -0.2782  0.3060
 3280W        W19754  17.073  10.320   1.773  0.4087 -0.4069 -0.1148
 3281W        W19755  17.523   6.687  13.609 -0.1382  0.5566 -0.2364
 3282W        W19756  12.748   2.796   0.071 -0.0558  0.0012  0.0319
 3283W        W19757   5.044   7.036  12.633  0.3229 -0.1744 -0.2155
 3284W        W19758   2.403   6.597  14.551  0.1145 -0.4919  0.1567
 3285W        W19759  16.430  13.368   3.587 -0.2157 -0.0793 -0.3336
 3286W        W19760  12.813  13.546  12.453  0.1660  0.0033  0.1390
 3287W        W19761   9.234   6.637  11.000 -0.0284 -0.2331  0.0062
 3288W        W19762   3.053   9.258   0.611 -0.1511  0.0805  0.1662
 3289W        W19763   2.406  14.572   4.030  0.0751 -0.3684  0.0558
 3290W        W19764  11.325  10.619   2.482 -0.0347  0.0227  0.1642
 3291W        W19765  15.297   4.434  15.557 -0.0297  0.0364 -0.0712
 3292W        W19766   8.768   9.545   4.874 -0.0919 -0.0473 -0.1403
 3293W        W19767   0.008   9.177   3.672  0.2115 -0.2607 -0.0909
 3294W        W19768  15.864  16.206  12.148 -0.0216  0.0390 -0.0468
 3295W        W19769   7.223  15.861  11.089  0.2436 -0.1221  0.0378
 3296W        W19770   8.594   8.945   3.418  0.1462 -0.1006  0.2093
 3297W        W19771   5.648  13.782   2.712 -0.2223  0.2050  0.1674
 3298W        W19772   9.651  12.762  14.364 -0.1944  0.0218 -0.0650
 3299W        W19773  17.516   9.289   3.969 -0.0422 -0.0284 -0.2882
 3300W        W19774  17.990   7.068  14.113  0.2597  0.0797 -0.0980
 3301W        W19775  16.647   9.989   2.449  0.0147 -0.1063 -0.2066
 3302W        W19776  18.764  14.891   4.712  0.0567  0.0021  0.0313
 3303W        W19777  10.786   4.678  15.450  0.0095  0.0396  0.0539
 3304W        W19778  17.851  13.556  11.158 -0.1054  0.0504  0.1297
 3305W        W19779  10.361   5.669   0.641  0.1565 -0.1289 -0.3144
 3306W        W19780   2.849   6.030  13.130  0.0898  0.2849 -0.0146
 3307W        W19781   2.471  16.873   1.404  0.3600  0.0253  0.1944
 3308W        W19782   2.141  14.434  13.498  0.0368 -0.0575 -0.0011
 3309W        W19783   4.713  16.026   4.802 -0.3630 -0.3409  0.2137
 3310W        W19784  16.197   2.275  14.982 -0.0108  0.2614  0.0441
 3311W        W19785   8.966   3.747  15.122  0.0089  0.1208 -0.0686
 3312W        W19786   4.865  13.730  12.470  0.0957 -0.1591  0.2546
 3313W        W19787   5.994  14.880  13.102 -0.0127 -0.0008 -0.1907
 3314W        W19788   4.470   3.385  14.807  0.0498  0.1111  0.1118
 3315W        W19789  13.770   7.603   0.427  0.0960 -0.0361 -0.1416
 3316W        W19790   1.380  11.216  12.963  0.0488  0.1237  0.2602
 3317W        W19791   1.696   5.850  10.611  0.1165 -0.0402  0.1414
 3318W        W19792  17.950  10.003  15.284 -0.0649  0.2079  0.1706
 3319W        W19793   9.193   3.689   0.640 -0.2146  0.0516 -0.1636
 3320W        W19794   1.995  15.391   0.480  0.1984 -0.0707  0.0308
 3321W        W19795   3.931   1.234   2.244 -0.1608 -0.2955  0.0696
 3322W        W19796  16.655  17.066   1.520  0.0622 -0.1290 -0.0730
 3323W        W19797  15.884  16.925   4.320  0.2162  0.0734 -0.1818
 3324W        W19798   6.850   5.109   0.215 -0.0039 -0.0501  0.2394
 3325W        W19799   2.494   2.306   4.500  0.1078 -0.0663 -0.0463
 3326W        W19800  15.552   2.511   4.358 -0.0343  0.1787  0.0287
 3327W        W19801  10.648   5.107  13.480 -0.0019 -0.2020  0.0813
 3328W        W19802  17.100   2.114   1.698  0.0900 -0.0863 -0.0667
 3329W        W19803   2.800   2.407  13.471 -0.2914 -0.3819 -0.0061
 3330W        W19804   7.676  11.424   0.160  0.1044 -0.3518  0.5449
 3331W        W19805   0.806  15.364   4.133  0.0071 -0.1643 -0.2333
 3332W        W19806  15.733   4.645  11.369 -0.1117  0.2210  0.1287
 3333W        W19807  12.857   7.996   1.666 -0.1508 -0.2267  0.0143
 3334W        W19808   2.033   8.716   3.615 -0.0749  0.1734  0.0829
 3335W        W19809  11.425  10.582   0.965 -0.3672 -0.1759 -0.1465
 3336W        W19810   5.911  14.544   1.346  0.0584 -0.1891 -0.0348
 3337W        W19811  16.516  11.196  13.756 -0.3931 -0.0444 -0.0663
 3338W        W19812  12.721   2.522  11.610  0.1534  0.1077 -0.0659
 3339W        W19813   5.252   6.730   0.835  0.1334 -0.0324 -0.1062
 3340W        W19814   6.116  11.357  12.006 -0.3158 -0.0134  0.1824
 3341W        W19815   5.258  12.469   1.163  0.1824  0.1947 -0.0509
 3342W        W19816  11.124   7.422   5.047 -0.2977 -0.2656  0.0965
 3343W        W19817  11.419  13.095  13.835  0.0940 -0.3196  0.0549
 3344W        W19818   5.998   6.288  11.953 -0.2141  0.0904  0.0110
 3345W        W19819   2.048   6.120  10.909 -0.1120 -0.0380  0.0339
 3346W        W19820  15.348   8.931   2.287 -0.2095 -0.2780  0.0697
 3347W        W19821  14.517  13.464  11.340  0.0028  0.0399  0.1239
 3348W        W19822  11.937   7.729  14.487 -0.2464 -0.0741 -0.0302
 3349W        W19823  18.599   0.013   2.028  0.4096  0.3244 -0.0334
 3350W        W19824   3.851  10.836   4.479  0.1015  0.1913  0.0512
 3351W        W19825  17.843  10.725   4.786 -0.2054 -0.0519 -0.0143
 3352W        W19826  10.593   9.091   4.319 -0.0629  0.4409  0.1524
 3353W        W19827   0.352  12.721  12.654 -0.0231  0.0805  0.0138
 3354W        W19828  13.761   6.049   3.637  0.0554  0.1925 -0.0475
 3355W        W19829   1.389   8.825  15.158 -0.0385  0.0912  0.2192
 3356W        W19830   6.844   9.274   3.473  0.0871  0.0382  0.0012
 3357W        W19831   7.679  10.914   2.107  0.1339 -0.0942 -0.1393
 3358W        W19832   4.154   4.012  12.769  0.0440  0.2156 -0.4839
 3359W        W19833   7.287  15.399   0.383 -0.0788  0.0779  0.1112
 3360W        W19834   7.127  15.368   2.558 -0.3109 -0.1711  0.0546
 3361W        W19835  14.248   2.615   2.771  0.3149 -0.1254  0.0567
 3362W        W19836   8.647  18.586   4.961 -0.2365 -0.0100 -0.1022
 3363W        W19837  12.860  18.326   1.171 -0.0418  0.1390 -0.2065
 3364W        W19838   4.542  10.759   2.483 -0.0853  0.2472 -0.1534
 3365W        W19839  17.905  11.906   1.994 -0.1349 -0.1982  0.2427
 3366W        W19840  15.132  12.665  13.212  0.0457 -0.0182 -0.1006
 3367W        W19841   5.885  12.290   2.443  0.1580 -0.0700  0.3606
 3368W        W19842  13.476   4.288   4.696 -0.0602  0.0961  0.1474
 3369W        W19843  11.732  14.062  15.374  0.0926 -0.1090 -0.0258
 3370W        W19844  12.160   8.638   2.075 -0.1817 -0.1446  0.1908
 3371W        W19845   7.264  13.881  13.855  0.2151 -0.0165 -0.1831
 3372W        W19846   7.178   3.064  15.039  0.2017 -0.0910  0.0760
 3373W        W19847   5.490   1.943  12.396  0.1192  0.2490 -0.2023
 3374W        W19848  13.074  10.893   4.654  0.0466  0.2940  0.2051
 3375W        W19849  15.136   4.671   5.061 -0.2248  0.0903  0.1357
 3376W        W19850  16.890   6.068   3.281 -0.3678  0.1849 -0.0744
 3377W        W19851  10.672   4.507  14.960 -0.2443  0.0916 -0.1426
 3378W        W19852   0.420  17.256   9.814  0.3149 -0.0905  0.5204
 3379W        W19853  10.664   2.293   2.129  0.0635 -0.1231 -0.0067
 3380W        W19854  12.922  15.459   1.312 -0.1512  0.0112  0.0712
 3381W        W19855   3.450  13.295  14.120 -0.0573  0.1892 -0.0902
 3382W        W19856  10.837  10.798   1.772  0.0195 -0.0226 -0.0782
 3383W        W19857  13.419  16.972  13.066 -0.1775 -0.4644 -0.0128
 3384W        W19858   2.965  18.597  12.438 -0.0426 -0.2898  0.1811
 3385W        W19859  11.268  17.364   3.928  0.0803  0.1167  0.0246
 3386W        W19860  18.167   7.079   2.167 -0.0638  0.1472  0.0056
 3387W        W19861   1.779  16.180   2.488  0.0163 -0.0985  0.0660
 3388W        W19862   7.352   2.693   9.991 -0.3289 -0.0032 -0.1458
 3389W        W19863  15.632   6.376   2.113  0.2012  0.1707 -0.1296
 3390W        W19864   5.393  15.160   9.391  0.1175 -0.1205  0.1214
 3391W        W19865   6.268   1.832  10.785 -0.0320 -0.0664 -0.2491
 3392W        W19866   6.682  17.669  13.503 -0.0110  0.2408  0.1440
 3393W        W19867  11.994   2.048   3.979 -0.1061  0.0951  0.0660
 3394W        W19868  17.788   4.071   0.980  0.2688  0.3145 -0.1933
 3395W        W19869  16.219  18.097  13.088  0.1701 -0.0825 -0.0777
 3396W        W19870  11.506   8.639   5.417 -0.0364  0.0500 -0.1435
 3397W        W19871  11.758   4.382   2.962  0.0673 -0.0056 -0.1666
 3398W        W19872  15.285  10.800   2.089 -0.2249 -0.2205 -0.2699
 3399W        W19873   0.142  17.229  12.805 -0.0457  0.0950 -0.0915
 3400W        W19874  18.567  16.832   0.019  0.2563  0.2736  0.2396
 3401W        W19875  12.242   8.061  14.146 -0.0322  0.0578 -0.1987
 3402W        W19876   7.770  15.143   5.167 -0.0478 -0.1756 -0.0611
 3403W        W19877  14.038  12.846   3.269  0.1935 -0.3440 -0.1314
 3404W        W19878   5.556  11.227   2.451  0.0893  0.0100  0.1636
 3405W        W19879   1.179  12.501  14.430 -0.1971 -0.3549  0.2078
 3406W        W19880  14.382   1.930   2.000 -0.1329 -0.0395 -0.2610
 3407W        W19881   6.426   7.866  14.171 -0.2521  0.0698 -0.1585
 3408W        W19882   9.355  17.427   3.003  0.2108  0.1630  0.1845
 3409W        W19883   3.449  15.867  11.075 -0.1216  0.2628 -0.0545
 3410W        W19884  10.986   7.107  13.114 -0.0996 -0.1075  0.0416
 3411W        W19885   3.997  12.208  11.179 -0.2494  0.1330 -0.3045
 3412W        W19886   4.297   6.913  12.250  0.0173 -0.3509  0.2073
 3413W        W19887   3.425  11.995  14.350 -0.1541 -0.2613  0.1506
 3414W        W19888   9.083   1.804  14.066  0.2134  0.0545  0.1707
 3415W        W19889   4.779   7.211   2.223  0.0509 -0.0687  0.0790
 3416W        W19890  10.564  15.691  12.448 -0.1251  0.1093 -0.0249
 3417W        W19891   3.233   9.962   1.941  0.2092  0.2873 -0.1489
 3418W        W19892   8.968   1.285   4.928 -0.0806  0.0021  0.2485
 3419W        W19893  17.701   4.057   4.279  0.1993 -0.3244 -0.0809
 3420W        W19894  10.327  17.736   1.114 -0.1486  0.1701  0.1869
 3421W        W19895   4.847  12.778  12.492 -0.2087  0.2174 -0.2199
 3422W        W19896   6.818   3.969   3.775 -0.3019  0.2554 -0.1088
 3423W        W19897  17.374  13.008   2.467 -0.1788 -0.2896  0.3662
 3424W        W19898   0.690  12.971   5.815 -0.1843  0.4097  0.0549
 3425W        W19899  12.099   8.811  14.919 -0.1369 -0.1263 -0.1869
 3426W        W19900  10.770   8.131   3.170  0.1999  0.0846  0.3897
 3427W        W19901   9.464   6.683   4.725 -0.0257 -0.2593 -0.0715
 3428W        W19902  12.566  12.343   2.815 -0.2471 -0.0169  0.2054
 3429W        W19903  14.210  15.480   5.481 -0.1086  0.3935 -0.1732
 3430W        W19904   2.991   6.678   9.595  0.2744 -0.2760 -0.0991
 3431W        W19905   4.386  14.705   1.195 -0.0295  0.1946  0.3991
 3432W        W19906  10.995   7.794   2.855  0.0290  0.1352 -0.1429
 3433W        W19907   9.689   4.329  13.614  0.1226 -0.2693  0.1294
 3434W        W19908   6.407  12.825   0.585  0.0052  0.1434  0.0750
 3435W        W19909  13.266  16.038   1.777 -0.0631  0.1968 -0.0477
 3436W        W19910   4.345   7.477  14.088 -0.1977 -0.0653  0.0318
 3437W        W19911  17.511  18.243   3.455 -0.0595  0.1121 -0.3246
 3438W        W19912   0.417  17.001   0.678 -0.2232  0.0462 -0.2604
 3439W        W19913  12.945   9.701  12.407  0.0525 -0.1105  0.0009
 3440W        W19914   8.253   3.261   1.129 -0.0073  0.0323  0.0926
 3441W        W19915  15.485   4.193   2.324 -0.0499 -0.2495  0.4384
 3442W        W19916  12.064  12.796  12.895 -0.1654  0.0233  0.1421
 3443W        W19917   5.673  14.932   1.142 -0.1028 -0.2270  0.0252
 3444W        W19918  15.612   5.922   0.381 -0.0191  0.0461 -0.0252
 3445W        W19919   7.486  13.056   0.576  0.1226  0.0986 -0.1762
 3446W        W19920  18.086   1.933   0.902  0.2327  0.1322 -0.1406
 3447W        W19921   3.608  14.844   2.414 -0.1532 -0.0095 -0.0753
 3448W        W19922  12.210   0.510   2.256 -0.2426 -0.0361  0.2258
 3449W        W19923   1.154  13.883  11.509  0.1026 -0.1050  0.0530
 3450W        W19924  13.920  16.880  12.971  0.0740 -0.3557 -0.0936
 3451W        W19925   1.835   9.512  12.432 -0.3648  0.1379  0.1011
 3452W        W19926  11.793  13.612   0.400  0.1884  0.0216 -0.0287
 3453W        W19927  10.059  15.486  13.195 -0.0373 -0.0778  0.1268
 3454W        W19928  12.475  14.361  15.067 -0.0434 -0.3671  0.2190
 3455W        W19929  16.576   2.204  12.819  0.0938 -0.1213  0.3882
 3456W        W19930  12.090  10.687   5.426 -0.1777  0.2250  0.0937
 3457W        W19931  18.345   8.545  12.081 -0.0211 -0.2089 -0.3395
 3458W        W19932  15.944   2.267   1.287 -0.1432  0.2929  0.1776
 3459W        W19933  16.174   8.799  13.159 -0.2056 -0.0164 -0.0098
 3460W        W19934   6.949   1.019  13.594 -0.1033 -0.1304  0.0554
 3461W        W19935   9.620   2.612   5.104  0.1228  0.1102  0.4967
 3462W        W19936   5.898   4.274  13.404 -0.5557  0.1354 -0.0467
 3463W        W19937  16.783  14.428  15.176 -0.0893  0.2053  0.1122
 3464W        W19938   5.940   9.063  14.441 -0.1771  0.0118  0.2323
 3465W        W19939   9.162   4.776  14.866  0.2080 -0.1889 -0.1540
 3466W        W19940   7.318  15.584  15.098 -0.1551 -0.2073 -0.0139
 3467W        W19941  13.764   2.087  14.787  0.2065  0.2627  0.0513
 3468W        W19942  18.569  18.206  14.665  0.0615 -0.2472 -0.2205
 3469W        W19943   8.539  17.910   1.350 -0.0001  0.0713 -0.1259
 3470W        W19944   1.833  15.159   4.163 -0.0523 -0.1354 -0.4227
 3471W        W19945  11.777  11.631  14.902  0.0211 -0.1116 -0.0924
 3472W        W19946  14.188  12.600  11.690 -0.0732  0.1556 -0.2837
 3473W        W19947   1.301  14.186  14.099 -0.2612  0.1296  0.0805
 3474W        W19948   2.394   7.527  14.500 -0.2786  0.0761  0.1050
 3475W        W19949  18.619   1.763  10.623  0.0708 -0.2250  0.1445
 3476W        W19950   3.961   0.982   0.033 -0.1036  0.1242  0.0862
 3477W        W19951  11.803  16.190   2.452 -0.0951 -0.1563 -0.3420
 3478W        W19952   4.722   8.614   3.344  0.1091 -0.2177 -0.0759
 3479W        W19953  11.457   3.512   0.303  0.2588  0.1528  0.0614
 3480W        W19954   7.642  13.328   1.165  0.2535 -0.2246 -0.0093
 3481W        W19955   2.793  16.310   0.027  0.2811  0.0373  0.1590
 3482W        W19956   0.218   0.416   1.145 -0.1591 -0.0522 -0.2965
 3483W        W19957   8.223   7.084  13.903 -0.0615  0.5423  0.3872
 3484W        W19958  11.399   4.659   3.225  0.0357  0.1032 -0.0461
 3485W        W19959  18.731   9.918   5.452  0.5366  0.1147 -0.0765
 3486W        W19960  18.369   9.336  12.627 -0.1199 -0.3128 -0.0166
 3487W        W19961  13.453  11.112  13.630 -0.1364  0.0318 -0.1793
 3488W        W19962  13.668  12.320   1.936  0.1188  0.2508 -0.2130
 3489W        W19963   9.777   8.361  13.517  0.0618 -0.0249  0.2215
 3490W        W19964  18.285  11.395  12.063 -0.3134  0.2285 -0.4231
 3491W        W19965  16.904  17.485   3.288 -0.0223 -0.1185 -0.0936
 3492W        W19966   4.197  17.654   4.965 -0.1626 -0.1421  0.2656
 3493W        W19967  16.831   3.324  12.182 -0.0393  0.1590  0.0095
 3494W        W19968  11.053   6.872   3.103 -0.2452 -0.0225 -0.1986
 3495W        W19969  12.926  16.845   5.153  0.0442  0.2502 -0.2769
 3496W        W19970  13.251  17.487   4.011  0.0176 -0.1664 -0.2508
 3497W        W19971   7.947   1.633   0.134 -0.0886  0.1819  0.0212
 3498W        W19972  16.516   8.712   0.907  0.1647 -0.1979 -0.2892
 3499W        W19973   2.403   8.155   3.690 -0.1671 -0.1230  0.0711
 3500W        W19974  15.686   1.601  11.202  0.0724 -0.1210 -0.0691
 3501W        W19975  13.250   3.071   5.188  0.2007  0.0867  0.2742
 3502W        W19976  11.693  16.601   1.441  0.0292 -0.3558 -0.3972
 3503W        W19977  17.677  14.125  12.125 -0.2530  0.0085 -0.0116
 3504W        W19978   9.506  18.369  13.519  0.0453 -0.1568 -0.0280
 3505W        W19979  16.959   6.244  14.918 -0.1090 -0.1456  0.1968
 3506W        W19980   1.886   6.960   0.316 -0.2722  0.1918  0.0299
 3507W        W19981   5.674   5.197  10.442  0.0186 -0.0091 -0.0644
 3508W        W19982  12.220   1.417  13.780  0.1463 -0.0796  0.2182
 3509W        W19983  14.447  11.060   4.555  0.2238 -0.1441 -0.1854
 3510W        W19984  12.060   8.025   2.022  0.1602 -0.3611  0.0111
 3511W        W19985  17.793  15.235   2.924 -0.0166 -0.2028 -0.0077
 3512W        W19986   6.350   1.746   1.450 -0.4544  0.0116  0.0473
 3513W        W19987  10.468  18.571  11.365 -0.0891 -0.0101 -0.1057
 3514W        W19988  13.660   2.826   1.208  0.0320 -0.2244 -0.1909
 3515W        W19989  18.285   9.518  11.704 -0.1674  0.2524  0.0938
 3516W        W19990   8.300   0.560  15.145  0.1917  0.0782  0.0495
 3517W        W19991   5.237   4.897  15.133  0.0964  0.3483 -0.1646
 3518W        W19992   4.553  12.615  15.063  0.0855  0.0484  0.0920
 3519W        W19993  10.058   2.920   3.318  0.0609  0.3339 -0.2592
 3520W        W19994  14.778   3.627  15.007 -0.0236  0.0140 -0.1144
 3521W        W19995  18.256   1.022   0.790  0.0120  0.0038  0.1307
 3522W        W19996   1.397  12.704  13.025 -0.3023  0.0648 -0.1297
 3523W        W19997  18.555  17.544   0.636 -0.2572 -0.0608  0.5276
 3524W        W19998  13.948   3.297   3.333  0.3920 -0.1330  0.0104
 3525W        W19999   3.505  14.131  12.209  0.0223  0.2792 -0.2288
 3526W        W20000  10.436   2.718   3.037 -0.0943 -0.0287 -0.2422
 3527W        W20001   8.681   6.567   0.143 -0.0998  0.0965 -0.2930
 3528W        W20002  14.698   3.318  11.665 -0.2039  0.2016 -0.0510
 3529W        W20003   6.948   5.022   1.709  0.1447  0.0755  0.0884
 3530W        W20004   2.932   8.886   3.769  0.0056  0.0815 -0.0266
 3531W        W20005   5.327   3.480   1.509  0.1342  0.1988 -0.1362
 3532W        W20006   8.263   3.298  13.592 -0.1501 -0.2333 -0.2310
 3533W        W20007  15.968  11.771  13.021  0.0988 -0.2358  0.0050
 3534W        W20008  16.602  17.835  13.098 -0.2286 -0.3767 -0.3076
 3535W        W20009   9.849  11.504   0.331  0.2984  0.1219 -0.1463
 3536W        W20010   9.011  12.526   3.764 -0.0867  0.1394  0.0731
 3537W        W20011  16.315   1.277  13.981  0.3208 -0.5224 -0.0889
 3538W        W20012  14.415   7.675  11.676 -0.1715 -0.1324 -0.3971
 3539W        W20013   3.247  11.819   0.713  0.0387  0.2294 -0.0579
 3540W        W20014   3.862   7.662  11.273 -0.0429  0.0257 -0.1082
 3541W        W20015   6.160   5.833   4.176  0.0259  0.3438  0.0205
 3542W        W20016  13.043  17.952   4.737 -0.1833  0.0172 -0.1020
 3543W        W20017   0.698  12.896  11.752  0.2056 -0.0825  0.1982
 3544W        W20018   2.865   5.294   4.964  0.1289  0.0504  0.5593
 3545W        W20019  14.485  17.508  11.777 -0.2474 -0.2140 -0.0266
 3546W        W20020   8.006   8.690   0.912  0.1215 -0.0277  0.2160
 3547W        W20021   2.457  18.608   2.247  0.0184  0.1116  0.3075
 3548W        W20022  15.008   4.134  12.579  0.3895 -0.3434 -0.3785
 3549W        W20023   6.458   4.942  14.089 -0.2943  0.1276  0.1424
 3550W        W20024   7.204  10.268  13.717 -0.1913  0.1403  0.1283
 3551W        W20025   7.690   7.047   1.854 -0.0885 -0.2477 -0.0108
 3552W        W20026  18.451   7.282  11.918 -0.2551  0.1042 -0.1139
 3553W        W20027  10.692   9.421   3.076  0.0978  0.0301 -0.0716
 3554W        W20028  12.608  10.452   1.803  0.0159 -0.4070  0.5693
 3555W        W20029   9.082  14.459   2.475 -0.1189  0.2351  0.1365
 3556W        W20030   6.419  10.863   5.168 -0.1883  0.1522  0.0440
 3557W        W20031   0.516  10.742   3.068 -0.1189 -0.0564 -0.1003
 3558W        W20032  10.950   2.220   1.274 -0.1807  0.2263  0.0593
 3559W        W20033   7.274  17.709   4.951 -0.3615 -0.1839  0.1876
 3560W        W20034  15.624  14.777   2.548  0.0328  0.2338  0.0361
 3561W        W20035   1.252   2.822   1.020 -0.1826  0.1296  0.2830
 3562W        W20036  16.349   6.809   0.451  0.0128  0.0158  0.2397
 3563W        W20037   7.432  14.924   0.906 -0.0052 -0.2619 -0.1082
 3564W        W20038   0.743   2.514  15.228  0.2558  0.4007 -0.3070
 3565W        W20039  13.305   4.033   5.308  0.0734  0.1038  0.0930
 3566W        W20040  14.901   3.684  13.751 -0.1756 -0.0511 -0.2416
 3567W        W20041  14.874  12.871   0.906 -0.0215  0.1657  0.0845
 3568W        W20042  14.285   1.904   4.857 -0.1849 -0.0590 -0.2529
 3569W        W20043  12.760   3.367   0.110 -0.1432 -0.0728  0.3104
 3570W        W20044   1.623  11.655  12.192  0.1611 -0.0674  0.0338
 3571W        W20045  13.822   5.758   5.047 -0.2682 -0.0958  0.2154
 3572W        W20046  11.175  10.416   3.968  0.0197  0.0913  0.0030
 3573W        W20047   9.571   0.077   1.629 -0.0423  0.1670  0.0059
 3574W        W20048   7.812  12.936  14.768 -0.2747 -0.1353 -0.1176
 3575W        W20049   9.341   8.367   1.342  0.1253 -0.3067  0.1176
 3576W        W20050  17.775  11.385   0.217  0.2266  0.1101 -0.3460
 3577W        W20051   8.615   5.578  11.765 -0.2114 -0.0231  0.1101
 3578W        W20052   1.091  10.050   4.079 -0.0390 -0.0946 -0.0954
 3579W        W20053  13.307  15.810   3.716 -0.0702 -0.1586 -0.0446
 3580W        W20054   5.812  13.847   3.882 -0.1814 -0.0494 -0.0560
 3581W        W20055   0.381   8.252   3.586  0.1457 -0.1213 -0.0267
 3582W        W20056   4.884   8.138  10.548 -0.0383 -0.0169 -0.2072
 3583W        W20057  13.715   0.752   1.067  0.0716  0.0564 -0.0035
 3584W        W20058   5.190  15.042   4.877 -0.0701 -0.1318 -0.1761
 3585W        W20059   7.456   8.599   4.813 -0.2270 -0.1554 -0.2220
 3586W        W20060  18.334  15.768   3.653  0.1261 -0.1394 -0.2565
 3587W        W20061   8.976   3.919  11.867 -0.2070  0.1014 -0.0726
 3588W        W20062  13.341   4.856  14.536  0.2349  0.0201  0.0117
 3589W        W20063  12.516  15.361  10.508 -0.1919 -0.0317  0.0809
 3590W        W20064  16.026   0.809   3.673  0.2897  0.3346  0.1775
 3591W        W20065   7.789  12.982  13.233 -0.1930 -0.3817  0.0199
 3592W        W20066  14.670   7.981  12.026  0.1503  0.0286 -0.2378
 3593W        W20067   2.058   9.705   0.638 -0.1025  0.0935  0.3713
 3594W        W20068  14.568  17.167   3.339 -0.2072 -0.0138  0.1315
 3595W        W20069  16.963  13.602   0.908 -0.0521 -0.4466 -0.1620
 3596W        W20070  12.523  14.789   1.668  0.2807  0.1025 -0.1020
 3597W        W20071  17.614   8.675   2.869  0.1813 -0.2652  0.2625
 3598W        W20072  12.395   9.177   1.438 -0.0796  0.2112  0.0392
 3599W        W20073  10.827   5.445   3.362 -0.0107 -0.0844  0.0485
 3600W        W20074  11.856  16.078   4.443 -0.0701  0.2040  0.0165
 3601W        W20075  15.428   3.738   3.251 -0.2014 -0.1949  0.1444
 3602W        W20076  15.951  12.237   2.609 -0.0709 -0.0238  0.1951
 3603W        W20077   1.182   3.282   4.652 -0.2211 -0.1510  0.0964
 3604W        W20078   5.200   1.192   1.129  0.0539  0.0195 -0.0429
 3605W        W20079   5.860   4.795  13.211 -0.1931 -0.2804 -0.0246
 3606W        W20080  14.204  10.118   4.707  0.1086  0.0296  0.2122
 3607W        W20081  16.954  12.926   1.495 -0.0191 -0.0799 -0.0213
 3608W        W20082   1.306   0.067   5.137  0.0278  0.0258 -0.1280
 3609W        W20083  11.725   9.434  13.161 -0.0880 -0.1532  0.0326
 3610W        W20084  11.391   3.845   4.436 -0.1815  0.1536  0.4671
 3611W        W20085  18.704  17.183  13.257 -0.2086 -0.0743 -0.1407
 3612W        W20086  10.367   1.712  14.157  0.0182 -0.0242  0.1580
 3613W        W20087   4.188   7.336  10.471  0.1146  0.0828 -0.1507
 3614W        W20088  17.674   6.825   3.142  0.0520  0.3149 -0.1633
 3615W        W20089   6.688   3.914   2.746  0.2715 -0.6001  0.0420
 3616W        W20090   8.177  18.587   2.439 -0.2148 -0.1552  0.0003
 3617W        W20091  10.042  15.789  12.425  0.1469  0.3825  0.0786
 3618W        W20092   4.213  10.550  11.676 -0.0772 -0.1024  0.2042
 3619W        W20093   4.156  10.547  10.518  0.1572  0.1007 -0.3540
 3620W        W20094  18.536  11.225   5.163  0.0282  0.1299  0.0833
 3621W        W20095  16.718   7.257   4.748 -0.1238  0.0256  0.0308
 3622W        W20096   2.496  13.673   2.735  0.2181 -0.3222  0.0975
 3623W        W20097   1.232   8.818  13.414  0.0790 -0.1148  0.2495
 3624W        W20098  12.357  14.708  11.092  0.0871  0.2081 -0.0336
 3625W        W20099   7.749  17.539  12.514  0.0564 -0.2827  0.1999
 3626W        W20100   7.652  13.339   3.809  0.0923  0.0721 -0.1673
 3627W        W20101  10.857   7.303  14.135  0.1015  0.1139  0.1821
 3628W        W20102   6.674  12.528  12.240 -0.1870 -0.1777  0.2856
 3629W        W20103   8.042   2.920   1.500 -0.0004  0.1843  0.1252
 3630W        W20104   1.848  15.703   3.412  0.0571  0.0003 -0.2043
 3631W        W20105  14.669  10.743   4.198  0.1606  0.0543 -0.1622
 3632W        W20106   3.705  12.681  13.259 -0.3094 -0.0781 -0.0951
 3633W        W20107   3.454   7.424  12.141  0.0432  0.0371  0.1561
 3634W        W20108   2.382  13.323  14.193 -0.4249  0.0333  0.2639
 3635W        W20109  11.752   2.316   0.529 -0.0233  0.0780  0.1342
 3636W        W20110  14.572   0.664   0.632 -0.0079  0.1941  0.2560
 3637W        W20111  11.693  10.616  11.569 -0.2247 -0.0050  0.0827
 3638W        W20112   6.592  17.458  12.948  0.0932  0.0295  0.0787
 3639W        W20113   4.304  10.118   0.896 -0.0124  0.2491  0.1513
 3640W        W20114   4.130  12.446   0.482 -0.1861  0.2199 -0.1403
 3641W        W20115   9.603   7.731   2.512  0.0994 -0.0726 -0.3998
 3642W        W20116  12.994  16.808   5.634 -0.2556  0.1505 -0.0022
 3643W        W20117   4.984   0.084   4.209  0.2219  0.0642  0.1738
 3644W        W20118   3.451  16.025  12.061 -0.3169  0.1456  0.1156
 3645W        W20119   2.085  10.142  10.429 -0.1381 -0.0059 -0.1374
 3646W        W20120  13.006   2.408  14.374  0.0602 -0.0026  0.0660
 3647W        W20121   7.757   1.273  15.420 -0.1082  0.0031  0.1908
 3648W        W20122  14.671  12.755  13.354 -0.1544  0.0381 -0.1027
 3649W        W20123   9.951  18.696   2.223  0.0222  0.1389 -0.5577
 3650W        W20124   4.297  11.011  11.294 -0.3085  0.0496 -0.0365
 3651W        W20125   5.518  10.841   3.367 -0.3152 -0.0796  0.1252
 3652W        W20126  15.273   9.792   2.083  0.0069 -0.1515  0.6136
 3653W        W20127  14.787   3.882  12.070  0.0797 -0.2970  0.0006
 3654W        W20128   1.352  15.734   2.371  0.3485 -0.1260 -0.0514
 3655W        W20129   4.887   6.446  10.454  0.0034 -0.3048  0.1392
 3656W        W20130  13.942  10.596  14.229 -0.0052  0.0103  0.2388
 3657W        W20131   3.833   1.714   2.779  0.2177 -0.4287 -0.2303
 3658W        W20132   7.067  10.658  15.495 -0.1293  0.0811  0.1057
 3659W        W20133  14.007   5.685  11.165 -0.3807 -0.3974 -0.0502
 3660W        W20134   2.166   7.960  10.592  0.0533  0.1446 -0.0882
 3661W        W20135  12.325   0.340   4.270  0.0284  0.1189  0.1325
 3662W        W20136  15.972   6.526   4.933  0.1762  0.1039 -0.0165
 3663W        W20137   2.265  14.726  10.897 -0.2427  0.3815  0.0410
 3664W        W20138  10.920   5.824  11.891  0.2501  0.0507  0.0662
 3665W        W20139   8.791   6.602   4.840  0.2235 -0.0597  0.0649
 3666W        W20140  15.170  11.518   6.348 -0.1312  0.0537 -0.0575
 3667W        W20141  13.342   6.018   2.111 -0.1045  0.1293 -0.1040
 3668W        W20142   6.146   1.569  12.688  0.1011 -0.2220 -0.0421
 3669W        W20143   1.635   7.320  15.123 -0.2325  0.0640  0.1007
 3670W        W20144   8.118   8.408  10.736  0.2898 -0.0130  0.3231
 3671W        W20145   3.018  18.369  13.003 -0.0976 -0.0268  0.2226
 3672W        W20146   6.667   0.217  11.209 -0.0958  0.1919  0.0641
 3673W        W20147   6.000   1.083   3.556 -0.3348  0.1077 -0.2529
 3674W        W20148   6.775   4.866   3.463 -0.1529 -0.0707 -0.2336
 3675W        W20149   9.347  11.759  13.778  0.0550  0.3710 -0.1758
 3676W        W20150   2.233  18.313  12.571  0.4163 -0.0778 -0.1730
 3677W        W20151   3.562  18.567   5.020 -0.1375  0.0161  0.0934
 3678W        W20152   8.547   6.088   0.110 -0.3874  0.0492  0.0915
 3679W        W20153   2.570   1.577   2.443  0.1023 -0.0112 -0.1517
 3680W        W20154  13.714   1.714   2.629 -0.0207  0.4302  0.1739
 3681W        W20155   3.115  16.439   4.021  0.2283  0.2448 -0.0144
 3682W        W20156   0.177   1.165  13.486 -0.1738 -0.0647 -0.0269
 3683W        W20157  13.724  17.271   4.504  0.1632  0.1044 -0.3311
 3684W        W20158  16.024   2.139   0.411  0.3934  0.0134 -0.2469
 3685W        W20159  16.371   5.078   3.920  0.2556  0.1912  0.1264
 3686W        W20160  17.084  11.992   3.477  0.1946 -0.1177  0.1955
 3687W        W20161   3.919   6.424   1.432  0.0622 -0.0774  0.0397
 3688W        W20162  13.555  17.845  12.830  0.0937  0.0475  0.0949
 3689W        W20163  14.047   7.981  12.651 -0.4120 -0.2593  0.1555
 3690W        W20164   3.809  16.311   1.209 -0.0813  0.0579 -0.2766
 3691W        W20165  10.759  13.424  14.383  0.0110  0.0805 -0.0657
 3692W        W20166   0.599  16.736   4.719 -0.0408  0.0606  0.1550
 3693W        W20167  16.098  18.216  15.169  0.0463 -0.1883 -0.0972
 3694W        W20168  17.940   1.211   4.081 -0.2909 -0.0593 -0.0968
 3695W        W20169   3.633   3.930   3.747 -0.3977  0.1848 -0.0642
 3696W        W20170   7.263   0.323  14.819  0.1896  0.4016 -0.2795
 3697W        W20171   7.445   2.796  15.389 -0.0292  0.0669 -0.1139
 3698W        W20172   3.202   2.727  10.988  0.1061  0.1551  0.1298
 3699W        W20173  17.012  16.894  14.791 -0.1070  0.3260 -0.0157
 3700W        W20174   5.999   8.117   4.690  0.3014  0.2996  0.0038
 3701W        W20175  17.493   1.565   5.005  0.0753 -0.1501 -0.0163
 3702W        W20176   9.364   4.358  11.585 -0.0336  0.1529 -0.1814
 3703W        W20177  16.280  11.774   0.892 -0.1271 -0.0594 -0.3006
 3704W        W20178  16.356  10.706   2.195  0.1760  0.0583  0.3542
 3705W        W20179  18.074   0.056  14.963 -0.2589  0.2995  0.1444
 3706W        W20180  10.964   0.337   5.273 -0.0572 -0.2465  0.1027
 3707W        W20181  15.463   2.552  11.539  0.1946 -0.2666  0.0087
 3708W        W20182   5.739  10.581  14.015  0.2502 -0.3262  0.1158
 3709W        W20183   1.782  10.742  15.008  0.1870 -0.0110 -0.2344
 3710W        W20184  10.305  12.560   0.989  0.1603  0.0791  0.1238
 3711W        W20185  13.128   5.580  15.293  0.1280 -0.2019  0.0616
 3712W        W20186  10.719   5.091   2.814  0.0249  0.2340  0.3596
 3713W        W20187  15.773   5.722   2.703 -0.0177 -0.0347  0.3071
 3714W        W20188  11.294  17.711   4.340 -0.0736 -0.1892 -0.0023
 3715W        W20189   2.567   9.646  14.755  0.1802 -0.3896  0.0580
 3716W        W20190   7.345  17.142  12.411 -0.2635 -0.3150 -0.1090
 3717W        W20191   9.894   0.574   2.477  0.1246 -0.2986 -0.1133
 3718W        W20192  17.819  17.284  11.176 -0.1847 -0.3159  0.1465
 3719W        W20193  17.217   2.457  11.225  0.0321  0.0492 -0.0587
 3720W        W20194  15.553   5.896   3.444  0.0591 -0.0296 -0.3298
 3721W        W20195  17.954   5.301  13.989 -0.2349  0.1796 -0.0864
 3722W        W20196  13.581   6.922   4.652  0.0649  0.1982  0.0662
 3723W        W20197   9.100   9.469   3.392  0.0236 -0.1768 -0.0540
 3724W        W20198  14.322   2.807  10.856 -0.0453 -0.0310  0.2000
 3725W        W20199  14.404  13.039   5.634 -0.1330  0.0440 -0.1177
 3726W        W20200  13.953  17.648   3.733 -0.1704 -0.0429 -0.2463
 3727W        W20201  16.218   4.794   3.426  0.2125 -0.1484  0.0381
 3728W        W20202  17.544   8.996   4.412  0.2156 -0.2080  0.0401
 3729W        W20203   0.739   0.523   1.085 -0.1238 -0.0597  0.1460
 3730W        W20204  17.925   2.741   1.771  0.1059 -0.0885  0.3263
 3731W        W20205   7.073  14.521   3.716 -0.1127 -0.0174  0.1010
 3732W        W20206   9.213  11.912   0.600 -0.1320  0.0016 -0.3826
 3733W        W20207  12.896   0.575  14.248  0.0092  0.0176 -0.0156
 3734W        W20208  12.781  12.442  14.212  0.1335  0.2010 -0.1837
 3735W        W20209   2.886   0.447   1.553 -0.1308  0.1106  0.2947
 3736W        W20210   4.035   0.885  11.855  0.1529 -0.0433 -0.3010
 3737W        W20211   2.843   3.661   4.556 -0.0188  0.1259  0.1843
 3738W        W20212  14.389  14.725   0.487  0.1034 -0.0690  0.1274
 3739W        W20213  11.955  11.414  14.028  0.3588  0.0467 -0.1825
 3740W        W20214  15.224   2.847   3.213 -0.1535  0.0658  0.2110
 3741W        W20215   2.020   6.321   4.646  0.1166 -0.1895 -0.1969
 3742W        W20216   3.319   1.006   4.509 -0.0381 -0.2060 -0.0765
 3743W        W20217   4.766   9.055  13.966  0.0546  0.1116  0.1866
 3744W        W20218   1.629  11.701   2.899  0.2023  0.1857  0.1532
 3745W        W20219   2.944   0.482   0.790  0.0771 -0.0313 -0.3066
 3746W        W20220   4.237   4.343   5.025 -0.0761  0.1572 -0.0660
 3747W        W20221   7.544   1.372   4.003  0.0487  0.1276 -0.3090
 3748W        W20222  15.726  10.507   0.173 -0.0249  0.0062 -0.0582
 3749W        W20223   9.859  10.455  15.027  0.1860 -0.3365  0.3564
 3750W        W20224   4.269   5.605  12.422 -0.0666 -0.4852 -0.1109
 3751W        W20225   5.100  12.849  14.928 -0.2421 -0.2218  0.2372
 3752W        W20226   6.823  16.165   3.311 -0.2426  0.0828 -0.2841
 3753W        W20227  10.947   4.278  10.023 -0.2208 -0.1036 -0.1153
 3754W        W20228   0.117   9.264   4.136  0.2656  0.1471  0.2023
 3755W        W20229   6.646   6.412   0.804 -0.0476  0.1145  0.1207
 3756W        W20230   2.675   4.607  14.532 -0.1167  0.1111  0.1113
 3757W        W20231   0.972  13.967   4.784  0.0202  0.2595 -0.2116
 3758W        W20232  13.521  15.033  12.847 -0.1464  0.1214  0.2065
 3759W        W20233  13.976  12.860   1.210 -0.1157 -0.2268  0.0967
 3760W        W20234  11.351  17.279   5.724 -0.1932 -0.0901 -0.2667
 3761W        W20235  18.421   3.852   4.774 -0.2707  0.1414  0.0362
 3762W        W20236   7.354   0.608  15.266 -0.1498 -0.0162  0.0672
 3763W        W20237   1.462   0.829  12.611 -0.0984 -0.1561 -0.3637
 3764W        W20238   1.638  14.137   4.341 -0.2549  0.0694 -0.0262
 3765W        W20239  18.071  17.461   1.828  0.5319  0.0248  0.0522
 3766W        W20240   3.296   6.109   2.589  0.1411  0.0108  0.4999
 3767W        W20241   9.084   5.265   4.834 -0.0199  0.0369  0.0252
 3768W        W20242   3.095   6.471   1.604 -0.2036 -0.1662 -0.1057
 3769W        W20243  16.995  17.897  15.322 -0.0974  0.0109 -0.0087
 3770W        W20244   0.168  18.144  13.305 -0.0469  0.4262 -0.0097
 3771W        W20245   4.166   0.731   3.918  0.0789  0.1076  0.0766
 3772W        W20246  11.486   5.553  15.424  0.0557  0.1503  0.0792
 3773W        W20247   6.404  17.923   0.406  0.4366 -0.1152 -0.2151
 3774W        W20248  10.459  12.411  12.276  0.2238  0.2933  0.3089
 3775W        W20249  15.870  13.497  13.711 -0.2633 -0.2830 -0.2364
 3776W        W20250   3.195   2.413   1.779  0.1049  0.3312 -0.2183
 3777W        W20251   4.274   8.375  13.802  0.1105 -0.2903  0.1144
 3778W        W20252   6.371   6.848  11.194 -0.0630  0.2092  0.2520
 3779W        W20253  13.347   6.356  13.386 -0.1030  0.2591 -0.0857
 3780W        W20254  10.990  10.883  13.176 -0.3016 -0.2282  0.0586
 3781W        W20255   7.817   0.678  12.814 -0.0122 -0.2294 -0.2878
 3782W        W20256  16.501   1.253   5.534 -0.0714 -0.1754 -0.0838
 3783W        W20257  16.951   2.587   1.903  0.0877 -0.2147  0.1466
 3784W        W20258  14.089   1.362  12.442  0.2242  0.1495 -0.1082
 3785W        W20259  17.520   5.301  13.275 -0.0365  0.1135  0.0586
 3786W        W20260  18.668  16.554  13.920 -0.2288  0.0438  0.1559
 3787W        W20261  18.321  15.467   3.207  0.1061 -0.4328 -0.2183
 3788W        W20262  10.226  14.273   5.463 -0.1538 -0.1327  0.0201
 3789W        W20263   4.660   7.122  11.268  0.2547 -0.2491 -0.0627
 3790W        W20264  14.767   0.684   3.337 -0.1884  0.0711  0.0196
 3791W        W20265  15.852   0.824   4.538  0.0012  0.2851 -0.1766
 3792W        W20266  13.183  17.885   0.738  0.0890  0.0290 -0.0639
 3793W        W20267  15.775   2.723  15.405 -0.1470 -0.1845 -0.1930
 3794W        W20268   0.004   9.020  13.647 -0.0299  0.0178 -0.1945
 3795W        W20269   5.002   4.898   3.676  0.2312  0.1112 -0.1726
 3796W        W20270   5.456   5.442   2.492 -0.0327 -0.0604 -0.1333
 3797W        W20271   3.158   1.539   3.737 -0.4325  0.1003 -0.0848
 3798W        W20272  18.747  16.618  15.127 -0.1485  0.1683 -0.0179
 3799W        W20273   3.270   5.218   1.031  0.1942 -0.0179 -0.1165
 3800W        W20274  12.176   1.382   3.141  0.3044  0.1503 -0.2029
 3801W        W20275  13.201   7.622   4.424 -0.5019  0.3739 -0.2391
 3802W        W20276   2.036  17.547   1.794 -0.0937  0.2227 -0.3217
 3803W        W20277  10.080   7.148  12.835 -0.0149  0.0571  0.1599
 3804W        W20278  15.760   5.760  12.157 -0.3726  0.2467  0.0994
 3805W        W20279   4.052   9.163   0.756 -0.1623  0.0387  0.2249
 3806W        W20280   7.848  11.020   0.543  0.2621  0.0496  0.4879
 3807W        W20281  17.118  18.662   3.413  0.0092 -0.0311 -0.1037
 3808W        W20282  16.418  12.800   1.421 -0.1236 -0.1950 -0.1741
 3809W        W20283   7.802   4.840  14.640 -0.1784 -0.0928  0.0183
 3810W        W20284   1.040  15.742  11.481  0.0109  0.2344 -0.0220
 3811W        W20285  16.982  17.827  12.724  0.0300 -0.0668 -0.1478
 3812W        W20286  13.843   9.565   2.470  0.1211  0.1501  0.0531
 3813W        W20287   0.746   0.886   2.295 -0.0015  0.0017 -0.0771
 3814W        W20288   6.624   8.184   1.567  0.1719  0.0153 -0.0397
 3815W        W20289  11.124   1.237  14.561 -0.2587 -0.0041  0.0964
 3816W        W20290   7.985  10.719  15.385  0.2691  0.0252  0.0836
 3817W        W20291   2.805   9.570   3.072 -0.2731  0.0873 -0.4750
 3818W        W20292   2.540  12.966   3.511 -0.0652 -0.1797  0.0361
 3819W        W20293   3.753   7.441  10.796 -0.3422 -0.1725 -0.1535
 3820W        W20294   6.548   6.058   1.173 -0.0309 -0.2893  0.0970
 3821W        W20295  15.636   1.505   0.791  0.0405  0.1021  0.0170
 3822W        W20296   5.951   5.831  13.504 -0.0011  0.0889 -0.3288
 3823W        W20297   4.919  13.902  11.960  0.4194  0.1679 -0.0808
 3824W        W20298   3.607   5.899  10.758  0.1689  0.0822 -0.1861
 3825W        W20299  18.094   3.653   0.330 -0.1000 -0.1828  0.1894
 3826W        W20300   5.439  17.470   2.453  0.1142  0.4553 -0.1705
 3827W        W20301   2.182   6.469   0.047  0.1989 -0.2205  0.5503
 3828W        W20302  15.341  16.119   4.404 -0.3168  0.0575  0.0077
 3829W        W20303   5.100  12.735  13.396 -0.3537 -0.0991 -0.2344
 3830W        W20304   6.893   8.363  13.621 -0.1485 -0.0464  0.1332
 3831W        W20305   5.299   9.793   0.993 -0.1136 -0.2012  0.1534
 3832W        W20306   0.468   4.208  15.183  0.2748  0.0693  0.0616
 3833W        W20307  11.142   8.508  12.016  0.2341 -0.0079 -0.1114
 3834W        W20308   9.353   0.371   2.644  0.1278  0.3162 -0.0438
 3835W        W20309  11.406  15.602  11.758 -0.5019  0.1739 -0.0284
 3836W        W20310  11.160  13.360   3.354 -0.1193  0.2139 -0.0709
 3837W        W20311  13.578  10.514   3.432 -0.1783  0.1878 -0.0198
 3838W        W20312   7.351   8.677  11.425  0.3510 -0.1038 -0.5537
 3839W        W20313  13.214  10.326   0.857  0.2735  0.0461 -0.2426
 3840W        W20314   2.534   1.604   0.192 -0.1655 -0.3480 -0.1725
 3841W        W20315  16.145   6.790  11.395 -0.0584 -0.0137  0.2302
 3842W        W20316   6.161  12.650   5.497  0.2607 -0.1231  0.2362
 3843W        W20317   0.580   4.102   4.318  0.0738 -0.1376  0.1142
 3844W        W20318   1.477  14.258   0.543  0.0451 -0.0084 -0.0732
 3845W        W20319   0.228   1.011  14.507  0.1230  0.0096 -0.1873
 3846W        W20320  17.809   8.424   9.374 -0.2076 -0.2986 -0.3353
 3847W        W20321   7.236   1.161   5.093  0.0719 -0.3162  0.0236
 3848W        W20322   7.459  13.939  14.808 -0.1303  0.1079 -0.2593
 3849W        W20323  18.742   4.366  15.251  0.2070 -0.1249 -0.1215
 3850W        W20324   2.448  15.145   0.422  0.0848  0.2166 -0.2224
 3851W        W20325   0.978   5.334  12.033  0.4061  0.1580  0.2115
 3852W        W20326  10.942   5.273  14.718  0.0396 -0.1172  0.2100
 3853W        W20327   2.751  14.803   4.548  0.3408  0.1725 -0.1050
 3854W        W20328   9.209   0.114  11.303 -0.1936 -0.4211 -0.1342
 3855W        W20329  16.993  16.241   2.247 -0.1066  0.0117 -0.1453
 3856W        W20330   3.786   0.768   2.417 -0.0606  0.2352  0.0076
 3857W        W20331  16.973   6.625   0.607 -0.0270  0.3342 -0.1230
 3858W        W20332  11.775  13.035  13.390 -0.2112 -0.3208  0.3225
 3859W        W20333   5.763   9.150  12.335  0.2469  0.1456  0.0288
 3860W        W20334  12.411   3.235   3.419  0.1941  0.0372 -0.0672
 3861W        W20335  14.100   4.353  11.575  0.0420 -0.1468  0.0898
 3862W        W20336   0.323   0.797   2.849 -0.3884  0.3128  0.4601
 3863W        W20337  17.238   9.900   3.302 -0.0997  0.0706 -0.0021
 3864W        W20338  16.712  13.562  12.763  0.0423 -0.0115  0.0355
 3865W        W20339  16.376  16.812   3.070  0.1224  0.0537  0.0666
 3866W        W20340  13.880  13.771   0.896 -0.1028 -0.1232 -0.3818
 3867W        W20341  12.003  16.499   1.059 -0.3626 -0.3595  0.0356
 3868W        W20342  12.259  16.372   0.658 -0.2774 -0.1414 -0.1564
 3869W        W20343   7.595  13.549   2.485 -0.0622 -0.1226  0.1376
 3870W        W20344   1.792   2.012   1.439 -0.1323 -0.3260  0.1598
 3871W        W20345  13.263   1.780  11.535  0.1658  0.0565  0.0250
 3872W        W20346   0.364   9.554   3.789  0.0545 -0.0518 -0.1566
 3873W        W20347   4.302   0.602   0.349  0.0535  0.0285  0.0196
 3874W        W20348   3.433  11.042   0.676  0.1086  0.1581 -0.3432
 3875W        W20349  10.087  12.451  13.891  0.1243 -0.0619  0.4645
 3876W        W20350   7.457   3.045  10.697  0.1361  0.1880 -0.0105
 3877W        W20351   7.758   8.936  10.952 -0.1603 -0.1744  0.0598
 3878W        W20352   4.604  15.414   4.817 -0.1356 -0.3771  0.2883
 3879W        W20353  16.366   2.292  11.471  0.1708 -0.2296 -0.1599
 3880W        W20354  17.243  17.117  10.970  0.0809  0.2473  0.2322
 3881W        W20355   0.021   3.955   4.352 -0.0363 -0.0360 -0.1568
 3882W        W20356   7.314  12.017  15.032  0.1633 -0.3147 -0.4613
 3883W        W20357   7.085  11.424  12.296  0.2754  0.1066  0.2343
 3884W        W20358  15.159   6.293   0.241 -0.0853  0.1626 -0.1021
 3885W        W20359  11.143  18.384   0.938 -0.0026 -0.1299  0.1143
 3886W        W20360  15.875   8.568   5.522 -0.0868 -0.4933  0.2828
 3887W        W20361   3.219   3.632   4.153  0.0434 -0.0458 -0.1820
 3888W        W20362  11.420   9.557   2.921  0.2476  0.1703 -0.1624
 3889W        W20363  18.728  14.477  14.282 -0.3472 -0.3295 -0.3131
 3890W        W20364   4.552   7.800  14.431 -0.0535 -0.0021 -0.0980
 3891W        W20365  10.723  11.661   3.528  0.2625  0.3628 -0.1046
 3892W        W20366   2.926  10.284   2.163  0.2703 -0.0885  0.2211
 3893W        W20367   1.695   5.485  15.068 -0.0182  0.2278 -0.0676
 3894W        W20368   6.095   7.287   2.495 -0.4128  0.1425  0.1640
 3895W        W20369  15.177  14.335   0.073 -0.0522 -0.1773  0.1130
 3896W        W20370  12.888  16.990  15.568 -0.0543 -0.2084 -0.3989
 3897W        W20371  17.587   5.621  15.338  0.0988 -0.0939 -0.0613
 3898W        W20372   5.153   8.865  13.625 -0.1803 -0.0613  0.0744
 3899W        W20373   4.778  13.294  12.708 -0.0766 -0.0029 -0.0348
 3900W        W20374  18.738  11.019  14.333 -0.1462 -0.0469  0.1301
 3901W        W20375  11.607   5.404  11.396 -0.0306  0.0910 -0.2026
 3902W        W20376  10.877  18.350  14.218 -0.0448 -0.1775  0.2915
 3903W        W20377  16.029   4.965  11.096 -0.2168  0.1957  0.1448
 3904W        W20378  16.586   0.631   0.493  0.0389 -0.2044 -0.2351
 3905W        W20379   5.570  15.021   1.634 -0.0382  0.0359 -0.0022
 3906W        W20380   5.472  10.116   4.479  0.3552  0.0807  0.2530
 3907W        W20381  16.137  11.292   4.197 -0.0071  0.2909 -0.0566
 3908W        W20382   8.020  17.126   0.134 -0.0505  0.3078  0.0451
 3909W        W20383   0.385   1.330   3.581 -0.0354 -0.1032 -0.0381
 3910W        W20384   5.776   1.702   4.798 -0.1419  0.0016 -0.2363
 3911W        W20385  13.914  15.755   5.814 -0.0242 -0.1598  0.1439
 3912W        W20386   8.974   4.344  13.927  0.0206 -0.1380  0.2854
 3913W        W20387  14.434  16.098  11.830  0.1703  0.1455  0.0840
 3914W        W20388   9.574   8.543  12.034  0.2481 -0.0023  0.3455
 3915W        W20389  16.968  15.721   5.020 -0.1716  0.3260  0.1082
 3916W        W20390   9.558  15.386   3.684 -0.0285  0.0293  0.3760
 3917W        W20391  14.230  15.979   5.536 -0.3104 -0.1501  0.0776
 3918W        W20392   4.747  13.982  14.579  0.1259 -0.0703 -0.0323
 3919W        W20393  11.889   2.607  13.518 -0.0533  0.0794  0.1491
 3920W        W20394   6.837  18.709  10.707  0.1142  0.0623  0.1378
 3921W        W20395   6.489   7.667  11.806  0.0008 -0.0616  0.0300
 3922W        W20396   7.315  10.679   3.977 -0.1780  0.0323  0.1685
 3923W        W20397  10.701  13.313   0.766 -0.0009 -0.0795 -0.1833
 3924W        W20398  12.416  16.930   3.198 -0.0990 -0.4638  0.5168
 3925W        W20399  12.509  14.859   5.012 -0.2986 -0.1822  0.1681
 3926W        W20400  15.396   9.186  12.850 -0.0119 -0.0634 -0.0151
 3927W        W20401   9.067   6.624  14.946 -0.0662 -0.0027  0.1682
 3928W        W20402  15.135   6.828  10.474  0.4741 -0.1028  0.1515
 3929W        W20403  18.602   8.900  12.397 -0.2454  0.1792  0.0360
 3930W        W20404   8.640   4.486  11.243  0.4046 -0.0788 -0.1632
 3931W        W20405   1.393  18.632   1.313 -0.2424 -0.2200 -0.1028
 3932W        W20406   6.874  12.559   3.910 -0.3758  0.1381 -0.0756
 3933W        W20407  10.697   7.531  13.138 -0.1617  0.0927 -0.0139
 3934W        W20408   0.393  12.860  10.931  0.0090  0.0948  0.3357
 3935W        W20409  15.552  18.569  11.565  0.1741 -0.1434  0.0051
 3936W        W20410  12.426  10.633   0.193 -0.1902 -0.1217  0.0122
 3937W        W20411  17.506   6.042   2.624 -0.1323 -0.0295  0.0381
 3938W        W20412   7.136   5.186  11.549 -0.1570 -0.2474  0.1492
 3939W        W20413   0.616   5.255   1.997 -0.1177  0.0560 -0.0430
 3940W        W20414   1.832  14.945   2.668  0.0523 -0.0828 -0.0225
 3941W        W20415  15.209  12.906  11.647  0.2380  0.1477  0.2294
 3942W        W20416   3.031  10.349   1.048  0.2573 -0.0172  0.2664
 3943W        W20417   9.705  13.573  12.420  0.0576  0.0020  0.0718
 3944W        W20418   2.033   7.492  11.847 -0.0397 -0.3286  0.2612
 3945W        W20419   5.828   9.810   4.086  0.1062 -0.0332 -0.3868
 3946W        W20420  18.017  10.989   3.850  0.0946 -0.3922  0.1175
 3947W        W20421  18.765   7.364  11.408 -0.1738  0.0501  0.1162
 3948W        W20422  11.300   8.860  12.393 -0.1826 -0.1206  0.2365
 3949W        W20423   9.166  10.513  14.400  0.1194 -0.0047 -0.0900
 3950W        W20424   5.126  15.105  14.865 -0.0111 -0.0031  0.3646
 3951W        W20425   8.781   6.537  14.469 -0.0342 -0.1745 -0.0603
 3952W        W20426  12.465   8.110   3.690  0.0196 -0.1077 -0.0348
 3953W        W20427  17.054   5.904   5.519 -0.0182 -0.0493  0.2065
 3954W        W20428  17.440   8.136   0.108  0.1535 -0.0746 -0.0669
 3955W        W20429  15.706  14.011   0.779  0.1467  0.0792 -0.6029
 3956W        W20430   1.474   0.962  15.183 -0.3025 -0.0681  0.2478
 3957W        W20431  17.808   2.517  12.981  0.2615  0.2626  0.0896
 3958W        W20432   5.361   9.410   2.293  0.0553  0.2037  0.1371
 3959W        W20433   0.120   1.155  11.860 -0.1119  0.3327 -0.1184
 3960W        W20434   9.112   0.947  12.049 -0.0485  0.0874 -0.0826
 3961W        W20435   2.956  10.286   5.314 -0.2173  0.0429 -0.0182
 3962W        W20436   5.560   8.047  13.349  0.1828 -0.1949 -0.0683
 3963W        W20437   6.329   4.148   3.163  0.1127 -0.1039  0.1455
 3964W        W20438  11.555   0.637   4.473  0.2288  0.1889  0.2263
 3965W        W20439  14.243  18.388   2.338  0.3379 -0.1430 -0.0202
 3966W        W20440   5.547   1.700  14.699 -0.0186 -0.1931  0.1070
 3967W        W20441  17.318   7.792   2.709  0.0580  0.1898 -0.1969
 3968W        W20442  12.364  15.000   2.585  0.0474 -0.1060  0.1389
 3969W        W20443  17.586   9.795  14.342 -0.3893 -0.1672  0.1687
 3970W        W20444   9.760   2.233  11.275  0.0859 -0.0751  0.0375
 3971W        W20445  11.215   1.289  11.078  0.2936  0.2660  0.3503
 3972W        W20446  15.221  18.035   1.172 -0.0137  0.0292  0.1858
 3973W        W20447  18.597  14.961   2.586  0.0664  0.0558 -0.0391
 3974W        W20448  12.672   8.886   4.944  0.2722 -0.1644 -0.0461
 3975W        W20449  14.682   9.221  11.985 -0.1763 -0.0702  0.0280
 3976W        W20450  16.834   0.835   3.111  0.1223 -0.0330  0.1708
 3977W        W20451   0.486   5.253  11.058 -0.2261  0.1168  0.1657
 3978W        W20452   9.166  18.681  13.751  0.1978 -0.3888  0.1224
 3979W        W20453   5.575   9.524   3.752 -0.0675  0.1156 -0.0026
 3980W        W20454   7.559   8.013   1.541 -0.0596  0.0347 -0.0229
 3981W        W20455  15.468   9.559  12.472  0.2561 -0.0301  0.2348
 3982W        W20456  16.130   7.157  12.543  0.0385 -0.2233  0.1942
 3983W        W20457  17.926   4.013   3.818 -0.3525  0.0612  0.0211
 3984W        W20458   0.403   9.070   0.421  0.2221  0.0168 -0.2346
 3985W        W20459  13.769   6.065   2.705 -0.0927  0.1930 -0.0919
 3986W        W20460   1.300  13.571  14.212 -0.1267 -0.3507  0.1205
 3987W        W20461  18.398  12.774   0.170 -0.1110 -0.1428 -0.1097
 3988W        W20462  11.094   7.875   2.102  0.0403 -0.0718  0.0410
 3989W        W20463  14.702   2.882  11.395 -0.0199 -0.1106 -0.0678
 3990W        W20464   0.618  16.321   1.897 -0.2972  0.1370 -0.2250
 3991W        W20465   4.596   6.328  14.887 -0.1313 -0.3101 -0.1261
 3992W        W20466  10.957  16.794   2.147  0.0451  0.0069 -0.0323
 3993W        W20467   1.739   2.443  15.255 -0.1938  0.0415 -0.0632
 3994W        W20468  14.960   5.047  14.268  0.0875 -0.0369 -0.2860
 3995W        W20469   3.989  12.143  13.940  0.2082  0.3132  0.1812
 3996W        W20470  10.131   0.708   4.155  0.0733 -0.3409  0.3847
 3997W        W20471  18.717   0.361   0.677  0.3163  0.1462  0.2564
 3998W        W20472   2.103  10.704   2.844  0.2695 -0.0103 -0.1562
 3999W        W20473  13.170  10.698   2.594 -0.1057 -0.1420 -0.2363
 4000W        W20474  14.141   9.577  12.762 -0.3773 -0.1220  0.0068
 4001W        W20475   2.575   3.663  15.500 -0.2158  0.0884 -0.0120
 4002W        W20476   4.221  11.358  14.329 -0.1371 -0.0413  0.1980
 4003W        W20477   3.436   9.498   3.059  0.1517 -0.0376 -0.1635
 4004W        W20478  11.997   4.340  13.956  0.0945 -0.2123 -0.2130
 4005W        W20479  18.454  13.797   4.477 -0.0646 -0.0808  0.0830
 4006W        W20480   7.767   3.206  15.421  0.3145 -0.3460 -0.3716
 4007W        W20481   8.035  16.560  10.593  0.1665  0.1656 -0.2987
 4008W        W20482  12.522  15.283   3.084 -0.1560 -0.0530 -0.2578
 4009W        W20483  14.202   3.371  11.656 -0.3282  0.0445 -0.0003
 4010W        W20484  14.544   4.877   1.103  0.1965 -0.1104  0.1377
 4011W        W20485  10.463   7.224   1.718 -0.0775  0.0312 -0.1557
 4012W        W20486   1.092   8.847   3.409  0.4216 -0.0871  0.0927
 4013W        W20487   5.085   8.239  15.376 -0.0148  0.1319  0.2171
 4014W        W20488   2.968   7.881  12.779  0.0960 -0.0055  0.3361
 4015W        W20489   9.278   3.246  12.134  0.1437 -0.1706 -0.0842
 4016W        W20490  16.412  13.869  13.013  0.0719  0.1832 -0.0790
 4017W        W20491   7.355   1.771   0.679 -0.0724  0.1240  0.3501
 4018W        W20492  12.351   0.241   0.723  0.1576  0.3796  0.3728
 4019W        W20493  17.796   5.648  11.962 -0.0400  0.0079  0.0213
 4020W        W20494  15.340  17.271   2.299  0.1758  0.1721  0.0776
 4021W        W20495   7.614   5.484   9.624  0.1499  0.1951  0.3639
 4022W        W20496   3.719   7.682   2.339  0.2874  0.1480 -0.1930
 4023W        W20497   3.704  16.755  15.187 -0.0316 -0.0852 -0.0047
 4024W        W20498  11.885  11.297   1.414  0.2978 -0.0108 -0.3284
 4025W        W20499   8.932   6.840  15.358 -0.0540  0.4162 -0.0614
 4026W        W20500   7.919  16.955  15.239 -0.0240  0.2463 -0.0123
 4027W        W20501  10.846  17.445   3.273  0.2538  0.1290  0.1751
 4028W        W20502   0.374   0.745  11.364  0.1549  0.0217 -0.0794
 4029W        W20503   7.869   4.267   4.044 -0.0094 -0.0400  0.0458
 4030W        W20504   6.660   8.793  14.368 -0.0799  0.1744 -0.0216
 4031W        W20505   6.744   5.095   2.200  0.0455 -0.3169  0.0748
 4032W        W20506  18.656  14.593   3.187 -0.1010 -0.1972  0.1102
 4033W        W20507  13.280   7.150  12.893  0.1226 -0.0067  0.2130
 4034W        W20508   8.554   7.654  12.236  0.0341  0.1130 -0.1108
 4035W        W20509  13.779  17.014  14.454 -0.3096 -0.0905  0.0378
 4036W        W20510  13.340  16.557   4.858  0.1386  0.0376  0.0101
 4037W        W20511  14.797   1.886   3.054  0.1378  0.1998  0.2929
 4038W        W20512   9.873  11.764  11.105 -0.1395 -0.0528  0.1131
 4039W        W20513  11.710   9.783   2.592  0.1427 -0.1779  0.1628
 4040W        W20514  18.226   1.358  12.497  0.0793 -0.0170 -0.0321
 4041W        W20515  14.910   4.533   3.067  0.0742 -0.0586 -0.1685
 4042W        W20516   0.671  18.484  12.674  0.5767 -0.0948 -0.1267
 4043W        W20517  14.584   6.530  11.147  0.0236  0.1229 -0.2450
 4044W        W20518  18.339   9.758  10.715  0.0551  0.0143 -0.0546
 4045W        W20519   1.167  15.651  13.964  0.1545  0.0742  0.0116
 4046W        W20520   7.966   8.869   0.386  0.0062 -0.0118  0.0223
 4047W        W20521  17.109   8.759  13.023 -0.4915 -0.1843  0.1673
 4048W        W20522   3.097  14.450  13.843 -0.1533  0.0726 -0.2742
 4049W        W20523  10.823   8.349   4.928 -0.2585 -0.2708  0.4436
 4050W        W20524   5.627  10.154   3.132  0.2387 -0.1353  0.1419
 4051W        W20525   9.309   4.777   4.766 -0.2900  0.1945  0.2715
 4052W        W20526  14.408   5.375   2.892 -0.2304  0.2244  0.0492
 4053W        W20527  11.858  18.534  12.403 -0.0488 -0.0248 -0.1090
 4054W        W20528  12.056   3.975  13.011 -0.0527  0.1850  0.1369
 4055W        W20529   4.675   4.701   4.093 -0.0447  0.1902  0.0187
 4056W        W20530  17.226   3.868  11.495 -0.0687  0.0826 -0.0653
 4057W        W20531  18.635  17.993  12.951 -0.0720  0.0434  0.2263
 4058W        W20532  17.380   1.430   0.805 -0.0010 -0.1187 -0.2250
 4059W        W20533   9.939  10.781   1.573  0.2653 -0.1832 -0.0732
 4060W        W20534   9.920   9.488  12.284  0.2258 -0.0161  0.2626
 4061W        W20535  12.247  16.281   3.931 -0.3245 -0.3403 -0.0857
 4062W        W20536  18.514  13.665  14.211  0.3454 -0.0890  0.0040
 4063W        W20537  13.048   9.277  11.161  0.1198  0.0184 -0.2143
 4064W        W20538  15.717   7.495  13.494  0.1442 -0.0087  0.0579
 4065W        W20539   2.639   2.480   3.860 -0.1528 -0.0509  0.4210
 4066W        W20540  16.647  16.585  14.902 -0.3668 -0.0355  0.0912
 4067W        W20541  15.517  16.059  14.956  0.1316  0.4886 -0.0870
 4068W        W20542  13.575   2.415   4.670 -0.2967  0.0619  0.0847
 4069W        W20543   9.935   6.551  13.823  0.3500 -0.1356 -0.0404
 4070W        W20544  17.980   8.917   0.785 -0.1519 -0.0005 -0.1184
 4071W        W20545   3.659  16.366  11.438  0.1253 -0.3066 -0.1823
 4072W        W20546   9.517   2.419  12.557  0.3208 -0.0122 -0.0428
 4073W        W20547  18.542   9.664   4.122 -0.0074 -0.2570  0.4479
 4074W        W20548  16.472  16.471  13.986 -0.0983 -0.0402  0.0116
 4075W        W20549  12.271  14.465  12.962  0.0011  0.1497  0.3524
 4076W        W20550  10.286   9.691  11.967  0.0900  0.0952  0.1733
 4077W        W20551  14.204   6.879  10.791 -0.1807 -0.1320 -0.1779
 4078W        W20552   5.664   1.677  12.793  0.2027 -0.2563 -0.3046
 4079W        W20553  12.216  10.341  13.316  0.0440  0.1002 -0.1506
 4080W        W20554   0.411  13.669  13.187  0.2568  0.1308  0.2367
 4081W        W20555   4.927   4.594  14.790  0.3054  0.2333  0.1181
 4082W        W20556   1.376  15.450  14.405  0.1681  0.0679 -0.0760
 4083W        W20557   5.552   9.247  14.608  0.1970  0.2773 -0.0546
 4084W        W20558  13.217   8.000   5.752  0.0575 -0.0921  0.1866
 4085W        W20559   1.496  15.272  13.871 -0.5661  0.2730 -0.1628
 4086W        W20560   5.942   5.782  14.070  0.0224  0.0696  0.1942
 4087W        W20561  10.931   4.849  13.883  0.0113 -0.1410  0.3553
 4088W        W20562   0.632  18.192   0.969 -0.0369  0.3116 -0.0944
 4089W        W20563  10.396  16.353   4.833  0.2088  0.0636 -0.2964
 4090W        W20564  14.027  15.052  12.524 -0.1693  0.3280  0.4984
 4091W        W20565   5.945   9.188  15.451  0.3511  0.0891 -0.0069
 4092W        W20566   0.388   7.784   2.660 -0.2686  0.0095  0.3983
 4093W        W20567   8.443   5.326  14.612  0.1797  0.0377 -0.5177
 4094W        W20568   8.850   8.234   5.707  0.2166  0.1004  0.2172
 4095W        W20569   4.186  10.433  11.124  0.3117 -0.1478  0.1691
 4096W        W20570  12.767   6.090   3.377  0.0731 -0.1708 -0.0603
 4097W        W20571   3.027   3.749  14.203 -0.1461  0.0025  0.0284
 4098W        W20572  17.665   2.581   2.195  0.0779 -0.0107 -0.3848
 4099W        W20573  14.885  11.649   1.621 -0.3094 -0.0808  0.1058
 4100W        W20574  15.204  15.485  14.653  0.0781 -0.0210  0.0130
 4101W        W20575  15.752   9.906   5.055  0.1682  0.2757  0.2022
 4102W        W20576  12.219   6.173   4.512  0.3531 -0.0445  0.1559
 4103W        W20577   6.186  16.582  10.982 -0.1160 -0.0506 -0.1149
 4104W        W20578   8.516  10.296  13.408  0.0803 -0.0969 -0.4290
 4105W        W20579   6.459  13.425   2.095 -0.0135 -0.1989  0.0050
 4106W        W20580  16.577  15.276  13.042 -0.0800  0.1654 -0.2395
 4107W        W20581  18.056  16.281  13.057 -0.2619 -0.1125  0.3015
 4108W        W20582  17.776   4.513   4.527 -0.0362 -0.3498  0.2303
 4109W        W20583  13.721  17.798  13.619  0.2755 -0.0014 -0.0018
 4110W        W20584   3.439  16.042  10.607 -0.0407  0.4553  0.2016
 4111W        W20585  13.644   8.298   5.050 -0.5041 -0.1812 -0.0536
 4112W        W20586   6.813  15.717   3.128  0.0123 -0.0985  0.2912
 4113W        W20587  17.030  12.031   1.408 -0.1145 -0.2289  0.0399
 4114W        W20588   9.409   9.996  13.094 -0.1618  0.0370  0.2752
 4115W        W20589   5.016  12.923   4.065 -0.0490  0.1694 -0.1531
 4116W        W20590  11.615   8.454   3.645  0.2815 -0.1491 -0.0085
 4117W        W20591  15.411  18.149   4.443 -0.1783  0.4484 -0.2446
 4118W        W20592  18.334   6.029   0.022 -0.0665  0.2460  0.0130
 4119W        W20593   0.451  11.019   0.060 -0.1659 -0.1276 -0.0021
 4120W        W20594   9.343  10.135   3.327 -0.1228 -0.3505  0.2103
 4121W        W20595  14.398  12.634   0.343 -0.0824 -0.2611 -0.5077
 4122W        W20596  14.321   6.333  14.971  0.0760  0.0612 -0.1853
 4123W        W20597   7.027   0.403   1.817 -0.0646  0.1130  0.3206
 4124W        W20598   7.364  12.034   2.950 -0.0565 -0.0183 -0.2512
 4125W        W20599   9.654  18.608  14.699 -0.1206 -0.1676  0.2225
 4126W        W20600   2.526   6.740  15.363 -0.1147  0.1437  0.1589
 4127W        W20601   6.321  14.769   4.233 -0.2411  0.2198  0.4132
 4128W        W20602   8.439   0.211  11.681  0.0745 -0.0700  0.1989
 4129W        W20603   9.733   8.680   1.172  0.0405 -0.1522 -0.1200
 4130W        W20604   5.615   1.421  12.403 -0.3607 -0.0213  0.0096
 4131W        W20605  18.233   4.277  12.360 -0.0171  0.0403  0.1930
 4132W        W20606  13.530   9.386   3.880 -0.0136 -0.1174  0.2264
 4133W        W20607   7.013   1.659  11.915 -0.1973  0.0497 -0.1815
 4134W        W20608   4.056  18.561  10.731 -0.0053 -0.1827  0.1346
 4135W        W20609   9.385   4.465  15.458  0.2606 -0.0120 -0.0251
 4136W        W20610   7.637   6.214   2.926  0.2639  0.0348  0.0865
 4137W        W20611  11.828  15.310   4.968 -0.1330  0.2774 -0.0229
 4138W        W20612  12.628   3.846  12.222  0.2696  0.3059  0.0545
 4139W        W20613  15.668   8.719  13.883  0.0739  0.0850 -0.1897
 4140W        W20614   1.123  10.941   5.079 -0.0425  0.1990 -0.0743
 4141W        W20615  11.590  15.030   5.289  0.2154 -0.2123 -0.0876
 4142W        W20616   4.392  14.019  13.222  0.1160 -0.1287  0.0173
 4143W        W20617   4.350   9.282  10.016  0.0680  0.3693 -0.1500
 4144W        W20618   4.379   1.506  13.359 -0.0522  0.3070  0.1677
 4145W        W20619   0.863   5.105   1.014  0.3855 -0.0293 -0.3190
 4146W        W20620   4.401  16.346   5.076 -0.0407 -0.1264 -0.0120
 4147W        W20621   6.727   1.278  12.118  0.0524 -0.0606  0.1019
 4148W        W20622   1.488  14.928   1.383 -0.0142 -0.0219  0.2647
 4149W        W20623   6.853   0.834   5.059 -0.0795 -0.1023 -0.2237
 4150W        W20624  17.954  16.624   0.690 -0.1179  0.1907 -0.1322
 4151W        W20625   8.908   7.696  11.366  0.1362 -0.2764  0.0114
 4152W        W20626  17.909  14.703   6.006  0.1526  0.2662 -0.2564
 4153W        W20627   2.845   5.042   2.559  0.3099  0.3872 -0.2435
 4154W        W20628   9.553  11.336   1.400  0.1427 -0.0240 -0.1201
 4155W        W20629  10.237  15.654   1.626 -0.0805 -0.1910  0.2133
 4156W        W20630   6.444  18.477  13.679 -0.2064 -0.0204  0.1020
 4157W        W20631   4.964  14.556   3.490 -0.1600  0.0454  0.0365
 4158W        W20632   4.657   8.573  13.074  0.1407  0.0896 -0.2031
 4159W        W20633   6.851   0.102  14.975  0.2822  0.1832 -0.2055
 4160W        W20634   1.279  11.703  13.149  0.3288  0.1645 -0.0363
 4161W        W20635   9.948  12.331  14.397 -0.0988  0.1272 -0.0881
 4162W        W20636  17.419  12.938  13.498 -0.0970 -0.0922 -0.1411
 4163W        W20637   1.190  10.272   1.155 -0.1173 -0.1294 -0.1120
 4164W        W20638   2.166   7.436   0.398 -0.0408 -0.1244 -0.3134
 4165W        W20639  15.502  18.151   2.537 -0.0048  0.0719 -0.2510
 4166W        W20640   8.432  11.820  11.956  0.0156 -0.0571  0.0679
 4167W        W20641  11.144  12.438   0.040  0.0995 -0.2213  0.1950
 4168W        W20642  14.112  18.501   1.081  0.0582 -0.1580  0.1542
 4169W        W20643  13.995   1.806  12.689 -0.1481  0.0066 -0.0820
 4170W        W20644   3.631  16.421   4.057  0.1762  0.0096  0.0743
 4171W        W20645  11.753  10.240   2.737  0.1523 -0.1780 -0.0797
 4172W        W20646   2.790   8.039   0.836 -0.0550 -0.0305 -0.1040
 4173W        W20647  11.584  16.006  14.772 -0.2053  0.1547  0.1422
 4174W        W20648   3.479  18.155   4.679 -0.0741 -0.2262 -0.3424
 4175W        W20649  12.619  10.080  12.337  0.1303  0.0126 -0.1301
 4176W        W20650  15.253   5.978  10.899  0.0384  0.1462  0.0455
 4177W        W20651   5.771  11.963  11.054  0.1687 -0.6109  0.0656
 4178W        W20652   2.752   8.063   2.074  0.2383 -0.3681  0.1255
 4179W        W20653   1.236   9.944   0.218 -0.2707 -0.2079 -0.0121
 4180W        W20654  16.662  10.338   2.117 -0.3135 -0.1005 -0.1168
 4181W        W20655  16.890   7.367   4.197 -0.3605  0.0700  0.0688
 4182W        W20656   3.751  15.991  13.176 -0.1058 -0.2015 -0.0398
 4183W        W20657  15.090  10.032  14.531 -0.1255  0.1622  0.1127
 4184W        W20658  15.300  17.505  11.942  0.0869 -0.1251  0.1627
 4185W        W20659   4.098   6.030  10.674  0.2356 -0.2015 -0.2290
 4186W        W20660   1.031   2.533  11.150  0.1460  0.3308 -0.3324
 4187W        W20661   5.675   6.870   4.640 -0.0525  0.1305 -0.0350
 4188W        W20662   7.566  13.306   0.093 -0.1455  0.2533  0.1858
 4189W        W20663   4.030  16.104  11.746 -0.0756 -0.0063 -0.2722
 4190W        W20664  17.361   5.705  10.574 -0.0678 -0.2625  0.0717
 4191W        W20665   1.303   8.845   4.044 -0.0176 -0.2678  0.2781
 4192W        W20666   5.238   9.653   1.728 -0.0721  0.0523  0.2881
 4193W        W20667   2.453  18.651   1.306  0.0553 -0.0069  0.1364
 4194W        W20668   2.145   9.191   2.719 -0.3510  0.0049 -0.1725
 4195W        W20669   2.712   4.431  13.458  0.0025 -0.2428 -0.1197
 4196W        W20670  14.173   5.820   5.487 -0.1560  0.0143 -0.0281
 4197W        W20671   0.719   6.688  11.170 -0.1921 -0.1565 -0.0657
 4198W        W20672  17.892  15.680   3.378  0.0869  0.1966  0.1439
 4199W        W20673   5.913   3.550   0.360  0.0362 -0.2280  0.1458
 4200W        W20674   7.770   3.831   4.373  0.1121 -0.1260 -0.3538
 4201W        W20675   6.002  17.292  12.697  0.0461 -0.0819  0.2040
 4202W        W20676  16.552  13.691   1.614  0.1877 -0.1144 -0.3849
 4203W        W20677  10.449  17.455  13.183  0.0554  0.0048  0.1158
 4204W        W20678   1.902  16.380   4.296 -0.0645 -0.1670 -0.0556
 4205W        W20679   0.221  14.964   5.647 -0.0055  0.3576 -0.1144
 4206W        W20680  16.032   7.077   1.058  0.0064  0.0822  0.3217
 4207W        W20681   3.432   7.275   2.229  0.0112  0.3126  0.0768
 4208W        W20682  11.384  15.550   0.743 -0.2083  0.1284 -0.0646
 4209W        W20683   8.872   0.744  13.256 -0.0411  0.0687 -0.1598
 4210W        W20684   0.022  10.272  11.397 -0.0318 -0.2775  0.2187
 4211W        W20685  13.843   1.497   1.916 -0.1321 -0.1610 -0.0897
 4212W        W20686  18.694   8.904  11.817 -0.1721 -0.0642 -0.1594
 4213W        W20687  11.821   1.281   3.921  0.1398 -0.1343 -0.2497
 4214W        W20688  18.603  13.287  15.419  0.4125 -0.2072 -0.0181
 4215W        W20689  11.412  16.234   3.365 -0.2246 -0.0319 -0.0975
 4216W        W20690   2.561  13.136   2.788  0.0954  0.2199 -0.0172
 4217W        W20691  14.079   9.701   3.424 -0.2533  0.0488  0.2376
 4218W        W20692  16.372   1.095   2.963 -0.0459  0.3153 -0.1640
 4219W        W20693  11.209   4.908   3.809 -0.0206 -0.3315 -0.2713
 4220W        W20694   2.983   3.814   0.913  0.1202 -0.2423  0.3042
 4221W        W20695   8.474  12.519   4.666  0.1484  0.1499  0.1248
 4222W        W20696  12.229  14.210  12.469  0.2558 -0.3005  0.1373
 4223W        W20697   8.442   4.772  15.478  0.2109  0.0653 -0.2097
 4224W        W20698   6.046   3.344  12.765 -0.3330 -0.2276 -0.1331
 4225W        W20699  13.672   5.254  11.311  0.1343  0.0015  0.0434
 4226W        W20700  18.525  14.565  10.990 -0.4807  0.2398  0.0579
 4227W        W20701  17.068   3.775  12.161 -0.4460 -0.6083  0.2562
 4228W        W20702  18.690   7.467   1.329  0.0605 -0.2869 -0.3398
 4229W        W20703   9.973   2.412  10.834 -0.0915 -0.0805 -0.2092
 4230W        W20704   1.580   9.031   3.579 -0.0896 -0.2599  0.1879
 4231W        W20705  10.765   9.296  13.421  0.3030  0.0096  0.1446
 4232W        W20706  17.386  13.681   1.650  0.1077  0.0541 -0.4921
 4233W        W20707   6.678  17.935  13.962 -0.0976  0.1401  0.4001
 4234W        W20708   3.384  17.510  13.164  0.1252 -0.2907 -0.2076
 4235W        W20709   2.537  14.666   3.104 -0.0562 -0.0953  0.0104
 4236W        W20710  15.691  10.206   4.634  0.0503 -0.2043  0.1546
 4237W        W20711   6.434   9.498  13.175  0.0842  0.2433  0.0696
 4238W        W20712   3.139   5.399   1.738  0.0630  0.1609 -0.1919
 4239W        W20713  14.282  10.193  11.605  0.1797  0.1750 -0.0234
 4240W        W20714  10.653  18.671  14.880  0.3441 -0.2136  0.1178
 4241W        W20715   6.542  11.664   1.158 -0.0692  0.1172  0.0080
 4242W        W20716  16.275   3.743  11.632 -0.1341 -0.3160  0.0355
 4243W        W20717   6.373  18.489  10.560 -0.0860 -0.2245  0.3143
 4244W        W20718   8.573   0.397  10.438 -0.0062 -0.0585  0.0589
 4245W        W20719  18.186   9.621   2.039  0.3100 -0.1140  0.3435
 4246W        W20720  15.698  16.052   0.677 -0.1104 -0.0952  0.0552
 4247W        W20721   4.648  15.370  15.554 -0.2997 -0.1950 -0.1297
 4248W        W20722  17.787   9.326  11.900 -0.2398 -0.2668  0.1505
 4249W        W20723  18.343   2.318   1.719 -0.0185 -0.1596 -0.1318
 4250W        W20724   2.843   2.179   3.153  0.0516  0.2376 -0.0927
 4251W        W20725  13.906   7.783   0.900  0.3589 -0.0064 -0.0743
 4252W        W20726  14.270  10.456   0.870 -0.0616  0.1988 -0.0383
 4253W        W20727  16.852  13.717   5.691 -0.3115  0.0841 -0.2846
 4254W        W20728  15.241  13.901   1.025 -0.1349  0.0990  0.4441
 4255W        W20729   4.303   5.330   9.528 -0.2901 -0.0486  0.0258
 4256W        W20730  15.327   8.541   5.032 -0.2701  0.1164 -0.2123
 4257W        W20731  16.771   3.088   0.707  0.2137 -0.0064  0.0888
 4258W        W20732   6.587   3.321   4.973  0.1874 -0.3822  0.2673
 4259W        W20733   7.351  13.681  12.081 -0.0984 -0.1459 -0.1174
 4260W        W20734   3.060   5.817   5.102  0.1112 -0.1342 -0.2964
 4261W        W20735  16.061   3.794  14.546  0.0504  0.2454 -0.0871
 4262W        W20736  11.519  14.399   3.914 -0.0890  0.0180 -0.0944
 4263W        W20737  10.732  14.230   3.851 -0.2246  0.0995  0.0656
 4264W        W20738   4.818  14.233  13.243 -0.2997  0.3177  0.0327
 4265W        W20739  13.814   3.319  12.766 -0.1090 -0.0488 -0.0557
 4266W        W20740  10.572  18.698  14.352  0.1249 -0.1273  0.2191
 4267W        W20741  15.548  10.641   0.596 -0.1224  0.0127 -0.1116
 4268W        W20742   6.176  15.887   4.804 -0.3515  0.1667 -0.0492
 4269W        W20743   0.084   9.223  15.464  0.0503  0.3705 -0.2047
 4270W        W20744   5.748   8.446  14.973  0.0378 -0.0840  0.2677
 4271W        W20745   9.132  15.886   1.468  0.1231  0.3330  0.0141
 4272W        W20746   2.900   3.529   3.715  0.0774 -0.0169  0.0113
 4273W        W20747   2.766   9.106   3.343 -0.0889  0.1095 -0.1934
 4274W        W20748   4.452  15.653  14.350  0.1502 -0.0615 -0.1728
 4275W        W20749   6.849   7.520   0.502 -0.0232 -0.1410  0.0426
 4276W        W20750  14.952  15.869  14.843 -0.3839  0.0238 -0.1360
 4277W        W20751  10.085   6.535   1.071 -0.2483  0.3169 -0.0371
 4278W        W20752   2.454   5.443   2.604 -0.1995 -0.0868  0.1062
 4279W        W20753  14.970   0.910  13.930 -0.2577  0.0139 -0.2127
 4280W        W20754   4.315  10.163   0.346 -0.2070 -0.0497 -0.0679
 4281W        W20755  16.405  16.276  14.551 -0.2008 -0.1555 -0.2579
 4282W        W20756  16.049   1.840  15.243 -0.0350 -0.0660  0.3142
 4283W        W20757   8.258  10.736   0.483 -0.3258 -0.1573 -0.0519
 4284W        W20758   0.078   2.770   5.493  0.0159 -0.2915 -0.0553
 4285W        W20759  17.910   0.998  10.606 -0.2630 -0.1691  0.2360
 4286W        W20760  18.715   7.853  15.212  0.0491  0.3095 -0.1039
 4287W        W20761   8.052  10.902  14.906 -0.0550  0.0397  0.0064
 4288W        W20762  16.334   1.581   3.167  0.0555  0.2383  0.0154
 4289W        W20763   0.218   0.888   0.855  0.2309  0.2770  0.3063
 4290W        W20764  14.706  14.020   1.456 -0.1461  0.1059  0.2031
 4291W        W20765   4.937  16.168   5.313  0.0286 -0.0802 -0.0498
 4292W        W20766  18.654  15.017  11.125  0.0461 -0.3250  0.0944
 4293W        W20767  11.475  13.311   2.129  0.1321  0.1107 -0.0810
 4294W        W20768   2.891  17.122   5.334 -0.1500  0.1874 -0.2353
 4295W        W20769   1.962   4.044  13.963 -0.1507 -0.0320 -0.1139
 4296W        W20770  18.138   5.017   0.953  0.1058 -0.0965 -0.0403
 4297W        W20771   3.724  17.051   0.056 -0.0582 -0.0523  0.1673
 4298W        W20772   1.994  11.573  14.996 -0.2805 -0.1397 -0.1516
 4299W        W20773   5.875  14.320  12.327  0.0112 -0.1521 -0.1999
 4300W        W20774   5.895  10.493   3.358 -0.0967  0.1019 -0.3801
 4301W        W20775   0.813   5.845  15.388  0.1758  0.2146  0.0741
 4302W        W20776  12.977   3.767   3.069  0.0256  0.0127 -0.0654
 4303W        W20777  16.995  18.065  13.747  0.0522 -0.1236  0.3957
 4304W        W20778   5.200  16.515   3.056  0.2855 -0.0432  0.1276
 4305W        W20779   3.735   2.868   0.829 -0.3484  0.0918  0.1022
 4306W        W20780  18.750  15.839  13.398 -0.0133 -0.1094 -0.2195
 4307W        W20781   7.514   7.994  11.632  0.3197  0.1395 -0.3563
 4308W        W20782  15.559  11.588  15.460  0.0701 -0.0441  0.2401
 4309W        W20783   3.803  10.364   1.161  0.0888  0.0547  0.0265
 4310W        W20784  12.478   3.700  12.742 -0.0218  0.0193 -0.1250
 4311W        W20785   0.147  10.712  13.097 -0.1183  0.0433 -0.2932
 4312W        W20786  17.140   3.299   3.170 -0.1525 -0.5784  0.3213
 4313W        W20787  12.860  14.730   9.924 -0.1011 -0.0845  0.3061
 4314W        W20788  10.761   2.863   4.144  0.0565  0.0232  0.0835
 4315W        W20789   4.940   3.608   2.399  0.0776  0.0016  0.0362
 4316W        W20790  12.071   4.216  10.697 -0.2874 -0.1387 -0.1086
 4317W        W20791  10.267  12.910  13.478 -0.1689  0.0227 -0.0303
 4318W        W20792   8.322   0.486   5.320  0.1739  0.0323 -0.1024
 4319W        W20793  12.536   3.438   0.995 -0.4230 -0.0709  0.1179
 4320W        W20794   8.621  11.904  14.611  0.0592  0.1219  0.0428
 4321W        W20795   7.331  10.511  14.360  0.1236  0.1457  0.2091
 4322W        W20796  17.058  11.914  11.085  0.1937 -0.2736  0.0338
 4323W        W20797  11.765  12.935   2.026 -0.0284  0.1247  0.2274
 4324W        W20798  16.342   5.111  10.410  0.2555 -0.1190 -0.0407
 4325W        W20799   8.213  11.613  12.438  0.1863  0.0858  0.0677
 4326W        W20800   7.343   0.140  13.718 -0.2743 -0.1867  0.0546
 4327W        W20801   1.763  11.418   1.152  0.4097 -0.1572 -0.3214
 4328W        W20802  16.848  16.333  11.307  0.1018 -0.2140  0.0148
 4329W        W20803  11.183   7.017   2.104  0.0545 -0.2854  0.1124
 4330W        W20804   3.041   2.772  12.614 -0.1167 -0.0958 -0.0188
 4331W        W20805   5.951  13.041  14.330 -0.0077 -0.4272 -0.0147
 4332W        W20806   4.637   1.355  11.288  0.2755  0.0008  0.1720
 4333W        W20807   6.384   5.112  13.164  0.0146  0.0610 -0.1096
 4334W        W20808  16.558  13.308   0.768  0.0105  0.0568 -0.1234
 4335W        W20809   5.183   1.551  14.180  0.0363  0.1972  0.1012
 4336W        W20810  13.319  13.797   5.021  0.1712 -0.2493  0.0905
 4337W        W20811   5.026  13.560  14.872 -0.2757 -0.0361 -0.2486
 4338W        W20812   6.090   1.585   0.203  0.0767 -0.0246  0.0494
 4339W        W20813   0.405   6.626   4.604 -0.1828 -0.2247  0.3234
 4340W        W20814  18.083  18.731   4.848 -0.0133  0.2578 -0.0315
 4341W        W20815  10.246   3.659  15.116 -0.3687  0.1424  0.1351
 4342W        W20816   1.597   2.870  13.954  0.1470 -0.4208 -0.1884
 4343W        W20817  11.532   1.568  14.724  0.0653  0.1649 -0.2205
 4344W        W20818  13.206  10.668   4.224  0.1041 -0.1619  0.1551
 4345W        W20819   1.163  18.770  14.280 -0.2008 -0.1392 -0.2363
 4346W        W20820   8.023  17.847  14.714 -0.1485  0.0910  0.1597
 4347W        W20821  13.698   5.826   0.894 -0.3123  0.3220  0.0792
 4348W        W20822  13.416   1.192   1.965  0.2209 -0.1246  0.3081
 4349W        W20823   1.297   4.011  11.386  0.1605  0.0378 -0.2040
 4350W        W20824  18.221   5.951  10.393 -0.1955  0.0954  0.0430
 4351W        W20825   1.608   9.737   1.599 -0.0693 -0.0308 -0.0483
 4352W        W20826  16.395   1.513   0.957 -0.2115  0.1129 -0.3311
 4353W        W20827   5.550  12.616  11.059 -0.1744  0.2823  0.2497
 4354W        W20828  10.616   5.787   3.769 -0.3789  0.0055  0.1072
 4355W        W20829  11.591  11.877   3.187  0.0155  0.2300  0.3074
 4356W        W20830  16.959  11.709   5.184 -0.0481 -0.2319 -0.2027
 4357W        W20831   7.057   3.770  15.347  0.0139  0.0668 -0.1378
 4358W        W20832  15.185   0.628  13.559  0.0193 -0.1555  0.2255
 4359W        W20833  13.572  12.572   3.260 -0.1121  0.3170  0.2957
 4360W        W20834  16.349   8.308  12.986 -0.1123 -0.0294 -0.0570
 4361W        W20835   7.507   3.287   2.919 -0.3077 -0.1471 -0.0562
 4362W        W20836   3.930   1.022   3.251  0.3337  0.0459 -0.0916
 4363W        W20837   6.425   2.007   0.140 -0.1654  0.0578  0.0387
 4364W        W20838   7.657  18.751  15.434 -0.2397 -0.2064 -0.2218
 4365W        W20839   4.626   0.236  14.269  0.0500 -0.1281  0.2650
 4366W        W20840  16.622  15.131   0.289 -0.0354 -0.1089  0.1112
 4367W        W20841  15.961   2.667   4.603  0.1932  0.0188  0.1644
 4368W        W20842   2.290   7.088   0.714 -0.1480  0.2018 -0.3847
 4369W        W20843  10.964   1.568   3.403 -0.1567  0.2536 -0.0587
 4370W        W20844   4.936   0.847  11.566  0.0692  0.0177  0.1936
 4371W        W20845   5.398   0.020  11.508  0.1049 -0.1227 -0.2058
 4372W        W20846   6.410  15.193   5.998  0.1389  0.1276  0.0484
 4373W        W20847   4.996   6.000  11.922 -0.0274 -0.2611  0.1150
 4374W        W20848  16.542   0.135   1.545 -0.0234 -0.0355  0.1268
 4375W        W20849   4.071   6.421   3.091  0.2996  0.1604 -0.0894
 4376W        W20850  18.704   6.392  12.041  0.2261  0.0187  0.5939
 4377W        W20851   8.653  13.879   1.755 -0.1517 -0.1259 -0.0624
 4378W        W20852  10.989  13.444  12.691 -0.1872 -0.0434  0.0380
 4379W        W20853  14.510   2.215  13.737  0.0881  0.2740  0.2060
 4380W        W20854   0.009   2.583   1.851  0.2590  0.3733 -0.1822
 4381W        W20855   6.447  10.134  11.472  0.1809  0.1492  0.0634
 4382W        W20856  13.079   8.987  14.982  0.1579 -0.2705 -0.2001
 4383W        W20857  11.867   7.519  13.299  0.2466 -0.0616  0.2213
 4384W        W20858   1.808   3.674  14.859 -0.1263  0.0775  0.1036
 4385W        W20859   3.450  11.636   4.794 -0.1192  0.1405  0.1082
 4386W        W20860   7.688   1.215  13.641 -0.0531  0.1022 -0.1568
 4387W        W20861  15.981   5.585   0.615  0.1938 -0.0844 -0.0213
 4388W        W20862  15.886  13.729   0.401 -0.0362  0.1154 -0.0805
 4389W        W20863   7.743   1.365   5.663  0.1199 -0.0980 -0.1930
 4390W        W20864  12.894  14.357   0.614 -0.1399 -0.1263  0.1812
 4391W        W20865   5.201  12.107  11.759 -0.2876  0.2409  0.0152
 4392W        W20866  14.114   0.459  12.595 -0.0555 -0.0431 -0.2502
 4393W        W20867   3.476   4.483   1.333 -0.0930  0.1497  0.1921
 4394W        W20868   2.641  10.139  15.123 -0.0497 -0.0895 -0.0788
 4395W        W20869  16.529  13.732   1.096  0.0918 -0.3199 -0.1904
 4396W        W20870   4.752  15.823   3.070 -0.2072  0.0939 -0.0436
 4397W        W20871   0.750   7.979  10.752 -0.0153 -0.1529  0.1288
 4398W        W20872   0.819   5.311  15.426 -0.1268 -0.1846 -0.0399
 4399W        W20873   4.666  16.634   5.380 -0.1223  0.0023 -0.2572
 4400W        W20874   8.744   5.888   3.694  0.4717 -0.1824 -0.1101
 4401W        W20875   6.776  15.955   0.243 -0.1924  0.2586 -0.1767
 4402W        W20876  18.367   7.192  15.057  0.0400  0.1781  0.0963
 4403W        W20877   9.857   6.972   3.115  0.0415 -0.0901  0.0090
 4404W        W20878  17.336  13.507   2.654 -0.1059  0.2100  0.1761
 4405W        W20879   8.295  15.395   3.369 -0.1734  0.2707  0.0689
 4406W        W20880   5.761   6.481   1.093  0.0106  0.0415  0.0743
 4407W        W20881   2.755   4.856   4.186 -0.1901 -0.0280  0.0343
 4408W        W20882   6.223  10.005   2.448 -0.2010 -0.0443 -0.1980
 4409W        W20883  12.294   4.638  12.608  0.0386  0.1473  0.0588
 4410W        W20884   7.195  14.848   4.156 -0.0328 -0.1582 -0.1976
 4411W        W20885  17.476   3.829   3.855  0.2292 -0.0542  0.2106
 4412W        W20886   7.471   8.697   2.797 -0.1896  0.4080  0.1412
 4413W        W20887  13.148   8.278   4.240 -0.1762  0.3179 -0.2867
 4414W        W20888  14.285   9.844   1.603  0.1126 -0.1477  0.0158
 4415W        W20889  17.926  18.416   2.605  0.0227  0.1878 -0.0872
 4416W        W20890  10.459   5.876  13.210 -0.4315  0.3908 -0.1134
 4417W        W20891  12.839   3.194  14.080  0.0836 -0.2956 -0.1329
 4418W        W20892   7.399   5.641  12.325 -0.2669  0.1645  0.0328
 4419W        W20893   7.154  10.140  15.239  0.0705  0.2964 -0.0022
 4420W        W20894   7.878   9.172   1.601 -0.0744 -0.0420  0.0665
 4421W        W20895   6.082  12.971  10.500  0.0997  0.2130  0.2000
 4422W        W20896  18.087  18.007   4.810 -0.2780  0.2677  0.1748
 4423W        W20897  13.507  15.138   5.374  0.2432 -0.2070 -0.0700
 4424W        W20898  16.890   2.840   2.405  0.2855  0.3776 -0.2358
 4425W        W20899   0.466  13.950  15.210 -0.0198  0.2207 -0.1632
 4426W        W20900   1.557  14.979  12.710 -0.4199 -0.2142 -0.0344
 4427W        W20901   4.985  11.302   0.188  0.1748 -0.0635  0.2388
 4428W        W20902   4.846  15.548   2.268 -0.0774  0.1059  0.3247
 4429W        W20903  16.852   2.004   0.434  0.0493 -0.0448 -0.1573
 4430W        W20904  11.082   0.700   0.157 -0.2270 -0.1415  0.1579
 4431W        W20905  12.017   4.829  14.100  0.0632 -0.3800  0.2298
 4432W        W20906   9.173  17.645  13.000  0.2880 -0.5350  0.1448
 4433W        W20907  13.921  17.031  10.187 -0.3271  0.0066 -0.1363
 4434W        W20908   8.847   1.096   2.749 -0.1768 -0.1377 -0.3674
 4435W        W20909  14.945  17.092   3.698 -0.0786 -0.2648 -0.1877
 4436W        W20910   4.208   7.765  12.623 -0.3849  0.0925  0.0332
 4437W        W20911   7.820   6.638  10.260 -0.1086 -0.0185 -0.1153
 4438W        W20912   7.798  17.498   0.723  0.0964 -0.2061 -0.0616
 4439W        W20913  13.820  18.650   1.470 -0.0165  0.4209 -0.3515
 4440W        W20914   0.103   4.809   4.126 -0.1782  0.0881 -0.5801
 4441W        W20915  12.661  17.637   4.979 -0.2461 -0.1660 -0.0415
 4442W        W20916  17.234   3.566   0.414  0.0619 -0.1578 -0.2005
 4443W        W20917   5.170  18.751   2.962 -0.3282 -0.3199  0.2051
 4444W        W20918  11.713  18.673  11.358  0.1542 -0.0725 -0.0781
 4445W        W20919   5.171   6.917  11.899 -0.3332 -0.3082  0.1055
 4446W        W20920   4.775   5.729  15.459 -0.1056  0.0513 -0.1519
 4447W        W20921   6.924  15.326   5.337  0.3051 -0.2940 -0.1002
 4448W        W20922   7.743   6.603  12.726  0.0483 -0.1135  0.0727
 4449W        W20923  13.014   8.799   5.330 -0.2768  0.1328  0.0598
 4450W        W20924   4.427   3.209   3.457  0.4928  0.2953  0.0389
 4451W        W20925   7.109   5.845  14.991 -0.1368 -0.0053  0.2298
 4452W        W20926  12.858   8.518   2.371 -0.0148  0.1323  0.0683
 4453W        W20927  18.354  18.276   2.332  0.0097 -0.2751 -0.0434
 4454W        W20928  12.063   4.351   2.111  0.1919  0.0117 -0.0197
 4455W        W20929  10.204   6.577  12.668  0.2796 -0.1016 -0.1679
 4456W        W20930   6.147   1.298   1.143 -0.3232  0.1758 -0.5421
 4457W        W20931   8.693   4.601   1.964 -0.3414  0.1989 -0.0467
 4458W        W20932  16.976  18.422   1.940 -0.1603  0.1374 -0.0143
 4459W        W20933   7.711   2.582  13.155  0.2876  0.1213 -0.0137
 4460W        W20934  14.788  18.412   3.493  0.5597  0.0967 -0.2997
 4461W        W20935   4.422  12.701   4.708  0.0869  0.0198 -0.1965
 4462W        W20936   7.976   7.432  12.853  0.0060 -0.1666 -0.2084
 4463W        W20937   8.430   7.438  13.051 -0.2002 -0.0020  0.3020
 4464W        W20938   0.478   8.498  14.995 -0.2082  0.1251 -0.0168
 4465W        W20939  14.119  10.977   1.534  0.0488 -0.4104  0.1973
 4466W        W20940  10.805  12.878   5.237 -0.2128 -0.0448  0.0129
 4467W        W20941  17.494   0.881   4.279 -0.1819 -0.1765 -0.2725
 4468W        W20942  11.557   4.834  12.639 -0.0169 -0.3645 -0.0286
 4469W        W20943  17.289  11.546   4.904 -0.2378 -0.0062 -0.1749
 4470W        W20944   0.301   1.610   2.850 -0.0862 -0.0378 -0.0771
 4471W        W20945  18.335  14.572   1.236 -0.0188  0.2559  0.0879
 4472W        W20946  17.299   1.409  11.192  0.2284 -0.0385  0.2505
 4473W        W20947  14.515   0.089  14.507 -0.2539  0.2415 -0.0415
 4474W        W20948  15.646  12.362   5.262 -0.3738 -0.0015  0.2863
 4475W        W20949  13.176   4.966   0.416  0.2940  0.4796 -0.2673
 4476W        W20950  11.829   6.819   3.498  0.0021 -0.1810  0.4972
 4477W        W20951   8.906   2.500  11.716  0.1316  0.0989 -0.0467
 4478W        W20952   7.219   3.411   1.310 -0.0381  0.2213  0.1593
 4479W        W20953  13.095   6.223   1.261 -0.0911  0.2028 -0.1030
 4480W        W20954  15.018   4.817   4.273 -0.0583  0.0064 -0.1524
 4481W        W20955   7.606   5.347   2.122 -0.1147 -0.2315 -0.0877
 4482W        W20956   8.680   0.732  11.887 -0.0436 -0.0355  0.0691
 4483W        W20957  17.231  16.373   1.374  0.3452 -0.2137  0.0982
 4484W        W20958   8.831   8.325   1.365  0.3085  0.1949 -0.0614
 4485W        W20959  10.240  11.352   3.827 -0.1447 -0.3388 -0.0926
 4486W        W20960   2.978  16.895   2.833  0.0145 -0.1062  0.0251
 4487W        W20961  11.819   4.328  13.327  0.3299  0.0264 -0.1376
 4488W        W20962  17.706   8.311   1.410  0.2285 -0.2691 -0.0653
 4489W        W20963  14.506  11.993  13.741 -0.3087  0.0763  0.1131
 4490W        W20964   5.883   6.510  12.783 -0.1196 -0.1686 -0.1674
 4491W        W20965   7.357  10.383  14.866 -0.4880  0.1345 -0.1426
 4492W        W20966   1.861  12.424   4.198 -0.0236 -0.0936 -0.2158
 4493W        W20967   8.468  16.701   1.270  0.0499 -0.1857 -0.1401
 4494W        W20968   1.115   8.033   0.035  0.0586  0.2298 -0.1262
 4495W        W20969  12.256  17.227  14.195 -0.0349 -0.1468 -0.0394
 4496W        W20970  15.314  12.437  11.456 -0.2750  0.0102  0.0436
 4497W        W20971   7.216   9.030   3.170 -0.1150  0.1005  0.0175
 4498W        W20972  11.599  17.054  13.407  0.1011 -0.2167  0.4610
 4499W        W20973  12.746  18.192   0.693  0.0313  0.1273 -0.0444
 4500W        W20974   1.581   9.333   4.007 -0.0262 -0.1429  0.0947
 4501W        W20975   1.818   9.688  10.425 -0.1575 -0.2294  0.2759
 4502W        W20976  16.357   0.425  12.186  0.4587 -0.0906  0.1848
 4503W        W20977  10.640   3.669  11.688 -0.0326  0.0964  0.1014
 4504W        W20978   5.050   0.770  12.826  0.1682  0.2039  0.0442
 4505W        W20979   0.742   2.394  10.757  0.0987 -0.0945 -0.1883
 4506W        W20980  12.910   6.481   3.627 -0.1290  0.2417  0.0116
 4507W        W20981  14.671  15.412   4.613 -0.2406 -0.1600 -0.4971
 4508W        W20982  10.433  13.407  15.127 -0.2513 -0.1295  0.0841
 4509W        W20983  10.601   8.304   1.863  0.0467 -0.0412 -0.2976
 4510W        W20984  16.971   3.442  11.071  0.2241 -0.2943  0.2239
 4511W        W20985  13.827   1.034  12.147 -0.2031  0.2516  0.2678
 4512W        W20986  17.878   2.450   5.060  0.0704  0.0873  0.2416
 4513W        W20987   4.609   3.221   0.468 -0.0236 -0.2065 -0.2652
 4514W        W20988   0.350   6.542  10.748  0.1297  0.1282  0.0584
 4515W        W20989   6.320  18.226   4.179 -0.1432 -0.1112 -0.3023
 4516W        W20990  15.351  18.606   0.454  0.0970  0.1332 -0.2345
 4517W        W20991  17.023   8.987   4.584 -0.0326 -0.1575 -0.1921
 4518W        W20992   0.624  17.873   0.615 -0.0253  0.2666 -0.2857
 4519W        W20993  16.262   6.818  14.874 -0.1989  0.1040  0.1349
 4520W        W20994   1.133  17.395   1.885 -0.1431 -0.0561 -0.0237
 4521W        W20995  13.928   1.633  13.175 -0.2430  0.0220  0.1614
 4522W        W20996   8.306   4.936  11.372  0.2960 -0.1708 -0.0620
 4523W        W20997   0.307   2.234  15.218 -0.2359  0.0036 -0.0250
 4524W        W20998   9.089  16.384   3.913  0.0445  0.0630 -0.0300
 4525W        W20999  17.676   9.760  11.750  0.0049 -0.4300  0.1606
 4526W        W21000  18.543  17.778   4.822  0.0969 -0.0309 -0.0435
 4527W        W21001  11.912  11.021  11.809 -0.0187  0.4973  0.1134
 4528W        W21002  15.165   4.218  14.383 -0.0544  0.1676  0.1446
 4529W        W21003  10.467  10.811   2.406 -0.1563  0.1966  0.3008
 4530W        W21004  15.047   6.385  13.794 -0.1684 -0.0426 -0.1952
 4531W        W21005  15.850  14.428  14.512  0.2770  0.3262  0.1100
 4532W        W21006  16.799   8.490   4.470 -0.2139  0.0892 -0.0267
 4533W        W21007  16.173   7.434  15.255  0.1749  0.3645 -0.0275
 4534W        W21008   0.941  18.254   0.589 -0.2691 -0.0541 -0.0348
 4535W        W21009  13.282  10.447  11.581  0.0561  0.0792  0.3791
 4536W        W21010  11.719  13.159   2.534 -0.1557 -0.0005 -0.0341
 4537W        W21011  15.308  13.449   4.578  0.3166 -0.2058  0.0558
 4538W        W21012   7.863  15.983   5.506 -0.3704 -0.0753 -0.0134
 4539W        W21013  16.587   0.185  15.317  0.0348  0.3257 -0.3223
 4540W        W21014   5.713  16.530   2.525  0.0531 -0.0770  0.2494
 4541W        W21015   0.761   6.015  10.373  0.3291 -0.3293  0.2150
 4542W        W21016   5.627   8.663   1.735 -0.0603  0.3546 -0.1962
 4543W        W21017  13.442   7.338  12.149 -0.1776  0.1802 -0.0425
 4544W        W21018  10.589   9.008   5.103  0.0503  0.0798 -0.1945
 4545W        W21019   8.092   8.215  14.673 -0.0654 -0.1144  0.1344
 4546W        W21020   4.953  17.734   1.115  0.1594 -0.3472  0.0735
 4547W        W21021  14.804   6.481  12.456 -0.0847  0.1335  0.1135
 4548W        W21022   6.412  15.904   2.736  0.1333  0.0658  0.2111
 4549W        W21023   1.854   6.250  13.001 -0.1092 -0.1185  0.0660
 4550W        W21024   2.030  13.612   0.722  0.0193 -0.0328  0.0796
 4551W        W21025   3.028  16.919   4.867  0.0167  0.0366 -0.0443
 4552W        W21026   5.174   4.751   0.027  0.0480  0.3262 -0.0925
 4553W        W21027  11.624   8.415  13.006 -0.5536  0.1079 -0.1120
 4554W        W21028  11.783  15.771   5.463 -0.1251 -0.3273  0.1025
 4555W        W21029  16.840  13.667  11.416 -0.0686 -0.1269  0.2545
 4556W        W21030   8.496   8.653   0.807  0.0802  0.0339 -0.0352
 4557W        W21031   4.425   7.136  15.392  0.0871  0.0511 -0.2156
 4558W        W21032   3.034   2.539  11.601  0.0648  0.0554  0.1768
 4559W        W21033  15.386  13.159  15.383 -0.0621 -0.3342 -0.0508
 4560W        W21034   3.109  15.669  10.782 -0.1207  0.0355  0.2593
 4561W        W21035  12.213   4.467  13.075  0.1651 -0.0430 -0.1774
 4562W        W21036  10.019   9.747  13.746 -0.0783  0.2099  0.2204
 4563W        W21037   4.006   2.667   3.926  0.1063  0.1685 -0.2180
 4564W        W21038   6.421   4.817  15.571 -0.2923  0.0388  0.0921
 4565W        W21039   7.956   1.773   5.287 -0.0441  0.1965  0.0696
 4566W        W21040  15.747   9.146   4.343  0.4815  0.0759 -0.1410
 4567W        W21041   5.187   4.045   0.771 -0.0262 -0.2217 -0.1567
 4568W        W21042  12.933  11.776  14.002  0.0211  0.0003  0.2562
 4569W        W21043  16.049  13.646  11.580 -0.0641 -0.0815  0.2628
 4570W        W21044  11.030   2.940   1.596 -0.0165 -0.0692  0.0550
 4571W        W21045  10.946  18.078   1.421 -0.0962 -0.3727 -0.0977
 4572W        W21046   3.201  10.290  13.220  0.2043  0.2036 -0.2201
 4573W        W21047   0.384   9.238   2.859 -0.0619  0.1601  0.2361
 4574W        W21048   2.529  17.199  15.274  0.0931 -0.0568  0.2268
 4575W        W21049   5.864   2.307  12.251 -0.1730 -0.1721  0.0810
 4576W        W21050  10.412  10.163  12.107  0.1022 -0.6450  0.3489
 4577W        W21051  14.174   0.063  11.786  0.3656  0.0159  0.2698
 4578W        W21052   0.433   3.696  12.865 -0.3443  0.0609 -0.3704
 4579W        W21053  14.253  11.560  13.729  0.3233  0.2728 -0.2405
 4580W        W21054  16.231  12.296  12.175 -0.2261  0.0592 -0.2507
 4581W        W21055   8.330   9.611   2.208 -0.0183 -0.0353  0.2356
 4582W        W21056  13.856  17.879   3.296 -0.1397 -0.2716 -0.0938
 4583W        W21057  17.868  14.174   0.282 -0.0830  0.1477  0.1559
 4584W        W21058  10.259   3.763  12.607  0.1763  0.1464  0.1573
 4585W        W21059  16.011  17.572   3.060  0.2185  0.0718 -0.3625
 4586W        W21060   9.661  16.373   2.018  0.2277  0.2456  0.0631
 4587W        W21061  11.268  17.300   0.882 -0.1373  0.4056 -0.0901
 4588W        W21062   6.485  10.810   1.628 -0.1494  0.2519 -0.0728
 4589W        W21063  17.421  14.145  13.606  0.1380 -0.1451  0.0919
 4590W        W21064  17.704   0.531   3.040 -0.0211 -0.0265  0.0217
 4591W        W21065   7.754   6.701   5.547 -0.2311  0.1701  0.0399
 4592W        W21066   7.800  12.303   3.796  0.0221  0.0614  0.1535
 4593W        W21067  17.871   2.896   0.754 -0.1123 -0.2232 -0.1510
 4594W        W21068  16.723  16.371   3.079  0.1390 -0.0264  0.0345
 4595W        W21069  13.211   2.174   4.287 -0.1585  0.2250 -0.0619
 4596W        W21070   8.973  14.965   4.772 -0.0966  0.1026 -0.1333
 4597W        W21071  10.882  12.025  15.562  0.1832  0.2579 -0.1951
 4598W        W21072  12.918   1.373   2.589  0.2802  0.0216  0.2355
 4599W        W21073   9.227   1.712   2.079  0.0486 -0.1249  0.0493
 4600W        W21074  14.443   9.632   5.373  0.2869 -0.1021  0.0703
 4601W        W21075  11.520   2.414   2.882  0.0592 -0.4143 -0.1667
 4602W        W21076  12.726   3.163   9.726 -0.1521  0.2927  0.4518
 4603W        W21077   4.839   0.268   3.276  0.0157  0.2268 -0.1495
 4604W        W21078  17.209   6.054  15.452  0.0115  0.2664 -0.0978
 4605W        W21079   0.642  17.970  14.525 -0.3274 -0.3284 -0.0467
 4606W        W21080  10.625   7.511   5.814 -0.0689  0.2309  0.2588
 4607W        W21081  17.808   1.613   1.793  0.1152 -0.0948 -0.1288
 4608W        W21082   8.183   1.022  12.648  0.0913  0.2023  0.0635
 4609W        W21083   1.293   6.201  10.510 -0.0865 -0.1249 -0.3550
 4610W        W21084   2.877  13.258   2.385 -0.1745 -0.0788 -0.2302
 4611W        W21085  13.304  15.127   1.092 -0.1418 -0.1458  0.2212
 4612W        W21086  16.099   2.608  14.585  0.0669  0.0729 -0.3724
 4613W        W21087  12.805  11.914   5.164 -0.1251  0.2765 -0.0363
 4614W        W21088  15.764  10.187   2.585 -0.0797  0.2383 -0.2380
 4615W        W21089  17.552  16.469   3.837 -0.4109 -0.1506  0.2997
 4616W        W21090   2.006  18.041   2.789  0.1738  0.0557 -0.0803
 4617W        W21091   3.821  14.123  12.568 -0.2456 -0.0470 -0.2632
 4618W        W21092  12.971   1.472  10.211 -0.0914  0.0445  0.0871
 4619W        W21093  10.597   2.363   0.897 -0.0664  0.0162 -0.1602
 4620W        W21094  12.437   1.303  12.225 -0.2293 -0.3943  0.1979
 4621W        W21095   0.530   0.467  15.233 -0.1355 -0.1687 -0.0763
 4622W        W21096  12.148  10.165  12.162 -0.1738 -0.1131  0.3506
 4623W        W21097   2.652   8.326  11.951  0.0114  0.0772  0.0441
 4624W        W21098  18.654  11.845   1.682 -0.0861  0.0912 -0.0168
 4625W        W21099   0.012   3.626  14.899 -0.0611 -0.1890  0.1014
 4626W        W21100   8.187   3.648  10.363  0.1849 -0.1204  0.0879
 4627W        W21101   9.732   3.774  12.545  0.6435  0.0442  0.0956
 4628W        W21102   0.845  15.938   4.173  0.0223 -0.0427 -0.2912
 4629W        W21103   7.854   2.569  10.841  0.2000  0.0099  0.2030
 4630W        W21104  10.365   3.843   4.911 -0.0780  0.1608  0.1939
 4631W        W21105   8.323   2.966   5.496 -0.0149  0.2342  0.0630
 4632W        W21106  12.800  18.491  14.479  0.3786 -0.3674  0.1959
 4633W        W21107   9.688   5.486   3.654 -0.0581  0.2689  0.1107
 4634W        W21108  13.048   5.321  11.740  0.1151 -0.2306  0.0419
 4635W        W21109   3.672   4.535  10.394 -0.1414 -0.2675 -0.1341
 4636W        W21110   2.978  17.991   0.153  0.0641  0.2052 -0.0103
 4637W        W21111   4.402  13.336  10.433 -0.3227 -0.1020  0.1984
 4638W        W21112  13.471  12.966   1.098 -0.0330  0.3416 -0.1355
 4639W        W21113   2.757  16.492   2.492  0.1298  0.2895 -0.0727
 4640W        W21114   4.760  18.589  14.346 -0.1380  0.0078  0.1427
 4641W        W21115   0.096  10.688   1.491  0.1173 -0.1063  0.0134
 4642W        W21116  14.284   8.007   1.385  0.1196 -0.2599  0.0033
 4643W        W21117  12.272   7.670   0.569  0.1690 -0.0900  0.0389
 4644W        W21118  17.032  10.885  12.367  0.0887  0.1060  0.1462
 4645W        W21119  10.957   9.899   3.074  0.2406  0.3519 -0.1364
 4646W        W21120  11.199  10.005  13.738  0.0135 -0.1821  0.0697
 4647W        W21121   3.291   8.775   1.153 -0.1882  0.1864  0.0551
 4648W        W21122   4.366  15.309  12.640  0.1101  0.0932  0.2156
 4649W        W21123  10.523   5.165   5.293  0.1056 -0.0100 -0.1156
 4650W        W21124  12.691   9.462  13.218 -0.1703 -0.0396  0.0341
 4651W        W21125   2.842   2.707   3.292 -0.0595 -0.1667 -0.1561
 4652W        W21126   7.980   1.511  13.969  0.0037  0.4103 -0.0863
 4653W        W21127  15.718   6.620   2.737 -0.0536 -0.1737  0.0380
 4654W        W21128   0.520   3.076   1.880 -0.3088 -0.0775 -0.1178
 4655W        W21129   2.071  16.052  14.190  0.0074 -0.0166 -0.0415
 4656W        W21130   8.092   5.881   3.649  0.2154 -0.0049 -0.1560
 4657W        W21131   0.899   4.872  11.298 -0.1537 -0.2593  0.3316
 4658W        W21132   1.776  17.767  14.816  0.0685  0.3304  0.1853
 4659W        W21133   3.251  14.020  12.785 -0.0599 -0.3145 -0.0544
 4660W        W21134   1.877   1.872  10.301 -0.0570  0.0914  0.0214
 4661W        W21135   8.342  14.657  14.421 -0.1017  0.0401 -0.0673
 4662W        W21136   7.517   3.058   0.269  0.1463 -0.0252  0.3422
 4663W        W21137   5.895  18.095  11.817 -0.0592  0.0380 -0.0855
 4664W        W21138  15.761  10.983  14.810 -0.0971  0.2308 -0.3429
 4665W        W21139  11.756  18.002  13.961  0.0006 -0.1275  0.0585
 4666W        W21140  10.549  17.253  12.269  0.2299 -0.1939  0.2498
 4667W        W21141  16.034   2.661  12.305  0.0744  0.0480  0.1416
 4668W        W21142   0.148   8.502  11.626  0.1175  0.2673 -0.1864
 4669W        W21143  13.659   6.739  15.558 -0.1925 -0.0666  0.2549
 4670W        W21144   6.550  16.919   0.310 -0.0982  0.2892 -0.0806
 4671W        W21145   6.780   2.454   0.880 -0.2618 -0.0599 -0.1348
 4672W        W21146   6.937   2.784  12.709 -0.1531 -0.1054 -0.0669
 4673W        W21147  12.853  16.145   2.068  0.1437  0.0537 -0.1694
 4674W        W21148  13.947  14.381   5.681  0.1772  0.2026  0.2532
 4675W        W21149  18.635  13.821   0.846 -0.0330 -0.1078 -0.1151
 4676W        W21150   5.054   0.512   2.263 -0.1202  0.1542  0.1230
 4677W        W21151  10.907   9.723  13.220  0.0007  0.0499 -0.1726
 4678W        W21152  17.138  14.499  14.771 -0.0664  0.1316  0.1266
 4679W        W21153  16.416  18.653  14.976 -0.0123 -0.0784 -0.3651
 4680W        W21154  17.306  14.530  13.920 -0.2314 -0.2967  0.0793
 4681W        W21155   0.997  10.226  15.343 -0.2817 -0.0251  0.0441
 4682W        W21156  17.601   1.363   2.597  0.2958  0.0460 -0.3227
 4683W        W21157  14.663  15.330   2.966 -0.1491 -0.0442  0.1959
 4684W        W21158  17.453  15.088   3.260 -0.1725  0.4047  0.2528
 4685W        W21159  13.249  11.014  11.427  0.0032  0.0227  0.2276
 4686W        W21160  12.845  10.701  11.518  0.2622 -0.0206  0.2162
 4687W        W21161   7.466  14.823   0.385  0.0419  0.0579  0.0793
 4688W        W21162   5.663   1.601  14.212  0.1230 -0.0278  0.3052
 4689W        W21163  17.313   5.881  13.700 -0.2855  0.1681 -0.0750
 4690W        W21164  13.712   9.337   1.197 -0.4313 -0.4471  0.2404
 4691W        W21165  10.759  13.101  13.573  0.2804 -0.0903 -0.2798
 4692W        W21166  15.668  10.317  13.443  0.0901 -0.1055 -0.1251
 4693W        W21167  13.348   0.800   1.462 -0.2349 -0.2016 -0.0935
 4694W        W21168  13.189   8.339   0.436  0.2403  0.0715  0.1525
 4695W        W21169   1.608   4.643   2.732 -0.0839  0.1666  0.2621
 4696W        W21170  15.617  11.317   2.849  0.0598  0.2011  0.0095
 4697W        W21171   9.759  11.456   2.433  0.0041  0.1400 -0.2774
 4698W        W21172   6.324   8.494  12.210 -0.0888  0.0092 -0.1361
 4699W        W21173  16.894  15.416   2.087  0.2780  0.2203 -0.0418
 4700W        W21174  17.440  12.426  15.574 -0.0189 -0.0890 -0.1130
 4701W        W21175   5.167   4.515   1.797  0.1171  0.1584  0.2963
 4702W        W21176   0.390  10.645  13.756 -0.0205  0.1910 -0.1700
 4703W        W21177  11.123   3.499   4.150 -0.0102  0.2571 -0.0873
 4704W        W21178   6.629   5.865  12.389  0.0762 -0.1303 -0.0694
 4705W        W21179  18.400  11.381   1.612  0.1636 -0.1508 -0.0295
 4706W        W21180   9.471  13.973   3.154  0.1575  0.4861 -0.3431
 4707W        W21181  10.996  12.536   5.721 -0.0784  0.1400  0.0745
 4708W        W21182  17.925   0.587  14.791 -0.1603  0.1319  0.0612
 4709W        W21183   2.965  10.792   1.387  0.1315  0.0395  0.1056
 4710W        W21184   0.811   5.382  14.948 -0.0110  0.1951 -0.0749
 4711W        W21185   2.111  14.135  11.192  0.2067 -0.2486 -0.1511
 4712W        W21186  18.082  17.015  15.117 -0.0183  0.1225  0.2252
 4713W        W21187   3.138   2.367   0.787 -0.1141  0.0548  0.1079
 4714W        W21188  17.942   8.367  15.321  0.0611 -0.1010 -0.0437
 4715W        W21189   5.246  17.504   2.011  0.0186  0.0737 -0.2715
 4716W        W21190  16.628   5.559   4.602  0.4111  0.0426  0.2864
 4717W        W21191  12.272   0.915  13.571 -0.1926  0.0237 -0.0054
 4718W        W21192  14.433  12.573   3.732 -0.0427  0.1040 -0.1842
 4719W        W21193   2.970   7.537  12.221  0.0577 -0.0402 -0.2850
 4720W        W21194  12.352   5.412   0.466  0.2470 -0.3151 -0.0869
 4721W        W21195  11.075   5.659  14.233  0.0523  0.0892 -0.1935
 4722W        W21196  10.676   7.469   0.049  0.3523  0.2977  0.1157
 4723W        W21197  12.156   9.281   3.409 -0.3289 -0.2076  0.1366
 4724W        W21198   1.660   8.136   0.002 -0.1757 -0.0362 -0.1081
 4725W        W21199  11.324   2.750   0.403  0.3449 -0.1116  0.0707
 4726W        W21200  12.539  16.143   5.959  0.0455  0.5724 -0.2673
 4727W        W21201  10.323  15.725  11.528 -0.1004  0.0463 -0.1308
 4728W        W21202  16.305   6.692   3.677  0.0528 -0.1201  0.1143
 4729W        W21203  14.709   6.542  14.580  0.0021 -0.1065  0.0980
 4730W        W21204  17.858   3.070  15.371 -0.3777  0.1787  0.0583
 4731W        W21205   7.138  17.724  14.314  0.3736 -0.1348 -0.1093
 4732W        W21206  16.524   4.479  12.590  0.1764  0.0100  0.0381
 4733W        W21207  12.706   0.942   3.697 -0.2067  0.0902  0.0078
 4734W        W21208  13.525   0.783   2.893  0.2343 -0.2182  0.1235
 4735W        W21209   1.028  16.664   0.050 -0.3097  0.1103 -0.2898
 4736W        W21210   0.847  16.709  14.070 -0.0802  0.0326  0.2613
 4737W        W21211  13.647  12.012  14.427  0.1616 -0.1231 -0.0598
 4738W        W21212   5.475   1.717   0.120 -0.0046  0.1506  0.0119
 4739W        W21213   4.289  16.881   4.253 -0.0225 -0.1911 -0.1271
 4740W        W21214   4.610  18.407  12.786 -0.2318  0.2232  0.0081
 4741W        W21215   6.974   7.820   3.734 -0.0257  0.5095 -0.1512
 4742W        W21216  18.535   6.015   5.462 -0.1442  0.1978  0.0742
 4743W        W21217  10.867  16.870  15.127 -0.4473  0.1345 -0.0966
 4744W        W21218   2.649   6.498  12.615 -0.0718  0.3546  0.2122
 4745W        W21219  15.469  17.244   1.657  0.1022  0.1027  0.3385
 4746W        W21220   1.908  18.245   0.183 -0.1110 -0.1459  0.0856
 4747W        W21221   4.799  16.295  11.201 -0.2265 -0.1243 -0.0388
 4748W        W21222   9.739   9.343   4.701 -0.0275 -0.3176  0.1095
 4749W        W21223  16.354   5.198  11.408  0.1222 -0.0650 -0.3204
 4750W        W21224  14.835   1.310   4.179  0.1050 -0.3242 -0.2393
 4751W        W21225  13.635   0.284  15.505  0.1882 -0.1711  0.0888
 4752W        W21226   5.848  15.171   9.711  0.0907  0.1452 -0.2104
 4753W        W21227  10.929   3.327   2.266  0.1233 -0.1485  0.1359
 4754W        W21228  12.735   5.471  14.109 -0.3306 -0.1293 -0.0429
 4755W        W21229   3.418  12.799   0.540 -0.0351 -0.1009  0.1166
 4756W        W21230  14.999   4.052   4.027 -0.0292 -0.2537 -0.0733
 4757W        W21231   3.089  14.366  12.444 -0.0446  0.1246 -0.1323
 4758W        W21232  14.576  18.227   2.707  0.1317 -0.1194  0.1762
 4759W        W21233  14.143   1.357   2.765  0.2017  0.2759 -0.2350
 4760W        W21234   8.422   9.632   4.505  0.0459  0.2697 -0.1397
 4761W        W21235  16.831  13.748  14.528  0.0218  0.1896 -0.3128
 4762W        W21236  13.543  15.019  13.897 -0.0019  0.0843 -0.0837
 4763W        W21237   0.716   4.756   2.202  0.2081  0.0951  0.0254
 4764W        W21238  18.537  16.520  12.855  0.0517 -0.1790 -0.1293
 4765W        W21239  12.511   0.505   3.286  0.0351  0.2700  0.3229
 4766W        W21240   0.803  17.578   0.993 -0.0781 -0.0137 -0.5118
 4767W        W21241  17.888  16.340   1.838 -0.1302 -0.1568 -0.0722
 4768W        W21242  13.051  10.028   4.201 -0.0543 -0.1268  0.0007
 4769W        W21243   3.541  14.614  14.799 -0.0163  0.2636  0.0135
 4770W        W21244   5.363   9.443   0.581  0.3487 -0.2896 -0.0708
 4771W        W21245  12.028  13.038  11.740 -0.2825  0.0228 -0.1761
 4772W        W21246   5.428  11.567   0.110 -0.1400 -0.2525  0.0272
 4773W        W21247  15.432   9.046  14.181  0.1695 -0.0848  0.3023
 4774W        W21248   7.318  14.707  13.549  0.2947 -0.0018  0.0103
 4775W        W21249  14.881  14.779  11.108  0.0076  0.0678 -0.2203
 4776W        W21250   5.389  11.831   4.779  0.2714  0.0268  0.1110
 4777W        W21251  12.342  17.492   2.432 -0.2052 -0.3242  0.4324
 4778W        W21252   9.577  12.612  12.818  0.1093  0.0040  0.2456
 4779W        W21253   3.722   8.475   1.301  0.1981 -0.0849 -0.2152
 4780W        W21254  14.495   4.235   2.149  0.0498  0.0219 -0.1766
 4781W        W21255   8.233  10.907  13.537  0.3030  0.0190 -0.0258
 4782W        W21256   0.865  17.869   3.018 -0.1607 -0.4649  0.1466
 4783W        W21257  11.450  14.813  11.415  0.0292 -0.2642  0.0345
 4784W        W21258   0.094   0.297   0.139 -0.0909 -0.0072  0.0863
 4785W        W21259   7.200   0.543  12.991 -0.3627  0.0621  0.4309
 4786W        W21260   4.162  15.619  13.121  0.1558 -0.2314  0.0413
 4787W        W21261  16.061  16.826   1.296 -0.1735 -0.1031 -0.1799
 4788W        W21262   6.315  12.017   3.695 -0.1158  0.1233 -0.0742
 4789W        W21263   8.602  15.713   2.716 -0.1178 -0.3915 -0.0393
 4790W        W21264  12.319  12.337  12.910 -0.0225 -0.3344 -0.0040
 4791W        W21265   0.785  14.370  13.945 -0.5551 -0.2029 -0.2333
 4792W        W21266   0.300   5.207   5.396  0.0282 -0.0961  0.2726
 4793W        W21267  12.255   6.366  15.527  0.1247 -0.1593 -0.0784
 4794W        W21268  18.414  12.165   1.263 -0.2114  0.1167 -0.4154
 4795W        W21269   7.123  12.805  12.537  0.1301  0.0285 -0.0967
 4796W        W21270   7.817  14.241  11.386 -0.3126  0.0806 -0.2934
 4797W        W21271  14.933   1.945   3.532  0.2460 -0.0826 -0.1226
 4798W        W21272   5.311   0.284  15.570 -0.1329 -0.2168 -0.1483
 4799W        W21273  18.756  14.356   0.062  0.0813 -0.1774  0.0760
 4800W        W21274   3.861  17.759  13.161 -0.0660  0.0887  0.0366
 4801W        W21275  18.290  18.499   4.369 -0.0518  0.0380  0.0166
 4802W        W21276  16.168   2.475  14.012 -0.2227  0.0052 -0.0772
 4803W        W21277   8.998   6.462   3.893  0.1080 -0.1311  0.4928
 4804W        W21278  15.676   7.305   5.280 -0.2312  0.1515  0.1178
 4805W        W21279  11.346  15.437   5.049  0.0855  0.0470  0.1214
 4806W        W21280   5.362  11.503   5.127 -0.1312  0.0330  0.3349
 4807W        W21281  18.039   0.085  11.923  0.0958 -0.0805  0.1108
 4808W        W21282  11.498  12.022   2.279 -0.0225  0.0937 -0.2232
 4809W        W21283  14.210  14.264   0.532 -0.0345  0.0732 -0.3487
 4810W        W21284   0.883  13.244  13.406  0.2569  0.1220  0.3197
 4811W        W21285   4.549   7.268   2.776  0.0656 -0.0783 -0.0012
 4812W        W21286   2.184   5.054   4.188  0.0843  0.0807 -0.2690
 4813W        W21287   3.038  11.999  14.082  0.0216  0.0495 -0.1827
 4814W        W21288   5.190  18.349  14.391 -0.2157 -0.3928  0.0618
 4815W        W21289  18.788   3.541  13.483 -0.3628  0.1582 -0.0019
 4816W        W21290   4.475   1.132  11.695  0.0236 -0.1645  0.0275
 4817W        W21291   8.044  17.734   5.351 -0.0897 -0.0274 -0.0263
 4818W        W21292  14.163  10.304  13.622 -0.0170  0.6089 -0.0363
 4819W        W21293  14.714  12.648  11.765 -0.0099  0.0217  0.0138
 4820W        W21294  14.857   0.889   5.175  0.0499  0.1572  0.1586
 4821W        W21295   5.776  15.467  14.353 -0.0458  0.1486  0.0689
 4822W        W21296  12.690  12.743  14.626 -0.1058 -0.0706  0.1177
 4823W        W21297   7.238   1.212  12.057  0.1247  0.1401 -0.3169
 4824W        W21298   1.997   4.551   5.320 -0.2970  0.1030 -0.3449
 4825W        W21299  15.342   3.892  11.805  0.1461  0.0488  0.1268
 4826W        W21300   6.027   0.701   4.842  0.0199 -0.1815 -0.4103
 4827W        W21301  11.208   1.726  14.388  0.0223  0.2607  0.0919
 4828W        W21302  13.802  15.630  12.376  0.4131 -0.2157 -0.0061
 4829W        W21303   3.485   9.127  13.302 -0.0445  0.1534 -0.0358
 4830W        W21304  17.438  18.480   2.986 -0.2991  0.1355 -0.1978
 4831W        W21305   5.857  13.196   2.662 -0.1343 -0.0217 -0.3452
 4832W        W21306   4.772   0.194  14.770 -0.1968  0.0939 -0.1710
 4833W        W21307  13.673   1.552   1.094  0.0769 -0.1987  0.0836
 4834W        W21308   4.752   0.166   4.669  0.2063 -0.0387  0.1112
 4835W        W21309   5.068   6.172  14.672  0.2027  0.2165  0.2160
 4836W        W21310  18.089  16.748  12.603 -0.4155  0.3592  0.4472
 4837W        W21311   8.663   2.315  12.867  0.1760  0.4478  0.0567
 4838W        W21312   9.795  11.577   3.164 -0.0939 -0.0825  0.0007
 4839W        W21313  15.342  14.078   5.774 -0.0044 -0.0819 -0.0130
 4840W        W21314   1.295   1.460   3.384 -0.1365 -0.1501 -0.0720
 4841W        W21315   0.434  17.921   2.656  0.2729  0.0460  0.0572
 4842W        W21316   9.713   1.845  12.599  0.0602 -0.0010  0.1504
 4843W        W21317  10.752  12.327   2.721 -0.1983 -0.0197  0.0568
 4844W        W21318   3.338   6.371   4.530 -0.2019  0.1811 -0.2245
 4845W        W21319   4.977   4.217   4.195 -0.2079 -0.1723  0.1626
 4846W        W21320   6.849   4.145  13.917 -0.1652  0.0814  0.1870
 4847W        W21321  13.360  12.362  13.334  0.1619 -0.0138 -0.1211
 4848W        W21322   9.485  12.177   3.820  0.0023  0.1891  0.2017
 4849W        W21323  12.734   1.247   3.249 -0.1790  0.1574  0.0905
 4850W        W21324   7.687   1.079  11.838 -0.0812 -0.1944 -0.2764
 4851W        W21325   7.109  10.404   3.473  0.3312 -0.0056 -0.1100
 4852W        W21326  13.463  12.274  11.225  0.2867 -0.0919  0.0007
 4853W        W21327   9.067  16.374  15.512  0.4517  0.0087  0.2153
 4854W        W21328  12.399  17.361   2.949 -0.2542 -0.1220  0.0088
 4855W        W21329  12.699  11.201   0.928 -0.1164 -0.1163  0.3177
 4856W        W21330  14.162  18.386  11.642 -0.2121 -0.0758  0.0342
 4857W        W21331   3.680  17.837  12.554 -0.0436 -0.0700 -0.2173
 4858W        W21332  15.718   5.228   2.427  0.1378  0.2709 -0.1610
 4859W        W21333   1.652  13.912  14.337 -0.1275  0.2573 -0.1473
 4860W        W21334   0.494   9.654  13.184 -0.2211 -0.2114 -0.0546
 4861W        W21335   0.405   9.893   3.413 -0.1054 -0.0785  0.1996
 4862W        W21336  14.688   9.028  10.977 -0.2427  0.3964 -0.2417
 4863W        W21337  16.773   2.690  10.562  0.1987  0.2030  0.2489
 4864W        W21338  17.900   3.700   4.556  0.0866 -0.1060  0.2052
 4865W        W21339  18.357   0.376   3.641  0.0376  0.1380  0.0782
 4866W        W21340  16.792   2.916   5.113  0.0230  0.0560  0.0432
 4867W        W21341   5.090   2.781  11.396  0.0918  0.0385 -0.2415
 4868W        W21342   8.356   2.514   0.185 -0.0090 -0.2598 -0.1575
 4869W        W21343  15.767   4.310   1.453 -0.3795 -0.1030 -0.1172
 4870W        W21344   1.776  13.373   3.709 -0.0398 -0.1060  0.2378
 4871W        W21345   3.778   1.150  10.945  0.1843  0.1277  0.1728
 4872W        W21346   6.732  14.056   4.196 -0.2594 -0.1994  0.0993
 4873W        W21347   6.451  12.931  14.423  0.0229 -0.0620  0.0041
 4874W        W21348  11.606   2.942  14.317 -0.0695 -0.3908 -0.1776
 4875W        W21349  16.679  11.907  13.362 -0.0665 -0.1395 -0.1162
 4876W        W21350   1.914  16.818   3.270 -0.1009 -0.0308  0.3491
 4877W        W21351   6.754  18.472   4.085  0.3398  0.3439 -0.1983
 4878W        W21352   4.990   1.403  11.700 -0.0476  0.0983  0.2521
 4879W        W21353  18.373   3.300   3.127  0.1690  0.3099 -0.0872
 4880W        W21354   3.569   5.694  11.356 -0.2636 -0.5431  0.0345
 4881W        W21355   9.406  15.407  15.111 -0.0837 -0.1352  0.1904
 4882W        W21356   0.143  13.654  12.764  0.0029 -0.1624 -0.0270
 4883W        W21357  16.227  15.189  12.610  0.1951 -0.3202  0.2227
 4884W        W21358  14.073   2.454   3.241  0.0089 -0.0766 -0.1619
 4885W        W21359   4.722   7.941   0.248  0.0183  0.0518 -0.0497
 4886W        W21360   4.968  17.064   2.751  0.0358 -0.0873  0.0266
 4887W        W21361  13.959  12.744   3.875 -0.0897 -0.1943  0.1453
 4888W        W21362  12.589   1.584   0.859 -0.2241 -0.2235 -0.1093
 4889W        W21363  12.475  13.285   2.896  0.1727 -0.3483  0.0722
 4890W        W21364  17.572   3.526  14.172  0.1444 -0.1809 -0.1013
 4891W        W21365   6.536   3.490   3.869 -0.3261  0.0816  0.1678
 4892W        W21366   6.718  10.595   3.735 -0.1519 -0.1017  0.0135
 4893W        W21367  15.595   7.885  13.225 -0.0842 -0.1739 -0.1445
 4894W        W21368  16.367  15.637   0.286  0.0712  0.1357 -0.0722
 4895W        W21369   9.908   1.690   2.912 -0.4811  0.2714 -0.2754
 4896W        W21370  16.101   9.107   3.930  0.2499 -0.1248  0.0629
 4897W        W21371   3.263  12.030   2.045  0.2711 -0.1202 -0.2325
 4898W        W21372   4.828   0.645  14.537 -0.3699  0.2520  0.0697
 4899W        W21373  16.262   8.582  12.568 -0.0065  0.1989 -0.0100
 4900W        W21374   8.482  11.819  14.126 -0.1614  0.1818 -0.1037
 4901W        W21375  13.732   6.975   2.894  0.5015 -0.0342 -0.1556
 4902W        W21376  11.261   2.513  10.490  0.1481  0.1679  0.0017
 4903W        W21377   8.509   0.759   1.193  0.1377 -0.2204 -0.3759
 4904W        W21378   3.418  11.526  12.879 -0.2152 -0.2000 -0.0638
 4905W        W21379   6.054   4.123   4.575 -0.0452 -0.0750  0.5764
 4906W        W21380   9.496   5.136   3.332  0.0761  0.2813  0.3420
 4907W        W21381  17.774  17.468   3.185  0.0799  0.0521  0.1082
 4908W        W21382   7.171   7.867  15.284 -0.2412  0.2107  0.0033
 4909W        W21383   6.482  11.200  14.300  0.1265 -0.1822 -0.2468
 4910W        W21384   7.991   3.904   2.208 -0.1421 -0.0736 -0.2765
 4911W        W21385   6.529   2.882   4.859 -0.2146  0.4040  0.0287
 4912W        W21386   7.613   3.509  11.051  0.0559  0.3573  0.0525
 4913W        W21387   9.659  13.375   4.178  0.1194 -0.1294  0.1321
 4914W        W21388   1.774  18.433   2.987 -0.3340 -0.3533  0.3956
 4915W        W21389   9.460  16.083   5.025  0.0492 -0.0657  0.1892
 4916W        W21390   5.065   8.919   1.197  0.1551 -0.3129 -0.0708
 4917W        W21391  13.455  11.193  14.428  0.0409 -0.1506 -0.0226
 4918W        W21392  14.165  10.250   3.345  0.3232 -0.4254  0.1766
 4919W        W21393  14.626   2.670  13.609 -0.0516 -0.2827 -0.0267
 4920W        W21394  15.224   9.658   0.171  0.0753 -0.0898 -0.2489
 4921W        W21395  18.369  16.275   3.811  0.0896  0.3191 -0.0186
 4922W        W21396   1.151  12.233  10.605 -0.1183 -0.2748  0.0842
 4923W        W21397  10.194   0.140   3.274 -0.1811 -0.0838 -0.1351
 4924W        W21398   7.569  18.721  11.811 -0.0020  0.2039  0.2807
 4925W        W21399   4.170   9.170  10.993  0.0002 -0.0904 -0.0720
 4926W        W21400  10.033   7.274  10.978  0.1837 -0.3464  0.3339
 4927W        W21401   1.886   5.401  14.053 -0.0914  0.0801  0.4292
 4928W        W21402   2.635   1.473   1.091  0.1612  0.0539  0.4261
 4929W        W21403   2.883  13.759  10.587  0.1594  0.1396 -0.2449
 4930W        W21404   7.538  18.586  14.625 -0.2912 -0.4729  0.3712
 4931W        W21405   0.028   3.020  13.391  0.3220  0.1700 -0.1828
 4932W        W21406  15.401   4.355  13.593 -0.0261  0.3549 -0.2463
 4933W        W21407  16.171  12.857   1.835  0.6035  0.2115 -0.0298
 4934W        W21408   7.479   9.504  12.560  0.1889 -0.0208 -0.4215
 4935W        W21409   5.895  14.470   0.033  0.1041  0.1936 -0.0672
 4936W        W21410  15.249   9.612  10.889  0.0790 -0.1871  0.3675
 4937W        W21411   9.501   9.576  14.133 -0.2229  0.1330  0.1892
 4938W        W21412   8.252   7.523   1.859 -0.0131  0.4501 -0.1225
 4939W        W21413   2.293   9.119  14.228 -0.0823  0.1414 -0.0240
 4940W        W21414  17.709   9.497  13.212 -0.2181  0.1214 -0.0437
 4941W        W21415   4.521   7.104   3.796  0.2552  0.0472  0.0263
 4942W        W21416   3.810   4.311   0.088  0.2778  0.1058  0.2528
 4943W        W21417  11.611   7.433  14.708 -0.1706  0.0661  0.0445
 4944W        W21418  18.140   5.638   1.027 -0.0525  0.1897  0.0286
 4945W        W21419  15.205   3.823   2.354 -0.3943 -0.0527 -0.0751
 4946W        W21420   9.146   2.864   3.678  0.1533  0.1792 -0.2398
 4947W        W21421   6.551   0.176   1.958 -0.0104  0.1395  0.0362
 4948W        W21422   3.355  17.779  10.975 -0.0797 -0.2621 -0.2047
 4949W        W21423   0.859  17.146   2.165 -0.0663  0.0135  0.0242
 4950W        W21424   8.804   0.693   0.274  0.0038 -0.1873  0.3802
 4951W        W21425  12.387  10.379  11.717 -0.1283  0.0871 -0.0255
 4952W        W21426  15.843   0.069  13.943 -0.3037  0.2628  0.0693
 4953W        W21427  14.253  15.663   6.169 -0.1966 -0.0312  0.0544
 4954W        W21428   7.218   0.701   0.228 -0.0949 -0.0389  0.0995
 4955W        W21429  14.716  18.745  11.513 -0.2868  0.0223 -0.0367
 4956W        W21430   7.886  17.320  13.922 -0.1114 -0.0340  0.1116
 4957W        W21431  13.282  16.279  13.760  0.0158 -0.1852  0.0563
 4958W        W21432   3.008  15.375   0.181  0.3126  0.4560 -0.0682
 4959W        W21433   4.277   7.760  13.728  0.2462 -0.1616 -0.2073
 4960W        W21434   8.019   0.587  11.711  0.1818  0.2783 -0.2153
 4961W        W21435  11.586   8.573  12.038 -0.0060 -0.0157 -0.1408
 4962W        W21436   2.785   0.712   0.394  0.0944  0.2331 -0.2128
 4963W        W21437  16.473   8.827   5.312  0.0504  0.0604 -0.0435
 4964W        W21438   5.026  10.259  11.086 -0.0016  0.0780 -0.1974
 4965W        W21439   8.875   4.870  12.083  0.2743  0.0751 -0.0590
 4966W        W21440   3.124   6.584  15.393  0.0012  0.0950  0.0662
 4967W        W21441  13.418  13.274  11.261  0.1235 -0.0724  0.3540
 4968W        W21442   9.382   6.031   3.026  0.3113 -0.1251  0.0772
 4969W        W21443  15.322   3.684   4.778  0.0237  0.0415 -0.0824
 4970W        W21444   2.038   5.220  14.506  0.0705  0.1808 -0.0524
 4971W        W21445  16.513   2.851   2.031 -0.3917 -0.0301  0.1542
 4972W        W21446  12.843   7.342   4.553  0.0358 -0.0177  0.2597
 4973W        W21447   9.679  16.001   5.990 -0.0513 -0.0368 -0.1940
 4974W        W21448  14.776   6.398  11.628 -0.1986 -0.0311 -0.2177
 4975W        W21449  17.823  15.287   6.022 -0.0892 -0.2895 -0.0687
 4976W        W21450  10.264  18.543   0.371  0.1922 -0.1883  0.1018
 4977W        W21451  15.610  18.217   4.925 -0.0160  0.1901  0.1114
 4978W        W21452  12.653   6.629   5.915  0.1931 -0.0181 -0.0062
 4979W        W21453   2.614  17.019   2.350  0.2068 -0.0405 -0.1655
 4980W        W21454  10.328  16.454  11.292  0.0130  0.0316 -0.1819
 4981W        W21455  17.349  12.891   4.565  0.1157 -0.0817  0.1015
 4982W        W21456   1.624   2.701  13.030 -0.0856  0.1078  0.1055
 4983W        W21457   5.136  14.167  14.988  0.0764 -0.3313 -0.0866
 4984W        W21458   7.032  10.354  12.659  0.2995 -0.0885  0.0082
 4985W        W21459   2.250   3.028  11.322 -0.0694 -0.0216  0.0726
 4986W        W21460   5.632  14.446  14.376  0.2553 -0.0016 -0.0837
 4987W        W21461   8.076   8.602  12.036  0.2387  0.0151 -0.0910
 4988W        W21462   8.376   0.600  12.291 -0.3524 -0.0528 -0.1040
 4989W        W21463   8.977  13.885  13.038  0.0865  0.1992  0.0852
 4990W        W21464   7.824  18.220   2.306 -0.1253 -0.1636 -0.0129
 4991W        W21465  13.675   4.034  11.499  0.0465  0.0791  0.1092
 4992W        W21466   6.281   9.074   3.354 -0.1311  0.0184 -0.0096
 4993W        W21467   8.780  12.217  15.494  0.2339  0.1474 -0.0483
 4994W        W21468   7.537   4.344   3.162 -0.0118  0.0235 -0.1317
 4995W        W21469   3.907   3.410  12.698  0.0193 -0.0248  0.1612
 4996W        W21470  16.400  12.120  13.032  0.1390  0.0556  0.1706
 4997W        W21471   5.960   7.159  13.412 -0.1447 -0.0528 -0.0612
 4998W        W21472  10.615   8.691   1.029 -0.2498 -0.2100 -0.3500
 4999W        W21473   2.391  10.670   2.377  0.0542  0.1036 -0.3240
 5000W        W21474   8.016  11.102  11.352  0.0577  0.4546 -0.1230
 5001W        W21475   9.971   9.607   5.359  0.2975 -0.0838  0.0037
 5002W        W21476   8.338  13.626  11.908  0.0328  0.0938  0.0855
 5003W        W21477  17.966   0.395  10.629 -0.0652  0.0701 -0.1042
 5004W        W21478   6.103  10.544   2.441  0.1499  0.0478  0.0894
 5005W        W21479   5.449  12.638   5.042 -0.2587  0.0698  0.0918
 5006W        W21480   6.949  13.505  11.678  0.2110 -0.0220 -0.1982
 5007W        W21481   4.867  15.489  11.557 -0.0543 -0.3334  0.2623
 5008W        W21482   0.974  14.934   4.892  0.1349  0.1137 -0.3587
 5009W        W21483  11.382   9.727   3.444 -0.0451  0.3682 -0.0343
 5010W        W21484   8.599  12.765  14.893  0.0942  0.1099  0.2497
 5011W        W21485  17.985  11.264  11.672  0.4712 -0.0419  0.1952
 5012W        W21486  16.830   6.643  11.532  0.1104  0.0286 -0.2380
 5013W        W21487   7.108   7.196  10.505  0.2865  0.1943  0.1373
 5014W        W21488  13.590   1.645   0.567  0.2461  0.2595 -0.0396
 5015W        W21489   4.125   5.366  13.279  0.0089  0.1586 -0.0547
 5016W        W21490  10.462  17.713  13.699  0.1502  0.2074  0.2137
 5017W        W21491   2.873   8.266  11.052 -0.0282  0.0155  0.1203
 5018W        W21492  13.659  11.236   4.667 -0.2283 -0.1960  0.3408
 5019W        W21493   1.192   1.122   2.223 -0.0074 -0.1215 -0.0475
 5020W        W21494  18.138   6.701   1.699 -0.2459  0.1620 -0.0042
 5021W        W21495   4.503   9.729  15.159 -0.0532 -0.0097  0.3296
 5022W        W21496   5.547  11.241  11.618  0.0148  0.2124 -0.1187
 5023W        W21497   6.911   5.303   3.682 -0.1053  0.0770 -0.0467
 5024W        W21498  17.121  13.194   2.990  0.2574 -0.2208 -0.1886
 5025W        W21499   3.006  16.222  14.096  0.3451 -0.1634 -0.0952
 5026W        W21500   8.999  10.860  14.067  0.0913  0.0880  0.0810
 5027W        W21501   3.754  12.437   4.095 -0.0571 -0.2475 -0.1483
 5028W        W21502  14.700  10.219  12.528 -0.0974 -0.3043 -0.2222
 5029W        W21503   5.848   2.028   1.999  0.0082 -0.1833  0.3443
 5030W        W21504  10.381   8.442  12.436  0.0195 -0.3206 -0.0923
 5031W        W21505   4.940   2.298   3.156 -0.2050  0.0783 -0.0094
 5032W        W21506  15.454   4.748  13.139 -0.0610  0.0435  0.5160
 5033W        W21507   9.695  12.740  11.384 -0.0363  0.3216  0.0146
 5034W        W21508   8.761  11.598   3.991 -0.0652  0.1582  0.0886
 5035W        W21509   3.395   4.815   4.803 -0.1341  0.0830 -0.0846
 5036W        W21510   0.692   6.695  13.371 -0.0104  0.1596 -0.2573
 5037W        W21511   4.441   4.870  15.008  0.0855 -0.2206  0.2295
 5038W        W21512  17.171   5.695   3.006 -0.2370  0.1114 -0.2097
 5039W        W21513   7.325  10.774  13.840 -0.0847 -0.0637  0.0381
 5040W        W21514   7.879   1.494   1.578  0.0434 -0.0997 -0.1335
 5041W        W21515   1.759  16.590   5.962 -0.1013 -0.2615  0.0515
 5042W        W21516   2.870  11.749  11.643  0.1441 -0.0120 -0.4964
 5043W        W21517  18.553  14.966   1.038 -0.0943 -0.1412 -0.1433
 5044W        W21518  11.916   2.103   2.735  0.1950  0.2540  0.1654
 5045W        W21519   1.762  16.563   4.872  0.1068  0.1115 -0.2707
 5046W        W21520   1.473   2.253  12.246  0.1082 -0.0113  0.0301
 5047W        W21521   9.404   7.882   1.071  0.0145 -0.2139 -0.2650
 5048W        W21522  16.380  10.700   5.243  0.0622 -0.0750  0.1051
 5049W        W21523  13.814  10.276   1.123  0.3738  0.1536  0.0567
 5050W        W21524   5.799  16.855  12.624 -0.0334 -0.0577  0.2836
 5051W        W21525  18.539  14.010  12.900  0.1431 -0.4087  0.0085
 5052W        W21526  14.259  15.511  12.547  0.3754 -0.1575 -0.0968
 5053W        W21527   9.783   5.430   4.175  0.1175 -0.4311 -0.0200
 5054W        W21528  15.694   3.666  15.390  0.0572 -0.0787 -0.0682
 5055W        W21529   6.936  16.685   5.844  0.1521  0.0159 -0.0457
 5056W        W21530   1.687   0.133  10.633 -0.1170  0.0603  0.1251
 5057W        W21531   1.920  15.442  11.285  0.1386  0.0437  0.0189
 5058W        W21532  18.080   0.073   5.317 -0.1206  0.0445 -0.0664
 5059W        W21533   3.303   5.037   0.559 -0.1186 -0.1150 -0.5803
 5060W        W21534   6.075   6.421  10.985 -0.0902  0.0405  0.1905
 5061W        W21535  13.376  12.572   0.705  0.1251  0.1125 -0.3468
 5062W        W21536   5.202   7.227  11.008  0.3093 -0.0061  0.4095
 5063W        W21537  11.312  15.937  15.460 -0.0965 -0.1805 -0.0052
 5064W        W21538  18.485   5.346  11.079 -0.3535  0.0636  0.3830
 5065W        W21539  12.642   0.653   1.920  0.2635  0.1302  0.1261
 5066W        W21540   6.834  11.703  14.059  0.1689  0.1656 -0.0683
 5067W        W21541  13.063  17.554  11.325  0.2093  0.0439 -0.0630
 5068W        W21542   2.393   8.806   2.429  0.1708  0.0781  0.0622
 5069W        W21543  12.377  18.006   5.710 -0.2539 -0.0724  0.2300
 5070W        W21544  17.850   7.510  14.018 -0.2942  0.0425 -0.3201
 5071W        W21545   5.463  12.069   5.748  0.1489  0.2604 -0.1016
 5072W        W21546  14.922   2.365   3.833  0.1397  0.0638  0.0139
 5073W        W21547  12.495  11.462   3.716  0.1495  0.0475  0.1981
 5074W        W21548  11.911   5.741   0.573 -0.2262  0.1614  0.2452
 5075W        W21549  11.533   8.744  15.521  0.3453 -0.0944  0.1426
 5076W        W21550   2.609   0.088  10.900  0.3652  0.0700 -0.0109
 5077W        W21551   3.517  17.368   3.967 -0.0936  0.1721  0.1565
 5078W        W21552  14.674   6.441  15.327  0.1863  0.0713 -0.3653
 5079W        W21553  14.205  17.612   5.350  0.0930  0.4057  0.0551
 5080W        W21554   2.353   5.357   5.058  0.1655 -0.3762 -0.2009
 5081W        W21555  10.987  18.245  15.338 -0.0037  0.1370  0.0958
 5082W        W21556  16.971  10.793   2.045 -0.0607  0.1350 -0.1193
 5083W        W21557   9.471  15.322   5.062 -0.0782  0.1937 -0.0581
 5084W        W21558   9.728  16.173  12.039  0.4324 -0.1050 -0.0042
 5085W        W21559   9.814  17.417  13.786  0.4229 -0.0621  0.0755
 5086W        W21560   6.432  16.209  12.179 -0.4081  0.0726  0.1869
 5087W        W21561   4.699  16.018   4.068 -0.1192 -0.3584  0.0068
 5088W        W21562   4.350   6.822   4.708 -0.0620  0.2115 -0.1370
 5089W        W21563  13.114   4.187   3.291 -0.2974  0.0301  0.2504
 5090W        W21564   4.076   5.232   2.796 -0.4965  0.0046  0.0123
 5091W        W21565  13.561  10.233   0.378  0.1452  0.2389 -0.0399
 5092W        W21566   3.326   0.506   2.373 -0.1421  0.0931  0.0177
 5093W        W21567   4.006  12.978   3.239 -0.1182 -0.1048  0.1361
 5094W        W21568   4.128  13.752  11.710 -0.2567 -0.0148  0.1012
 5095W        W21569  10.666  12.392   0.394  0.1752  0.2796  0.1412
 5096W        W21570  17.085   8.344  11.384  0.0565  0.1941 -0.1799
 5097W        W21571   6.545  10.919  15.486 -0.1599 -0.0381  0.3812
 5098W        W21572   7.319   5.636   4.376  0.4018  0.2733  0.3251
 5099W        W21573   6.250   5.131   9.434  0.2404  0.3717 -0.3580
 5100W        W21574  16.541   2.932  12.352  0.1076 -0.1325  0.2903
 5101W        W21575   5.000   8.473  14.475 -0.0081  0.0219  0.0983
 5102W        W21576   2.096  15.510   0.935 -0.1315 -0.0632 -0.1004
 5103W        W21577  16.224   8.881   0.232 -0.0766  0.5201  0.0175
 5104W        W21578   2.621  14.993   3.439 -0.1457  0.0943  0.0332
 5105W        W21579  17.397  15.602   1.974 -0.0200 -0.1903  0.0121
 5106W        W21580  15.118  16.613   3.612 -0.1757 -0.0060 -0.1170
 5107W        W21581  14.765   5.342   1.175 -0.3380 -0.1054 -0.0794
 5108W        W21582   1.695   6.282  11.336  0.3555  0.0520 -0.0031
 5109W        W21583  13.270  10.185  11.167  0.2365 -0.3993 -0.0735
 5110W        W21584   9.550   3.143   3.905 -0.0542 -0.0310  0.0337
 5111W        W21585   0.213  14.862  10.835  0.0419 -0.3916 -0.1646
 5112W        W21586   4.835  18.464   4.543 -0.0935 -0.0974 -0.0057
 5113W        W21587   8.887   0.454  12.482  0.3541  0.1249  0.1601
 5114W        W21588   0.716  13.472  12.731 -0.3575  0.2440 -0.0342
 5115W        W21589   1.706   9.273  10.757 -0.1804 -0.2150  0.2009
 5116W        W21590   1.570  10.457   3.285  0.2509  0.0132  0.3182
 5117W        W21591   7.925   8.378  13.751  0.1282  0.0287 -0.2855
 5118W        W21592  14.035  18.295   3.510 -0.1682 -0.0669 -0.1006
 5119W        W21593  10.190  12.787  12.606  0.1612 -0.1671  0.0137
 5120W        W21594  18.430  18.289  15.164 -0.0030  0.0464 -0.2449
 5121W        W21595   0.515  18.066  12.458 -0.2310  0.2397  0.3331
 5122W        W21596   9.440   2.271   3.704 -0.0873  0.1253 -0.0493
 5123W        W21597  15.329   8.401   2.329 -0.0041 -0.0115 -0.4174
 5124W        W21598   2.581   8.716  14.438 -0.0121 -0.2027 -0.0462
 5125W        W21599   1.317   2.273   3.173  0.1659  0.2748  0.0311
 5126W        W21600  16.308  15.917  11.369 -0.1134  0.4616  0.0719
 5127W        W21601   6.776   9.906   1.849  0.2256 -0.0555 -0.0928
 5128W        W21602   2.863  11.055  10.815  0.0970 -0.0475 -0.0647
 5129W        W21603   5.170   8.869  11.816 -0.0108  0.1362  0.0724
 5130W        W21604  12.102  10.489  14.652  0.0765  0.1277 -0.0945
 5131W        W21605  10.914   0.292   4.016 -0.0490  0.0340  0.0626
 5132W        W21606   6.235  11.269   1.237  0.0444  0.1026 -0.2153
 5133W        W21607   6.863   0.209  12.975 -0.2521  0.0678 -0.1178
 5134W        W21608  15.596  17.346   3.159 -0.0263  0.3068  0.0618
 5135W        W21609  10.080   9.108   4.217 -0.0832  0.0709  0.2000
 5136W        W21610   9.078  12.095   3.401  0.1869 -0.0168 -0.0520
 5137W        W21611  14.822   5.106   3.928 -0.1822  0.0139 -0.0483
 5138W        W21612   2.079   3.155   9.950 -0.1026 -0.4721 -0.2894
 5139W        W21613  16.687   4.906   1.434  0.0241 -0.3392 -0.0278
 5140W        W21614  10.581   9.852   0.522 -0.4774  0.0725 -0.0519
 5141W        W21615   1.972   7.639   1.842 -0.0504  0.3386  0.0682
 5142W        W21616  15.380   8.989   1.023 -0.0245  0.1157  0.3120
 5143W        W21617  18.425   6.518   4.373  0.0452  0.0111 -0.1725
 5144W        W21618  11.201  14.724   5.174 -0.1555  0.3895 -0.0068
 5145W        W21619   6.604  11.389  15.157  0.1043 -0.1907  0.2633
 5146W        W21620  10.478   4.893   3.219 -0.2270  0.0245 -0.0506
 5147W        W21621  16.531  11.703  12.284  0.1603 -0.0993  0.0258
 5148W        W21622   1.438  16.254   4.703 -0.3910  0.0027  0.2835
 5149W        W21623   2.093  17.280   2.203  0.0234 -0.1842 -0.0173
 5150W        W21624  10.008   9.431  13.331 -0.2619  0.2649  0.0338
 5151W        W21625  17.062  10.517  14.811 -0.0481 -0.0682 -0.0423
 5152W        W21626  17.387   8.205   0.966 -0.0095  0.2136 -0.2126
 5153W        W21627  16.120  15.174  13.317 -0.3252  0.2524  0.3406
 5154W        W21628   6.860   8.523   0.187  0.0214  0.2640  0.3449
 5155W        W21629  11.890   8.630  11.591  0.0076 -0.0982  0.1549
 5156W        W21630  17.472  13.164  14.973 -0.0831 -0.0947 -0.2978
 5157W        W21631   9.636   8.438  11.297  0.2061 -0.2356  0.3202
 5158W        W21632  11.956  15.340   4.439  0.1634 -0.0024  0.3187
 5159W        W21633   5.390   8.131  11.979  0.2126 -0.0380 -0.2567
 5160W        W21634   4.286   9.413   9.550  0.2817  0.1226  0.0369
 5161W        W21635  15.705   4.633   0.646  0.0153 -0.2417 -0.1238
 5162W        W21636   1.456   0.532   4.461  0.1187 -0.0058  0.0692
 5163W        W21637   0.263   3.543   1.909 -0.3165 -0.0193 -0.1599
 5164W        W21638  17.791   4.324  14.159 -0.2456  0.2100  0.3007
 5165W        W21639  17.606   0.714  10.877 -0.0276 -0.0792  0.0525
 5166W        W21640  10.332   8.393   4.792  0.2191 -0.0954  0.0876
 5167W        W21641  17.596  14.180  12.603 -0.2052 -0.0885  0.0143
 5168W        W21642   8.452  18.483  11.651 -0.0777 -0.2647 -0.0745
 5169W        W21643  15.134   0.602   3.783  0.1582  0.1768 -0.0101
 5170W        W21644   7.302  15.113   1.551 -0.0973 -0.1291  0.1980
 5171W        W21645  15.082  17.199   0.478  0.0472  0.1076  0.1407
 5172W        W21646   8.225   0.276   2.114  0.0003 -0.1651  0.3363
 5173W        W21647   1.410   9.358  15.250 -0.0475 -0.0421  0.0337
 5174W        W21648   2.312   9.512   3.228  0.0969  0.0564  0.2760
 5175W        W21649   0.335   1.018   2.067 -0.1852  0.3198 -0.0732
 5176W        W21650   6.721   4.203   1.644 -0.0932 -0.0738  0.1153
 5177W        W21651   3.320   6.398  13.158 -0.1251  0.1282  0.0470
 5178W        W21652   2.921  11.937   1.704 -0.0056  0.1048 -0.3872
 5179W        W21653   9.409   5.942  13.697  0.0309  0.1232  0.1710
 5180W        W21654  17.729   4.288  12.228  0.2678  0.0563  0.0287
 5181W        W21655   7.749  10.769  13.586 -0.0409  0.5857 -0.4185
 5182W        W21656   1.541   6.350   4.557 -0.1090  0.0962  0.0758
 5183W        W21657   7.582  11.931  11.382 -0.0117 -0.1950  0.1337
 5184W        W21658   0.756  10.234   0.257  0.0537 -0.2848 -0.0337
 5185W        W21659   5.896  18.025   1.181 -0.4229 -0.1290  0.0071
 5186W        W21660  10.693  16.597   3.014 -0.2559  0.0383  0.2558
 5187W        W21661   2.095  17.308   4.258 -0.6193 -0.0926 -0.1334
 5188W        W21662  18.360   3.458  11.947  0.2738 -0.1406  0.1234
 5189W        W21663   3.163   3.277  12.300  0.0549  0.1688 -0.3450
 5190W        W21664   5.844   6.915  14.664  0.1351 -0.0882  0.0703
 5191W        W21665   9.163  13.729   4.225 -0.2329 -0.0595  0.0759
 5192W        W21666   6.356  15.038  13.856 -0.1784  0.2958 -0.0143
 5193W        W21667  14.191  12.450  14.940 -0.0630  0.1733 -0.0987
 5194W        W21668   6.923  14.654   2.140  0.1585 -0.1584  0.0545
 5195W        W21669  15.347  10.725  13.732  0.1905 -0.0528 -0.1434
 5196W        W21670   0.747   8.347   0.737  0.3551 -0.1232  0.2500
 5197W        W21671   3.739  10.956   5.088 -0.2169  0.0253  0.2061
 5198W        W21672   0.956  14.552  13.462  0.1304 -0.0022  0.1359
 5199W        W21673   7.382  10.015   5.335  0.0796 -0.2085  0.2377
 5200W        W21674   4.079   3.399   2.044  0.1966  0.1416 -0.2763
 5201W        W21675  14.860  16.671   4.144 -0.1275 -0.0472  0.0538
 5202W        W21676  12.365   6.324   3.165  0.0001  0.2548 -0.3156
 5203W        W21677   2.650   1.848   4.390 -0.0285 -0.0241  0.0949
 5204W        W21678  17.245   8.076  10.795 -0.1715  0.1261  0.0622
 5205W        W21679   4.284   3.957  11.221  0.0203 -0.0144  0.0783
 5206W        W21680   5.759  17.326   0.877 -0.1413  0.0766  0.0112
 5207W        W21681  16.169  10.495  15.453 -0.0279  0.0954  0.0981
 5208W        W21682  12.118  14.427  13.551 -0.0196 -0.2606  0.1485
 5209W        W21683   1.720   7.529   2.257  0.2217  0.2269  0.2481
 5210W        W21684   3.689   0.765  15.159 -0.3157 -0.1555  0.0456
 5211W        W21685  14.358  18.562   3.030  0.3128 -0.1328 -0.1379
 5212W        W21686   2.413  15.396   4.282 -0.0450  0.0275  0.0777
 5213W        W21687  13.259   3.869  13.476 -0.1164 -0.2495  0.1336
 5214W        W21688  10.916   4.648  13.258  0.1010  0.1293  0.1289
 5215W        W21689  15.174   7.759   4.212  0.3116  0.1279 -0.2163
 5216W        W21690  16.472   6.772  15.376  0.3116 -0.0709 -0.2414
 5217W        W21691   7.267  13.696   1.043  0.0397 -0.2814  0.1504
 5218W        W21692   8.520  10.242   0.131 -0.0383  0.1384  0.1683
 5219W        W21693  16.350  10.606   3.914 -0.0226  0.1690  0.0185
 5220W        W21694  15.945  17.739  15.310  0.2966  0.0581 -0.0817
 5221W        W21695   2.471  15.197   2.965 -0.2325  0.2468  0.4270
 5222W        W21696  13.536  17.492   5.096  0.1058 -0.3020  0.1446
 5223W        W21697   0.934  11.792   5.633 -0.3159  0.1059  0.0163
 5224W        W21698   8.027  10.811  10.084  0.2663 -0.0659  0.0119
 5225W        W21699  18.772   5.302  14.920 -0.2119 -0.1411  0.2177
 5226W        W21700   6.367  13.879  15.352 -0.0203  0.0543  0.0099
 5227W        W21701  15.375   6.707   3.180  0.1995  0.1211  0.0849
 5228W        W21702  15.104  17.047  12.102  0.2534  0.2005  0.1004
 5229W        W21703   1.501  15.438  11.584  0.0404  0.2392  0.0018
 5230W        W21704   6.268  15.416   1.940 -0.3613 -0.0884 -0.0943
 5231W        W21705  12.138  17.372   4.020  0.1877  0.1654  0.3057
 5232W        W21706   2.376  15.347  14.794  0.2692  0.1478 -0.0317
 5233W        W21707  17.183   7.395  10.120 -0.1003  0.1467  0.1945
 5234W        W21708   6.920   5.167   2.663  0.3157 -0.0004  0.0303
 5235W        W21709  14.251  15.379   3.305 -0.2578  0.1043  0.0533
 5236W        W21710  13.582   7.361   5.096  0.0595 -0.1875 -0.0807
 5237W        W21711   2.626   7.537  12.605 -0.0399  0.0081 -0.2831
 5238W        W21712   9.671   2.737  14.889  0.0373 -0.1795 -0.1846
 5239W        W21713  11.009   4.065   3.496 -0.4666 -0.1646  0.0344
 5240W        W21714   6.147   5.457   4.894 -0.0298  0.0429 -0.2990
 5241W        W21715  12.474  14.340  12.032  0.0846  0.2517 -0.3541
 5242W        W21716   0.242  15.138  15.074 -0.0047 -0.0592  0.1819
 5243W        W21717  18.687   3.441   1.348  0.0312  0.0172 -0.2622
 5244W        W21718  15.445  16.076   5.105  0.0274  0.0252 -0.2290
 5245W        W21719   2.309  18.154   1.468 -0.1691 -0.1110 -0.4220
 5246W        W21720   9.780   2.302  14.429 -0.0316 -0.0767  0.0727
 5247W        W21721   8.128   3.607  14.521  0.1556  0.0065 -0.4402
 5248W        W21722  13.722  16.125   3.068  0.0310  0.0929 -0.2999
 5249W        W21723  10.503  12.839   3.296  0.1113 -0.2121 -0.0505
 5250W        W21724  13.336  18.714  15.442  0.0815  0.1643  0.4449
 5251W        W21725  17.650  16.802  14.428 -0.1651 -0.1222  0.0535
 5252W        W21726  16.205   0.899  13.325  0.4886 -0.1146 -0.2830
 5253W        W21727  11.696  16.034   0.649 -0.0005  0.0743 -0.3203
 5254W        W21728   2.909  15.280  12.621  0.0988 -0.0757 -0.2149
 5255W        W21729   8.931  18.076   2.921  0.0100  0.0988  0.2782
 5256W        W21730  13.811   6.738   1.535  0.1473  0.0043 -0.0138
 5257W        W21731  13.109   7.033   5.065  0.1009  0.1878 -0.0491
 5258W        W21732  10.988  17.431  12.050  0.3173 -0.0726  0.1742
 5259W        W21733   5.324   9.251   2.923  0.0123 -0.1112 -0.2604
 5260W        W21734  14.652   6.470   5.255 -0.2196 -0.1639  0.0020
 5261W        W21735  10.567   6.954   5.546  0.0025  0.1736  0.0632
 5262W        W21736  10.249  11.535   4.375  0.1874 -0.1635  0.1870
 5263W        W21737   8.740   7.821  13.784  0.1528  0.0397 -0.3253
 5264W        W21738  12.102   9.693  10.847  0.1990  0.1346  0.1939
 5265W        W21739  13.294  15.670  12.171 -0.1546 -0.2211  0.0419
 5266W        W21740   1.629   8.926   1.891  0.2275  0.0257  0.1819
 5267W        W21741  11.776   8.254  14.324  0.0745  0.1207 -0.0656
 5268W        W21742  12.003  11.032   2.449 -0.1092  0.1525 -0.1273
 5269W        W21743  17.190   3.252   5.759 -0.1146 -0.0707 -0.2490
 5270W        W21744  17.711   9.746   0.346 -0.0314 -0.2678  0.0199
 5271W        W21745  14.608  10.549  13.551 -0.1513  0.2363  0.1070
 5272W        W21746  13.278   4.783   2.412 -0.0453  0.0774 -0.1767
 5273W        W21747   2.808   6.256  10.344  0.0989 -0.2315 -0.4774
 5274W        W21748  14.094  12.345   3.415 -0.0975 -0.5165  0.0948
 5275W        W21749   3.993   8.860  12.590  0.0753 -0.2883 -0.1493
 5276W        W21750  14.984   5.572  12.900 -0.0417 -0.0410 -0.1679
 5277W        W21751  11.431   4.510   5.250 -0.1583  0.2949 -0.0661
 5278W        W21752  16.331  13.630   5.883 -0.0095 -0.2240 -0.1585
 5279W        W21753   8.908   2.971  11.424  0.0432 -0.1828  0.3545
 5280W        W21754   6.797  17.705   0.905 -0.0414 -0.1998 -0.3338
 5281W        W21755   2.567   0.075   0.581 -0.1611  0.1245  0.0835
 5282W        W21756  12.636  10.915  12.483 -0.0938  0.2158  0.1774
 5283W        W21757   4.598   7.803   4.569  0.1000  0.1705  0.0253
 5284W        W21758   7.839   0.111  14.951 -0.1245 -0.0752  0.2714
 5285W        W21759   7.099  11.315   4.837 -0.2851 -0.4838  0.1179
 5286W        W21760  13.687  12.470  11.695 -0.3607  0.1103  0.0790
 5287W        W21761   7.684   7.809   0.654 -0.0314  0.0853  0.0175
 5288W        W21762  18.379   0.617  13.911  0.1653 -0.2954 -0.0370
 5289W        W21763  15.935   8.424  14.424  0.3285 -0.2714  0.0275
 5290W        W21764  12.304   8.829   6.110 -0.1998  0.2813 -0.1050
 5291W        W21765  10.645   6.431  12.512  0.1347  0.1702 -0.0557
 5292W        W21766   7.493  18.074   1.389  0.2323  0.0531 -0.0239
 5293W        W21767   6.425  10.786   2.160  0.0235 -0.0119  0.0016
 5294W        W21768  10.165  10.494   2.104 -0.0740 -0.0173  0.0485
 5295W        W21769  16.740  16.720   3.414 -0.0410 -0.0629  0.2507
 5296W        W21770   6.442  11.841   3.121 -0.1007 -0.0110 -0.0523
 5297W        W21771   3.492   2.967  14.771  0.1548 -0.0591  0.0385
 5298W        W21772   2.889  11.271  11.959  0.2368 -0.0858 -0.1909
 5299W        W21773  16.478   8.104   4.753  0.1560  0.2347 -0.0000
 5300W        W21774  11.878   8.051   4.339 -0.0242 -0.2130 -0.0947
 5301W        W21775   4.381  13.972   0.055  0.1178  0.3920  0.1161
 5302W        W21776   6.071   2.666  10.522 -0.0870 -0.1665  0.1474
 5303W        W21777  15.071   6.449  12.832 -0.0979 -0.0053  0.0529
 5304W        W21778   4.072  10.136   4.011  0.2073 -0.1561 -0.1974
 5305W        W21779   5.035  17.625   2.921 -0.0968  0.1380 -0.1049
 5306W        W21780  12.285   6.993  14.074  0.1096  0.0598 -0.3499
 5307W        W21781  10.332  10.367  14.212 -0.0466  0.3499  0.0136
 5308W        W21782  11.354  12.920  12.095 -0.2969  0.1117  0.0718
 5309W        W21783  13.421   5.918   4.495 -0.1906 -0.0836  0.2092
 5310W        W21784  11.960  16.898   4.194 -0.2710 -0.1102 -0.1097
 5311W        W21785   5.020  11.554   1.981 -0.1511 -0.1379 -0.1743
 5312W        W21786  15.718   9.697   0.442  0.2954 -0.0357  0.1852
 5313W        W21787   7.652   8.196   0.967 -0.2383 -0.0307 -0.0852
 5314W        W21788   0.649   4.294   2.387  0.1502 -0.1936 -0.1153
 5315W        W21789   4.783  17.335   1.569  0.1892 -0.1341 -0.2409
 5316W        W21790   7.613  15.370  14.325  0.1905 -0.1510  0.0596
 5317W        W21791   4.861   6.575   5.447  0.1496  0.1135  0.0662
 5318W        W21792  14.249   9.278   1.067 -0.1944  0.2257  0.2807
 5319W        W21793   1.610  17.347   2.041 -0.1501 -0.0786 -0.0257
 5320W        W21794   3.069   7.170  10.316  0.1507  0.1347 -0.0826
 5321W        W21795   0.119   7.363  10.866 -0.2260  0.1139 -0.1152
 5322W        W21796   2.613   9.841   1.314 -0.2572  0.3697 -0.0526
 5323W        W21797   2.584   0.059   3.282  0.0164  0.0586  0.1058
 5324W        W21798  16.947   2.107  14.769 -0.0290 -0.0261 -0.1736
 5325W        W21799   2.728   0.317   4.757 -0.0849 -0.0481  0.0715
 5326W        W21800   8.278   3.836  12.839  0.0509 -0.4069  0.0772
 5327W        W21801   5.369  14.234   3.259 -0.0642  0.2242  0.3217
 5328W        W21802  14.143   8.537   1.122 -0.2021 -0.0590  0.1066
 5329W        W21803   7.358   9.433  14.504 -0.0522 -0.1114 -0.0056
 5330W        W21804  18.754  15.038  13.937 -0.1345  0.3076  0.2899
 5331W        W21805  16.665  16.074   2.696  0.0867  0.1085  0.0249
 5332W        W21806  17.690   5.095  11.403 -0.1038  0.1906 -0.3470
 5333W        W21807   4.823  13.204  15.176  0.2109 -0.0375  0.2363
 5334W        W21808   6.799  17.139  12.164 -0.1783 -0.0213 -0.0045
 5335W        W21809  17.269   8.034   3.639  0.0568  0.1721  0.1057
 5336W        W21810  17.862   4.230   2.026  0.2612  0.2487 -0.3408
 5337W        W21811  11.984   4.271   4.874 -0.1917  0.0341  0.1465
 5338W        W21812   4.908  12.723  15.416  0.0691  0.0934 -0.0747
 5339W        W21813   9.487   2.279  11.721 -0.0831 -0.0448 -0.0833
 5340W        W21814  17.653   6.365  10.957  0.1363 -0.0037 -0.1072
 5341W        W21815   5.269   5.526  11.136 -0.1628 -0.1726  0.3143
 5342W        W21816  11.337   9.765   1.633 -0.2247 -0.0218  0.2034
 5343W        W21817  12.230   7.890  13.087 -0.0516  0.1908 -0.0676
 5344W        W21818   0.736  13.766   0.053  0.0381 -0.0498  0.4282
 5345W        W21819  17.302   7.880   2.132  0.0942 -0.0848 -0.0505
 5346W        W21820   3.761   8.232   2.164 -0.1406  0.0178 -0.1993
 5347W        W21821  17.249  12.786  11.256  0.0882 -0.2462 -0.3073
 5348W        W21822  18.160  13.204  11.050  0.0658 -0.2848  0.1611
 5349W        W21823  10.448   6.512   4.660  0.0476  0.2202  0.3481
 5350W        W21824  18.441  12.084  13.044 -0.1314 -0.1585 -0.1328
 5351W        W21825   2.071  11.753   2.014  0.1708  0.3045  0.4772
 5352W        W21826   1.473   0.576  10.611  0.1747  0.0532 -0.3726
 5353W        W21827   9.768  18.514   5.832 -0.0386 -0.0118 -0.1489
 5354W        W21828   2.769   8.588   2.113 -0.2362  0.3909 -0.1534
 5355W        W21829  16.068  17.519   0.240 -0.0937  0.1752 -0.0660
 5356W        W21830   2.497   4.097   4.565  0.1281  0.2004  0.0709
 5357W        W21831   3.165  16.370   4.513 -0.0270  0.1476  0.1142
 5358W        W21832   7.767  18.395  15.062  0.1011 -0.3056  0.2085
 5359W        W21833   7.227  12.850  14.023 -0.0387  0.2376 -0.1453
 5360W        W21834  11.094   4.140   4.003 -0.1632  0.3832 -0.3202
 5361W        W21835  11.421  13.382  12.412  0.3050 -0.0204  0.2191
 5362W        W21836   3.934   8.962  13.143 -0.4665  0.0523  0.2583
 5363W        W21837   3.808  12.291   3.615 -0.2408  0.2871 -0.3535
 5364W        W21838  16.512  17.846   3.110 -0.1108  0.2434 -0.1761
 5365W        W21839   9.003   2.165  13.243  0.0175 -0.1073 -0.0283
 5366W        W21840  16.680  14.658  14.695  0.0317  0.1163  0.1483
 5367W        W21841  11.365  12.923   3.261 -0.0317  0.3570  0.0841
 5368W        W21842  12.633  13.104   3.865  0.0115 -0.5007  0.1461
 5369W        W21843   2.265  12.495   3.501 -0.2910  0.2023 -0.0496
 5370W        W21844   7.952  18.111  12.303 -0.4140  0.0422  0.2809
 5371W        W21845   5.773  11.476   2.055 -0.0553 -0.0389  0.1065
 5372W        W21846  18.101   2.118   5.860  0.1318 -0.4595 -0.0496
 5373W        W21847  13.005   9.389   2.661 -0.3588  0.3229 -0.0128
 5374W        W21848  16.812  12.291  12.169  0.1511  0.1926  0.1920
 5375W        W21849   0.494   1.748  11.286 -0.1608 -0.0968  0.1567
 5376W        W21850   7.523   3.823  12.011  0.0488 -0.3511 -0.1375
 5377W        W21851   7.591   0.518  11.363  0.0131 -0.0174  0.2422
 5378W        W21852  14.604   2.442  11.136 -0.2458 -0.1709  0.3000
 5379W        W21853   3.734  18.301  13.466  0.2208  0.0975  0.0576
 5380W        W21854   9.702   6.367   5.424  0.3104 -0.2223  0.0533
 5381W        W21855   5.591   5.915  12.067  0.2426 -0.3234  0.6469
 5382W        W21856   5.621   5.730   4.158 -0.1365 -0.1409 -0.3773
 5383W        W21857   9.455  13.515  13.714 -0.2569 -0.3831 -0.1485
 5384W        W21858   1.126  15.301  12.939 -0.0747 -0.1324 -0.3036
 5385W        W21859  11.076  12.101   5.375 -0.0584  0.2441  0.0387
 5386W        W21860   5.581  15.576   2.799 -0.0127 -0.1276  0.4918
 5387W        W21861  11.850  12.791   3.418 -0.0514  0.1835  0.0422
 5388W        W21862   3.252  10.250  14.443 -0.0102 -0.2343  0.1079
 5389W        W21863  12.930  10.242  15.144  0.2320 -0.0217 -0.0488
 5390W        W21864   1.070   9.776   2.854  0.0460  0.2341  0.0633
 5391W        W21865  12.123   3.882   1.794 -0.0305  0.1709  0.0328
 5392W        W21866  14.841  16.150  12.169  0.1572  0.0895  0.0770
 5393W        W21867   5.549  16.100   1.443  0.3336 -0.0051  0.2927
 5394W        W21868  11.707   0.073  12.826 -0.1735 -0.0199 -0.3128
 5395W        W21869   3.686   9.225  12.834  0.0079 -0.2103  0.1482
 5396W        W21870   1.121  14.088  12.019  0.1314  0.0504  0.2817
 5397W        W21871   1.500   8.118   0.451  0.1219  0.0130  0.0707
 5398W        W21872  13.482   5.138   5.666  0.1936  0.0176  0.0035
 5399W        W21873  17.039  13.539  14.101  0.6681  0.1164 -0.3672
 5400W        W21874  15.467  16.159  11.827  0.1024  0.1620 -0.0351
 5401W        W21875  13.425  15.433   2.315  0.1957 -0.0811 -0.3325
 5402W        W21876  12.090   8.209  10.833  0.1494  0.1284 -0.0840
 5403W        W21877  14.331   6.939   1.454 -0.0365 -0.1957  0.0869
 5404W        W21878  11.203   9.894   3.919  0.1045  0.0750  0.1467
 5405W        W21879   7.353  12.539   3.811 -0.2221 -0.1449 -0.1702
 5406W        W21880  11.377   5.189   1.649  0.0828  0.1835 -0.0818
 5407W        W21881  12.892   5.205   1.877  0.0763  0.1830 -0.1200
 5408W        W21882   1.458  16.021  15.070  0.1339 -0.0895  0.0910
 5409W        W21883   7.187   7.372  15.230  0.0393 -0.1953  0.0221
 5410W        W21884   4.492  11.941  15.321 -0.0067  0.1102  0.0115
 5411W        W21885   1.032   7.895  13.042 -0.0680 -0.1264 -0.1784
 5412W        W21886  10.282  11.968   1.881 -0.1219 -0.3889 -0.0186
 5413W        W21887  15.752   3.772  11.384 -0.1102  0.3160 -0.0143
 5414W        W21888   7.489  14.432  14.648  0.5655 -0.3259  0.2342
 5415W        W21889  18.130   9.633  12.946  0.0905  0.1398 -0.3608
 5416W        W21890   0.714  15.633   0.386 -0.1081 -0.2438 -0.0000
 5417W        W21891   4.158   7.020  10.943 -0.0009  0.0544  0.0777
 5418W        W21892  16.890  14.018  15.522 -0.0298  0.1167 -0.1217
 5419W        W21893   2.135   6.612  15.066 -0.0948 -0.0302  0.1914
 5420W        W21894   1.067  14.932   2.139 -0.0063 -0.2097  0.2289
 5421W        W21895   8.288   5.762   2.372  0.0849 -0.4257 -0.1311
 5422W        W21896   2.943  10.877   4.633  0.1151 -0.1936 -0.0619
 5423W        W21897   4.060  17.160  15.259 -0.0459 -0.1214  0.2780
 5424W        W21898   5.444  12.823   0.545  0.1291 -0.1781  0.0566
 5425W        W21899  17.406   6.835   2.197 -0.0683  0.0726 -0.0177
 5426W        W21900   4.075   7.175  12.699 -0.1162 -0.3647 -0.0289
 5427W        W21901   9.244   2.233  13.668  0.0387 -0.6697  0.1645
 5428W        W21902   5.594  13.869  12.988 -0.1926  0.1016 -0.0105
 5429W        W21903  17.101  17.157  11.872 -0.2321  0.1062  0.0356
 5430W        W21904   5.764   7.658   4.425 -0.2072  0.2422 -0.0621
 5431W        W21905  14.570   3.777  12.955  0.1769 -0.3833  0.0443
 5432W        W21906  12.408  10.991   1.812 -0.1168 -0.2744 -0.1143
 5433W        W21907  13.041   3.152  13.166 -0.0177 -0.0250 -0.0112
 5434W        W21908  12.208   3.499  14.689  0.1043  0.1265  0.0133
 5435W        W21909   4.738   9.877  12.178 -0.3668  0.2004  0.0732
 5436W        W21910  11.451  15.803  12.764 -0.2017 -0.0391  0.1665
 5437W        W21911  17.335  15.868  14.584  0.2972  0.2142 -0.0928
 5438W        W21912   6.922   6.325  15.019 -0.0851 -0.0813 -0.1306
 5439W        W21913  12.723  15.455  14.099 -0.0041 -0.0749  0.0174
 5440W        W21914   9.992   8.348  13.986  0.0921  0.4014 -0.2180
 5441W        W21915   7.401   3.778   3.130  0.0874 -0.1638 -0.3808
 5442W        W21916   1.260   6.856  15.061 -0.0080 -0.4013 -0.0327
 5443W        W21917  15.204   7.297   2.291 -0.1753  0.1069  0.2577
 5444W        W21918  13.006  12.735  13.384  0.0373  0.3009  0.3317
 5445W        W21919  18.292  16.567  15.302  0.0496 -0.1302  0.2625
 5446W        W21920  15.568   0.759   2.404  0.1179 -0.1026  0.0084
 5447W        W21921   9.178   9.604   0.073  0.2067  0.0734  0.0484
 5448W        W21922   6.577   3.327  10.984  0.2792  0.1654 -0.2410
 5449W        W21923   0.471  11.877   2.370 -0.1253  0.4143  0.2898
 5450W        W21924  16.996   8.010   1.405 -0.3373  0.2286  0.0212
 5451W        W21925  15.606   5.998  11.753  0.2248 -0.0424  0.0460
 5452W        W21926  16.723  18.758  14.506 -0.5852 -0.2306  0.1351
 5453W        W21927  11.301   2.981  12.804 -0.2073  0.0670  0.0287
 5454W        W21928  17.918  14.317   5.126  0.3034  0.0824  0.1709
 5455W        W21929   6.345   1.800   4.120 -0.3650 -0.1273  0.0376
 5456W        W21930   0.846   6.958  12.869 -0.0335 -0.3056 -0.6095
 5457W        W21931   4.378   4.378   9.165 -0.1130  0.4062  0.1693
 5458W        W21932  11.247   5.512   2.557 -0.2815 -0.2060  0.2638
 5459W        W21933   9.485   1.264   1.954 -0.3085  0.1735 -0.1803
 5460W        W21934   9.144  12.864  12.521  0.2167  0.1976  0.0041
 5461W        W21935   1.548   1.771  12.045 -0.1769  0.0695 -0.1834
 5462W        W21936  15.758  10.165   0.537  0.1316 -0.4061 -0.1163
 5463W        W21937   8.961   6.845  13.482  0.0069 -0.0973 -0.0936
 5464W        W21938   6.397   3.647  13.846  0.0485 -0.3381  0.4155
 5465W        W21939  17.221  11.190   2.249  0.0667  0.0931  0.1007
 5466W        W21940   8.729  11.609  11.613  0.1897 -0.4108 -0.2154
 5467W        W21941  17.181   7.585   4.560 -0.1491 -0.3186 -0.0851
 5468W        W21942   8.824   4.913   3.929 -0.3936 -0.2537  0.2971
 5469W        W21943   1.899   4.836  11.308 -0.1101 -0.1257  0.3610
 5470W        W21944  14.952   1.466  11.857 -0.1633  0.0086  0.0619
 5471W        W21945  14.731  11.423   2.659 -0.0957 -0.4392  0.1286
 5472W        W21946   3.012   0.636  12.049 -0.0144  0.0233  0.0434
 5473W        W21947   4.392  14.297  15.060 -0.1489 -0.1802 -0.1041
 5474W        W21948  16.657  17.418   4.560  0.1426  0.3485 -0.0142
 5475W        W21949   9.272   4.476   0.787 -0.0313 -0.0988 -0.1988
 5476W        W21950   2.488   8.358   4.700  0.2123  0.0425 -0.1319
 5477W        W21951  16.342  15.768  15.387 -0.0673  0.0762 -0.0207
 5478W        W21952   1.006   3.874   2.663  0.2355  0.2586 -0.0507
 5479W        W21953   0.216  11.154   4.196  0.3295 -0.1166 -0.1143
 5480W        W21954  11.793  14.406   2.124  0.1034  0.1459 -0.2984
 5481W        W21955   6.745   9.665  11.235 -0.3249 -0.1857  0.1094
 5482W        W21956  10.679   4.351   3.743  0.1514 -0.2089 -0.0609
 5483W        W21957  17.281  10.015   0.372  0.0359 -0.1934  0.2225
 5484W        W21958   8.648  11.976   0.359 -0.0384 -0.1146  0.0414
 5485W        W21959   0.890   8.935  11.733  0.0478 -0.5080  0.2444
 5486W        W21960   1.515   6.227  14.373  0.0320 -0.2069 -0.1010
 5487W        W21961   6.785   3.803   0.186  0.0499  0.0291 -0.0303
 5488W        W21962  16.638  10.360   2.819  0.2261 -0.1621  0.0047
 5489W        W21963   8.069   9.592   3.093  0.1434  0.3826 -0.0294
 5490W        W21964   5.850   2.848  11.382 -0.2480  0.0724 -0.2969
 5491W        W21965  16.265   8.573   4.785  0.1003 -0.1485 -0.0241
 5492W        W21966   8.834   7.347  12.508  0.2369  0.0125  0.1105
 5493W        W21967  11.984   9.022   4.724  0.0391 -0.1139 -0.0096
 5494W        W21968  14.021   3.475  13.314  0.0522 -0.1264 -0.0579
 5495W        W21969   9.836   1.613  14.359  0.0074 -0.1401  0.1471
 5496W        W21970  12.455  17.234  13.169  0.0253 -0.3877 -0.3407
 5497W        W21971   6.454  17.264   3.808 -0.0685  0.3129  0.0007
 5498W        W21972   3.330   1.617  13.070 -0.2275 -0.0759 -0.4460
 5499W        W21973   5.259  13.265   5.649 -0.0444 -0.0865 -0.1857
 5500W        W21974   0.399  12.630  11.363 -0.0903  0.0452  0.0033
 5501W        W21975  14.471   3.317  15.256 -0.3967  0.2568  0.0510
 5502W        W21976  11.771  12.282  12.161 -0.1154 -0.1096  0.0124
 5503W        W21977   7.404   5.802   2.672  0.1657  0.0921 -0.6094
 5504W        W21978   5.951  10.160   2.099 -0.3978 -0.0986  0.2242
 5505W        W21979  12.366  13.499  15.232  0.2523  0.0695 -0.2653
 5506W        W21980   3.695   3.381   0.940 -0.1012 -0.5906 -0.1288
 5507W        W21981  16.097   6.207  11.094 -0.1048  0.2072 -0.4303
 5508W        W21982   4.719  17.097   2.027 -0.1115  0.1254 -0.0788
 5509W        W21983  13.115  15.369   5.996 -0.1604 -0.1349 -0.1467
 5510W        W21984   0.643   2.417  11.674 -0.0288  0.0523  0.1244
 5511W        W21985  15.924   9.511   2.570 -0.0848 -0.3346 -0.2149
 5512W        W21986   8.435   6.529  11.994 -0.1174  0.1373  0.1540
 5513W        W21987  11.813   2.222  13.166 -0.0737  0.0858  0.4228
 5514W        W21988   4.155   4.312   2.735  0.2733  0.4294 -0.0505
 5515W        W21989  18.030   8.047   0.159 -0.0381 -0.2543 -0.0435
 5516W        W21990   5.753   2.168   0.185 -0.2556 -0.0629  0.3682
 5517W        W21991  17.898  16.157   0.905 -0.1633 -0.0960  0.0970
 5518W        W21992   6.490  13.595   3.154  0.1278  0.1140 -0.0569
 5519W        W21993   8.734  10.339   2.840 -0.2024 -0.0945  0.2116
 5520W        W21994   7.538  14.340  13.882 -0.2313 -0.0883  0.2130
 5521W        W21995   1.362   2.975  12.740 -0.1071 -0.1637 -0.1531
 5522W        W21996  13.905   2.971   5.621  0.2595  0.0176 -0.0252
 5523W        W21997   4.421   4.018  11.734  0.2436 -0.0175  0.1096
 5524W        W21998  10.285  16.019  11.983  0.2655  0.1601 -0.0602
 5525W        W21999   3.418  13.318   4.488  0.1118  0.2398  0.1019
 5526W        W22000  14.221  17.962   3.036 -0.3226  0.0528  0.1319
 5527W        W22001  15.660   1.494   2.957 -0.2447 -0.3292  0.0750
 5528W        W22002  17.532   2.974  15.005  0.2480 -0.2197 -0.0017
 5529W        W22003  17.393  14.596  12.293 -0.2320 -0.3567  0.4104
 5530W        W22004  17.514  13.388  14.092 -0.0248 -0.0859 -0.1040
 5531W        W22005  11.399   3.468  10.632 -0.0341  0.0871  0.0098
 5532W        W22006   6.176   9.118   0.736 -0.1088 -0.2359  0.1648
 5533W        W22007   2.295   0.580  14.858  0.0132 -0.2303 -0.1080
 5534W        W22008  16.072   1.289   3.705 -0.0143 -0.2143 -0.2105
 5535W        W22009  15.963  10.221  12.022  0.0533 -0.1573  0.3410
 5536W        W22010   4.665  16.367   4.428  0.1218  0.0158 -0.0727
 5537W        W22011   1.000  16.969   2.869 -0.0547 -0.6747  0.0678
 5538W        W22012   2.216  12.063   4.492 -0.1158  0.1149  0.1434
 5539W        W22013   0.563   7.028  10.722 -0.2322  0.0576 -0.2811
 5540W        W22014  10.192  15.113  13.505  0.0468  0.1367 -0.1098
 5541W        W22015  18.237   5.948  13.398  0.3311 -0.2156  0.0040
 5542W        W22016  17.370  15.345  12.229  0.3185 -0.1572 -0.0931
 5543W        W22017  16.949  16.546   0.215 -0.0347 -0.0973  0.1585
 5544W        W22018   0.573   3.863  13.816 -0.1933 -0.1635 -0.0016
 5545W        W22019   8.530  18.168   4.618 -0.0537 -0.2456 -0.0859
 5546W        W22020   7.563   0.225   0.232 -0.0476  0.1168 -0.0296
 5547W        W22021   2.444   0.881  15.247  0.1585  0.1957  0.3115
 5548W        W22022  16.972   8.998  13.566  0.0320  0.1140 -0.0058
 5549W        W22023  15.544  17.445  12.858 -0.0462  0.1669  0.0646
 5550W        W22024  15.840  17.453   4.980 -0.0759  0.0174  0.0010
 5551W        W22025  16.609   0.032   2.021  0.1741 -0.0226 -0.0868
 5552W        W22026   0.260  17.689  13.027  0.1544  0.2134  0.2214
 5553W        W22027   9.372   9.134  15.340 -0.4025  0.1921 -0.1659
 5554W        W22028   5.908  15.169  11.628  0.1870  0.0133 -0.2513
 5555W        W22029   0.219  16.202   2.849 -0.0142 -0.0906  0.1066
 5556W        W22030   3.866   9.477   2.280 -0.2408  0.1288  0.0942
 5557W        W22031  18.183  15.553   1.235 -0.0749  0.0322  0.0571
 5558W        W22032  12.939   3.559   1.363 -0.0777 -0.2948  0.2459
 5559W        W22033  11.160   1.564   2.325 -0.1381 -0.3182 -0.0469
 5560W        W22034  17.854  10.238   2.926  0.2142  0.1233  0.1602
 5561W        W22035   9.620   8.711   5.590 -0.0730  0.1057  0.1222
 5562W        W22036  17.395   3.920  12.574  0.0416 -0.1907 -0.0512
 5563W        W22037  16.443   0.315  14.777 -0.1052 -0.2847  0.2278
 5564W        W22038  13.245  11.652  14.413 -0.3224  0.1314  0.0467
 5565W        W22039   3.668   4.434  15.139 -0.0387  0.1392  0.0796
 5566W        W22040  15.091  14.913   1.249 -0.1961 -0.1856  0.0660
 5567W        W22041  11.832  14.445  12.718  0.1938 -0.0084  0.3413
 5568W        W22042   0.024  13.973  15.323  0.2248  0.2140  0.3237
 5569W        W22043   7.712   8.622  14.355 -0.1276  0.0352 -0.4655
 5570W        W22044   7.596   1.101  14.145  0.1435 -0.1428  0.4210
 5571W        W22045  17.260   5.679  11.715  0.0870  0.2112  0.0574
 5572W        W22046  16.117   1.991   2.026 -0.4649  0.2074  0.0834
 5573W        W22047   0.059  14.068   3.601  0.1213 -0.1040  0.2986
 5574W        W22048  16.012   0.162  15.006 -0.1521 -0.2111 -0.0300
 5575W        W22049   7.342   8.380   3.706  0.0757  0.1112  0.0744
 5576W        W22050   2.594  18.472   0.857  0.0629  0.1619 -0.0910
 5577W        W22051   6.879   3.182  12.446 -0.0800 -0.1406  0.1146
 5578W        W22052  11.598  14.882   3.783  0.1724 -0.2536  0.0110
 5579W        W22053   5.443   2.040  11.107 -0.3008  0.1383 -0.1242
 5580W        W22054  12.307   5.915  11.972  0.0963  0.0976  0.0433
 5581W        W22055  12.887  14.158  11.596  0.2703  0.0796 -0.2973
 5582W        W22056  11.672  10.711   3.755 -0.1990 -0.2144 -0.0036
 5583W        W22057  10.326  15.222  15.149 -0.2619  0.0725 -0.0680
 5584W        W22058   5.399  11.560  11.996 -0.1666 -0.0514 -0.0329
 5585W        W22059   1.679   8.122  10.651 -0.1964 -0.0340  0.2023
 5586W        W22060   6.527   6.564   1.252 -0.0499 -0.0580 -0.0453
 5587W        W22061  15.687  14.963   0.227 -0.1704  0.2407  0.1706
 5588W        W22062  16.019  10.848  12.879  0.0782 -0.0258  0.1008
 5589W        W22063   6.738   6.825   4.632 -0.1937  0.1537  0.1796
 5590W        W22064  11.179   3.517   4.688 -0.0827 -0.2321  0.0058
 5591W        W22065   6.214  18.087  12.340  0.2101  0.2379  0.1454
 5592W        W22066  12.798   7.687   0.386  0.1458 -0.0134 -0.0654
 5593W        W22067   2.567  10.873  12.487  0.0427 -0.0647  0.0481
 5594W        W22068  14.024   0.653   4.551 -0.0767 -0.0999 -0.3017
 5595W        W22069   6.782   7.258   1.704  0.0278 -0.1242  0.1318
 5596W        W22070   0.915  12.017   0.729 -0.2672 -0.4969  0.2643
 5597W        W22071   1.255   7.464   3.365  0.0888  0.0897 -0.1789
 5598W        W22072   9.205  12.737  11.559 -0.0347  0.0228 -0.0268
 5599W        W22073  11.855   3.740  10.691  0.1232  0.0741 -0.1159
 5600W        W22074   0.973   0.259   1.588  0.1938 -0.0846 -0.1820
 5601W        W22075  18.659  11.042  13.452  0.0805 -0.2033  0.0179
 5602W        W22076  13.449   4.150  12.770  0.0308  0.0814 -0.3228
 5603W        W22077   5.128   0.193  14.339 -0.1416  0.1115  0.1158
 5604W        W22078  11.231   7.886  11.577 -0.0306 -0.0588  0.0206
 5605W        W22079   1.365   8.907  10.778  0.0910 -0.1847  0.0754
 5606W        W22080  13.660   9.207   4.999 -0.2012  0.1651  0.0285
 5607W        W22081   6.357  12.612  10.777  0.0146 -0.1366 -0.2154
 5608W        W22082   1.352  17.315   5.278  0.1328 -0.0733 -0.1658
 5609W        W22083  15.973  14.868   4.559 -0.0939 -0.1781  0.0587
 5610W        W22084   6.920  18.197  13.477 -0.2509 -0.2472  0.1054
 5611W        W22085  18.130  11.832   1.586  0.1348  0.2687 -0.0817
 5612W        W22086  12.129   3.311   1.680 -0.0474  0.1096  0.0846
 5613W        W22087  17.780  11.132  13.784 -0.0902  0.1353 -0.2975
 5614W        W22088  18.766   5.185   4.473  0.0284 -0.2007  0.0064
 5615W        W22089   3.087  16.279   0.409  0.0153  0.0079  0.0573
 5616W        W22090   6.216   7.321   1.648  0.0425 -0.1160  0.0123
 5617W        W22091   9.441   5.592   1.709 -0.0521 -0.0112  0.0532
 5618W        W22092   7.902  11.741  11.825 -0.1405  0.0084 -0.3124
 5619W        W22093   3.351   9.173   2.386 -0.0551 -0.0706  0.0072
 5620W        W22094   5.513   2.881  13.975  0.0154  0.1050  0.0949
 5621W        W22095  13.259   7.226   2.101  0.0218  0.0233  0.1602
 5622W        W22096  13.378   1.285   5.607  0.2685  0.2753 -0.0337
 5623W        W22097   4.109  11.858   1.217  0.1845  0.1028  0.0686
 5624W        W22098   3.047   3.547  11.195  0.0374  0.1520  0.1309
 5625W        W22099   8.359   2.530  10.847  0.1272  0.1997 -0.1110
 5626W        W22100   5.533  16.032  12.130  0.0061  0.0444 -0.1485
 5627W        W22101  14.016  15.300   3.925  0.0327 -0.1284 -0.0827
 5628W        W22102   3.815  10.397   3.463  0.3208 -0.2841 -0.1240
 5629W        W22103  13.047   5.289   6.426 -0.1815 -0.1365  0.0339
 5630W        W22104  16.091   5.825   3.124  0.0998 -0.5066  0.0077
 5631W        W22105  16.432   1.457   4.746 -0.0286 -0.1147 -0.0209
 5632W        W22106  18.079   3.008   3.407  0.1008  0.0077  0.3587
 5633W        W22107   6.244  16.285   3.205 -0.0067  0.1494  0.3175
 5634W        W22108  14.267  16.252   2.866 -0.2670 -0.1419 -0.1607
 5635W        W22109   6.691  15.446  13.958  0.0446  0.2037 -0.0042
 5636W        W22110   3.056  12.280   2.476  0.1527  0.3255  0.1775
 5637W        W22111  11.021   8.429   1.227  0.1890 -0.0995  0.0270
 5638W        W22112   9.438  18.783  12.014 -0.2129 -0.1905 -0.1615
 5639W        W22113   5.926   3.310   1.219 -0.1402  0.0441  0.0943
 5640W        W22114   9.763   2.517   4.091  0.2962 -0.0029 -0.1852
 5641W        W22115  15.471   0.412   1.188  0.0936  0.2884  0.0736
 5642W        W22116   1.336   1.980   4.484 -0.2554 -0.1476  0.0707
 5643W        W22117  16.226  12.611  12.578  0.1213  0.2209  0.0950
 5644W        W22118   6.282   6.832   0.015 -0.0091  0.0573  0.0708
 5645W        W22119   3.903  14.707   0.070 -0.0214  0.0346 -0.1831
 5646W        W22120   4.277   3.091   3.916  0.1345 -0.0254  0.2412
 5647W        W22121   0.414   2.815   1.435 -0.2184  0.3005  0.0933
 5648W        W22122  17.364   7.210   3.343 -0.0443  0.0232 -0.2697
 5649W        W22123   9.782   3.922   3.995 -0.4377 -0.4232  0.0785
 5650W        W22124  11.715  10.380   1.835  0.2634 -0.0180 -0.2504
 5651W        W22125   1.422   3.582  13.346  0.0879 -0.0006  0.2507
 5652W        W22126   4.133   7.891   1.978 -0.1115  0.2652  0.0868
 5653W        W22127   3.786   5.939  13.690 -0.1717 -0.1013  0.0402
 5654W        W22128   0.513  14.660  10.508  0.0665 -0.1466 -0.1482
 5655W        W22129   5.618  11.507  11.053  0.4060  0.0021  0.0733
 5656W        W22130  15.214  13.069   1.836 -0.4064 -0.1241 -0.0469
 5657W        W22131   7.877   6.126  12.829  0.2962  0.0691 -0.0891
 5658W        W22132  14.032  14.733  13.545 -0.2634 -0.0319 -0.2020
 5659W        W22133   1.657   4.642  11.745 -0.3083 -0.0633 -0.0606
 5660W        W22134  18.086  18.654  15.421  0.3088  0.1450  0.2600
 5661W        W22135   3.096   3.334   1.763  0.1372 -0.3610 -0.2056
 5662W        W22136   9.858  18.219   4.296  0.0714 -0.0225 -0.0236
 5663W        W22137  14.997   1.885   4.023  0.7037  0.0745 -0.0137
 5664W        W22138  12.686   9.732   2.678  0.0564  0.1042 -0.3635
 5665W        W22139   0.509   8.395   2.678  0.2403 -0.0541 -0.0176
 5666W        W22140  14.921  14.521  14.151  0.3438 -0.4590 -0.0494
 5667W        W22141   2.607  17.988   0.653 -0.0730  0.1637 -0.2737
 5668W        W22142   5.948   1.399  13.156 -0.3346 -0.0907 -0.1145
 5669W        W22143   6.042  10.093   0.769 -0.1478 -0.5230  0.2022
 5670W        W22144   6.945  10.573   4.250 -0.2540 -0.2578 -0.0288
 5671W        W22145  18.617  11.556   4.179  0.3127  0.2424 -0.0588
 5672W        W22146   4.690  15.409   2.796  0.3995  0.0896 -0.4331
 5673W        W22147  10.448   4.408   3.320  0.0081  0.0307 -0.2505
 5674W        W22148  16.259  11.926  11.449  0.4308 -0.0446 -0.3078
 5675W        W22149  10.379  14.966   1.532  0.0149  0.4838  0.0483
 5676W        W22150  15.624  17.878   0.783  0.0262  0.3470 -0.0662
 5677W        W22151   4.300   0.309  14.618  0.1285  0.0794  0.1022
 5678W        W22152   0.196   6.500   3.659  0.3195 -0.0516  0.1488
 5679W        W22153   5.646   2.787   0.297 -0.0299  0.2354  0.1275
 5680W        W22154  17.845  10.851   1.274  0.1477  0.0603 -0.1470
 5681W        W22155   9.943  10.125  11.178 -0.0109 -0.0456  0.3498
 5682W        W22156   0.542   3.233   2.339 -0.0861 -0.4286  0.0881
 5683W        W22157   0.322   2.731  11.947 -0.1644  0.1963 -0.0792
 5684W        W22158   2.992   4.151   4.545 -0.0305  0.0907  0.0003
 5685W        W22159   0.372   7.026   4.243  0.5711 -0.1282 -0.1884
 5686W        W22160   5.000  12.589  14.468  0.0643  0.1683 -0.3464
 5687W        W22161   4.840  18.706  13.835  0.2124 -0.1041  0.4519
 5688W        W22162   2.950   1.205   4.032  0.2347 -0.0283 -0.0355
 5689W        W22163   1.398   2.186   0.025  0.3442  0.1127 -0.0492
 5690W        W22164   0.225  15.023   4.293 -0.0578 -0.2749 -0.2341
 5691W        W22165   1.644   7.062   2.013 -0.1787 -0.1332  0.0900
 5692W        W22166  16.215   4.720   0.486  0.1448  0.1342 -0.0833
 5693W        W22167   0.878   2.094   1.414 -0.0594  0.2292 -0.1919
 5694W        W22168  12.002   2.610  12.895 -0.1099 -0.0015 -0.1789
 5695W        W22169   5.206   6.140  10.626  0.0977  0.3296  0.3524
 5696W        W22170   6.587   1.346   3.399  0.0245 -0.3038  0.0925
 5697W        W22171   8.701  18.375  12.120 -0.0582  0.0880  0.1231
 5698W        W22172  17.788  10.011   5.127 -0.0567 -0.0497 -0.2743
 5699W        W22173  14.154  15.131   1.272 -0.0911 -0.2394 -0.1484
 5700W        W22174  16.727   6.494   3.453  0.0027  0.1718 -0.1712
 5701W        W22175  17.697   5.320  10.534 -0.1774  0.1651  0.0354
 5702W        W22176   6.851  17.847  14.942 -0.3755  0.0703  0.0583
 5703W        W22177   4.137   5.978   4.169  0.2296 -0.1294  0.1944
 5704W        W22178  16.338  15.489  14.191 -0.0413 -0.0670  0.6100
 5705W        W22179   4.835   1.928   2.814  0.0864  0.0651 -0.0572
 5706W        W22180   1.916   3.578   2.596 -0.3420  0.2239  0.5850
 5707W        W22181   1.873   3.784   3.704 -0.1098 -0.0854 -0.0065
 5708W        W22182  15.479   2.176  11.118  0.0229  0.1867  0.1470
 5709W        W22183   3.261   1.928   1.980 -0.0986 -0.0320 -0.0822
 5710W        W22184   3.000  12.061  12.048 -0.2932 -0.1148  0.2987
 5711W        W22185  10.320  12.467   4.066 -0.0295 -0.1933 -0.0228
 5712W        W22186   9.647  16.709  12.113  0.1044  0.2755 -0.2777
 5713W        W22187   2.572  15.098   2.370 -0.0260 -0.2095 -0.0855
 5714W        W22188  11.589  18.170   4.263  0.1625 -0.1315 -0.2290
 5715W        W22189   8.591   8.628   1.755  0.0819 -0.2465 -0.1482
 5716W        W22190   4.613  12.541   2.575  0.0498  0.0386  0.0733
 5717W        W22191   9.088  16.223   4.485  0.1834  0.5965 -0.0055
 5718W        W22192  17.175   7.040  14.490  0.0440 -0.1205 -0.2040
 5719W        W22193  12.396  11.118   3.380 -0.0335 -0.0450 -0.1968
 5720W        W22194   9.480   7.548   5.202 -0.0508 -0.2579  0.0955
 5721W        W22195  16.623   2.516  11.002  0.3232  0.1006  0.0729
 5722W        W22196  16.190  12.213   3.667 -0.2671 -0.2134 -0.3053
 5723W        W22197   3.553  15.930  14.743  0.1252 -0.1039 -0.1587
 5724W        W22198   9.048   0.256   9.596 -0.1388  0.2914  0.3224
 5725W        W22199   6.158   2.399  15.182  0.0778 -0.2135 -0.1900
 5726W        W22200   4.370   4.690  13.762  0.0611  0.2046  0.0247
 5727W        W22201  17.479  16.984   2.594 -0.0628  0.2226  0.1629
 5728W        W22202   6.100   2.609  12.576 -0.4489 -0.1886 -0.2242
 5729W        W22203   7.383  14.917  14.565  0.1377 -0.0489  0.0631
 5730W        W22204   6.992  15.009  12.656  0.0292  0.1673 -0.4370
 5731W        W22205   5.284   2.447  13.746 -0.1354  0.0607 -0.0496
 5732W        W22206   3.811   9.097  13.668 -0.1930  0.1399  0.0388
 5733W        W22207   5.740   6.762   4.161 -0.2337 -0.1035 -0.1174
 5734W        W22208   6.456   3.445  12.472 -0.0491 -0.1985 -0.0729
 5735W        W22209   8.232  14.101  15.104 -0.1161 -0.0914 -0.0648
 5736W        W22210   7.567  12.939   1.561  0.0614 -0.0091 -0.0716
 5737W        W22211   4.951   8.044   5.426 -0.2680 -0.1338 -0.2370
 5738W        W22212   8.294   9.910   4.120 -0.2804  0.0357 -0.1387
 5739W        W22213  17.695   8.160  10.496 -0.1178  0.0871  0.3212
 5740W        W22214  10.820   7.102  13.631 -0.0258  0.0512  0.0542
 5741W        W22215   6.547   6.450   4.168 -0.1575  0.1892 -0.0761
 5742W        W22216   6.039  12.499   0.733 -0.0037  0.3973 -0.2340
 5743W        W22217   3.353  10.623   4.411 -0.1041 -0.1143  0.1585
 5744W        W22218   5.647   8.452  11.222 -0.3794 -0.1444 -0.1761
 5745W        W22219   1.220  14.838   4.456  0.0593 -0.3885 -0.0470
 5746W        W22220  12.314   2.351  13.270  0.4442  0.0882  0.1024
 5747W        W22221  18.536   0.369   2.453  0.1710 -0.2464 -0.2012
 5748W        W22222  17.461   8.167   4.970 -0.2541  0.3471 -0.0017
 5749W        W22223   7.705  16.445  14.345  0.1162 -0.0915 -0.0495
 5750W        W22224  10.879   8.771  14.260  0.1688 -0.0185 -0.3669
 5751W        W22225   5.919   2.026  14.828  0.1860 -0.0921 -0.1788
 5752W        W22226   6.840   4.677   0.899  0.0511  0.0399  0.0768
 5753W        W22227   6.423  17.272  11.818  0.3762  0.0777 -0.2614
 5754W        W22228  17.532  15.551  12.680  0.0316  0.0254 -0.2181
 5755W        W22229  11.305   6.760  10.103 -0.3238  0.0586  0.4007
 5756W        W22230   4.644   8.512  14.163  0.2377 -0.0941  0.0119
 5757W        W22231  14.148   0.495   5.473 -0.1347 -0.0638 -0.0900
 5758W        W22232   5.492   7.794  12.868  0.0378  0.3760 -0.2336
 5759W        W22233   6.966  15.496  11.372 -0.0487  0.0643  0.2140
 5760W        W22234  12.485  12.694  12.513  0.0188 -0.0795 -0.0505
 5761W        W22235  16.823  14.391  14.258  0.2093  0.0805  0.3540
 5762W        W22236  12.457  11.820   0.122  0.2570 -0.1498  0.0347
 5763W        W22237  17.270   6.437   1.518  0.1708 -0.0750  0.0957
 5764W        W22238   1.131   4.306   2.484  0.1971 -0.1435 -0.2269
 5765W        W22239  11.254   9.429  13.575 -0.1996 -0.3500 -0.1471
 5766W        W22240   4.924   6.749  11.483  0.1050  0.3125  0.0216
 5767W        W22241   4.433  10.267  14.315  0.0948 -0.3950  0.0711
 5768W        W22242   2.647  14.100  10.283  0.3533 -0.0737  0.6220
 5769W        W22243   7.843   4.592  11.316  0.2134 -0.0655 -0.2360
 5770W        W22244   2.369   3.624   3.810  0.6495 -0.1069 -0.0680
 5771W        W22245   1.945   6.209  10.352  0.0288  0.1381  0.1936
 5772W        W22246  11.603  17.085   2.859  0.1606  0.3941  0.0573
 5773W        W22247  15.741   5.265  12.240  0.2685  0.0339 -0.0215
 5774W        W22248  16.258   4.218  11.927  0.3229  0.0877  0.0598
 5775W        W22249  13.909   2.057   2.255 -0.1177 -0.0479  0.0266
 5776W        W22250   7.923   5.496  15.314  0.0181  0.3299 -0.2178
 5777W        W22251  13.564  10.764   4.504  0.1204  0.0801  0.0449
 5778W        W22252   9.683   1.874   3.559  0.2598  0.2622  0.2470
 5779W        W22253   3.253  12.948  15.491  0.2607  0.2943  0.3406
 5780W        W22254  10.767   6.409  11.730  0.1199  0.1777  0.0041
 5781W        W22255  18.134   4.524   2.380 -0.1712  0.1008  0.0189
 5782W        W22256  16.180  16.825   2.278 -0.1311 -0.0514 -0.3466
 5783W        W22257  17.348  18.621  10.872 -0.2386 -0.4181  0.0266
 5784W        W22258   8.188   1.360  15.247 -0.2027  0.2184 -0.1269
 5785W        W22259  18.163   2.025   2.491  0.0054  0.0683 -0.0423
 5786W        W22260   4.676   1.043  12.647 -0.4923  0.0332  0.0207
 5787W        W22261   5.734  18.689   3.648  0.0003 -0.2420  0.2281
 5788W        W22262  14.604  11.524  14.565  0.0567  0.3078 -0.0571
 5789W        W22263   7.305  14.600   3.253 -0.0149 -0.3806  0.3019
 5790W        W22264   5.230   1.250   0.469 -0.0947 -0.1002  0.4086
 5791W        W22265  14.145  10.888   0.594 -0.3363 -0.3745 -0.0110
 5792W        W22266  15.124   2.849  13.731 -0.2908  0.1530  0.2709
 5793W        W22267   6.772   4.297  10.868  0.0504 -0.1949  0.2744
 5794W        W22268  15.381  17.247   4.931  0.0024  0.0545 -0.1078
 5795W        W22269  12.070   3.061  14.508  0.0913  0.3399  0.2049
 5796W        W22270   2.797  12.260   4.378  0.1264 -0.2551 -0.0157
 5797W        W22271   7.668   3.676  11.520 -0.1922 -0.1023 -0.2361
 5798W        W22272  10.977   8.164  12.335  0.2786  0.3133  0.2226
 5799W        W22273  10.887   4.582  12.635  0.3811  0.2074 -0.0510
 5800W        W22274   0.334   8.783   3.436 -0.1096  0.0062 -0.0822
 5801W        W22275   7.878   7.472  10.180 -0.0283 -0.1778  0.0959
 5802W        W22276  15.036  11.743  12.666  0.0054 -0.1455 -0.0544
 5803W        W22277  15.223   7.192  11.017 -0.0960 -0.0249 -0.2282
 5804W        W22278  16.659  10.156  13.875  0.3380 -0.4479 -0.2453
 5805W        W22279   8.235   0.096  15.281 -0.2839 -0.3496  0.0565
 5806W        W22280   5.448  15.391   1.287 -0.0670  0.3707  0.3323
 5807W        W22281  15.698   8.068   5.897 -0.1375 -0.0236 -0.0049
 5808W        W22282  15.639  15.311   2.331 -0.0227 -0.0367 -0.0714
 5809W        W22283  12.023  12.759   0.152  0.2477  0.1815 -0.0143
 5810W        W22284  14.996   6.894   2.642 -0.1030  0.2137 -0.0385
 5811W        W22285  18.157  11.523   0.589  0.0325  0.0281 -0.2987
 5812W        W22286   0.592   1.355  11.665  0.1906 -0.0696  0.1497
 5813W        W22287  13.104   9.313   3.330  0.1466  0.0989 -0.3940
 5814W        W22288  17.567   6.432   5.625  0.2269 -0.2432  0.0567
 5815W        W22289   9.709  12.095  13.644 -0.0568  0.0720 -0.3147
 5816W        W22290   2.996  14.502  11.218  0.2100  0.0297  0.0303
 5817W        W22291   1.329  15.146   4.126  0.1122 -0.2652 -0.2098
 5818W        W22292  17.152   5.418  15.551 -0.1124  0.0299  0.0404
 5819W        W22293  14.039   6.536   3.699 -0.0704  0.2370 -0.0053
 5820W        W22294   0.125  13.693   5.780  0.0663 -0.2960  0.1394
 5821W        W22295   6.452   7.232  15.186 -0.1196  0.1680  0.1030
 5822W        W22296   5.682   9.940   5.371 -0.2553 -0.2448  0.1432
 5823W        W22297   2.903  13.647   1.257  0.2923 -0.3269 -0.1595
 5824W        W22298  13.795  12.727  15.442 -0.4061 -0.0462  0.2710
 5825W        W22299  11.391  10.787   5.141  0.1042  0.1378  0.1465
 5826W        W22300   1.440   9.227   2.303  0.1363  0.1171  0.0095
 5827W        W22301  17.068  11.998  11.695  0.2618 -0.0425  0.0337
 5828W        W22302  13.161  13.818   3.662 -0.1479  0.1259 -0.0120
 5829W        W22303   8.746  16.770  15.405 -0.0371 -0.0293  0.2072
 5830W        W22304   4.152  10.965  12.098  0.0634 -0.0005  0.0344
 5831W        W22305   9.328  16.984   3.417 -0.0661 -0.1405 -0.3813
 5832W        W22306  16.858  17.343  13.150  0.0492 -0.0096  0.0501
 5833W        W22307  14.573  10.050  13.693 -0.0209  0.0611 -0.0361
 5834W        W22308  14.229   8.046   2.180  0.1045  0.1645 -0.1153
 5835W        W22309  11.811  11.000  11.181 -0.0467  0.1961  0.2699
 5836W        W22310   9.774  17.599   5.994 -0.0385  0.0750 -0.0431
 5837W        W22311  15.588   6.177  14.961 -0.0001 -0.3640 -0.0403
 5838W        W22312   0.892   9.773  13.515  0.1000  0.0228  0.1697
 5839W        W22313   0.021  12.948   1.048 -0.0750 -0.0167  0.0323
 5840W        W22314   0.177   2.077  11.540  0.2287 -0.2204 -0.0319
 5841W        W22315   1.803   0.319   0.061  0.1025  0.1826  0.0079
 5842W        W22316   2.848   4.491  14.022 -0.2461  0.1645 -0.3801
 5843W        W22317   0.770   3.024  14.407  0.1251 -0.0649  0.1693
 5844W        W22318   3.719   2.109   1.837  0.1359 -0.1313  0.2440
 5845W        W22319  14.458  18.021  14.094  0.0751 -0.2356 -0.0006
 5846W        W22320   2.718   0.184   0.107  0.3705 -0.0339 -0.1487
 5847W        W22321  13.679   1.198  13.210  0.3685  0.3280 -0.1102
 5848W        W22322  18.381  10.678  14.495  0.1471  0.4127 -0.3492
 5849W        W22323  16.550  16.567   1.374 -0.2329  0.1803 -0.1360
 5850W        W22324  10.187  12.820  14.271  0.0629  0.1643  0.0457
 5851W        W22325   1.771  12.021   2.290 -0.0965 -0.1265 -0.2083
 5852W        W22326  18.726   3.122  13.855  0.1969  0.2955  0.1950
 5853W        W22327  14.989   8.373   4.583 -0.1341 -0.0416  0.1078
 5854W        W22328  16.587   9.563   0.866 -0.3952 -0.0569  0.3400
 5855W        W22329   1.017  11.836   1.783 -0.0343  0.1020  0.1708
 5856W        W22330   2.645  13.690   0.348  0.2898 -0.2978 -0.2022
 5857W        W22331   1.119   4.664   0.998  0.1652 -0.0078 -0.2156
 5858W        W22332   9.040   1.363  13.038  0.0467  0.2138 -0.1532
 5859W        W22333   2.351   2.967   5.027  0.0435  0.1074  0.0909
 5860W        W22334  15.469  13.530  13.049  0.0091 -0.0133  0.0517
 5861W        W22335   0.204   0.611  14.762 -0.6018 -0.0262  0.0999
 5862W        W22336   0.873   7.123   4.151  0.2840 -0.3844  0.1659
 5863W        W22337   1.426  10.459  14.635  0.0522  0.2041 -0.0760
 5864W        W22338  16.461   0.621   0.002 -0.0314  0.0718 -0.2390
 5865W        W22339   9.326   0.586  11.312  0.1892 -0.3356 -0.2199
 5866W        W22340   6.489   0.210  13.854  0.2783  0.2004  0.0865
 5867W        W22341   6.920   2.918   1.175 -0.1137  0.2984 -0.0056
 5868W        W22342  14.221  12.075   1.860  0.0662 -0.0120  0.1491
 5869W        W22343   7.167   9.746   2.220  0.1502  0.0353  0.1837
 5870W        W22344   4.211   6.520   4.154 -0.2283 -0.0878 -0.2406
 5871W        W22345   9.741  17.564   3.352 -0.2637  0.2241 -0.0008
 5872W        W22346   0.627  10.214  12.707  0.0641  0.4492 -0.1330
 5873W        W22347   3.934   9.554  14.385  0.1922 -0.0001 -0.0117
 5874W        W22348   8.510   4.655   4.126  0.1202  0.2087 -0.0400
 5875W        W22349   1.649   8.211  11.282 -0.0200  0.0861  0.2282
 5876W        W22350   1.404  11.582   1.522 -0.1388  0.1651 -0.2034
 5877W        W22351   3.521  11.032   2.328  0.1977  0.1256  0.4249
 5878W        W22352  11.979  15.624   3.064 -0.1797  0.1553  0.1605
 5879W        W22353  13.942  10.894   2.358 -0.0247  0.2381 -0.1938
 5880W        W22354  16.273   5.361   0.144  0.4157  0.2120 -0.0841
 5881W        W22355   9.287   8.513  10.891 -0.1720 -0.3936  0.1530
 5882W        W22356  15.253   9.697   3.873  0.1486 -0.1409  0.4415
 5883W        W22357   0.533   8.756  11.372 -0.2421  0.0787  0.1291
 5884W        W22358   0.840  16.203   5.103  0.1495  0.0120  0.2071
 5885W        W22359   0.380   8.450   1.873  0.2286  0.1799 -0.2345
 5886W        W22360  17.630   5.217   0.158 -0.0650 -0.2834 -0.3493
 5887W        W22361  16.234   1.031   1.261  0.1005 -0.1825  0.1008
 5888W        W22362  16.967  10.943  11.246  0.2770 -0.2646  0.2896
 5889W        W22363   5.784   9.459  11.895 -0.2039 -0.2460 -0.1600
 5890W        W22364  11.859   4.787  13.158  0.2195  0.1128  0.1020
 5891W        W22365  18.652   9.288  11.551 -0.1530 -0.0593  0.0104
 5892W        W22366   1.058   7.125   0.481  0.2440  0.0852  0.4025
 5893W        W22367   8.312   0.937   4.005  0.0492  0.0558 -0.2439
 5894W        W22368  10.120   3.328  12.774  0.1209 -0.0226 -0.2581
 5895W        W22369   1.845   0.761  13.902 -0.1599 -0.2880  0.0609
 5896W        W22370  16.151   5.485  12.378 -0.2155 -0.2680  0.3148
 5897W        W22371  16.808   8.105  10.571 -0.1172 -0.1938  0.1372
 5898W        W22372   3.209   9.908   0.966  0.1466 -0.0633 -0.0543
 5899W        W22373  14.452   3.536   4.410  0.2771  0.0184  0.1543
 5900W        W22374   3.611   8.707   4.031  0.1150 -0.1329 -0.0449
 5901W        W22375  14.075   5.480   3.240 -0.2064 -0.0169  0.1221
 5902W        W22376   9.155  17.181  13.235  0.1775  0.0343  0.0828
 5903W        W22377   9.075   4.421   3.435  0.4929 -0.0978  0.0629
 5904W        W22378   1.653  14.712  13.934  0.2107 -0.1803  0.1482
 5905W        W22379  14.291  13.151  13.026 -0.4099 -0.0840  0.0360
 5906W        W22380   8.421   9.828   2.891  0.0684 -0.4329  0.0490
 5907W        W22381  11.949  14.769  14.681 -0.2389 -0.1304 -0.0878
 5908W        W22382  14.102  12.617   1.921  0.0002 -0.1872  0.0790
 5909W        W22383   9.896   1.098  13.036 -0.0062 -0.0117 -0.0680
 5910W        W22384   8.692   2.087  14.176 -0.1939 -0.3004  0.0469
 5911W        W22385  17.157  12.718   2.809  0.1637 -0.1842 -0.2256
 5912W        W22386   4.513  12.487   0.090 -0.0667 -0.1274 -0.0574
 5913W        W22387   4.435  18.565   0.082 -0.0696 -0.3787 -0.1515
 5914W        W22388   2.255   9.988  13.913 -0.1235 -0.4411 -0.2453
 5915W        W22389  13.010  14.669  14.594 -0.0998 -0.0919  0.0431
 5916W        W22390  15.760  16.423  10.737 -0.3613  0.0811  0.0288
 5917W        W22391   8.299  12.019   1.165  0.1773 -0.0855  0.0481
 5918W        W22392  13.513   6.901  13.829  0.1828  0.0465  0.1910
 5919W        W22393   8.747  11.433   4.499 -0.1937 -0.0896 -0.3369
 5920W        W22394   0.906  12.579  14.929  0.1361 -0.1062 -0.0971
 5921W        W22395   2.670  15.616  12.342 -0.0297  0.1246 -0.2000
 5922W        W22396   7.264   5.288   4.031 -0.0700 -0.1210 -0.1097
 5923W        W22397   7.105   8.177  12.110 -0.0120  0.0736 -0.0428
 5924W        W22398   7.571   4.994  12.492 -0.0708 -0.0028 -0.1157
 5925W        W22399  13.095  12.622  12.371  0.4383  0.3087 -0.0639
 5926W        W22400   3.480  10.328   0.798  0.0220  0.1230 -0.0964
 5927W        W22401  16.502  15.784   5.180 -0.0163 -0.0383  0.1714
 5928W        W22402   8.847  16.169   2.903 -0.0123  0.1227 -0.3297
 5929W        W22403   3.166  14.988  11.572 -0.0338 -0.3576  0.1960
 5930W        W22404   2.171   8.434  13.461  0.2693 -0.2408  0.0985
 5931W        W22405  18.070   7.036  11.383 -0.0060  0.0188  0.2387
 5932W        W22406  14.327   4.850  14.248 -0.2239  0.0105  0.0427
 5933W        W22407   0.524  15.156   0.540 -0.1924  0.0311 -0.0127
 5934W        W22408  14.500  13.739  14.362  0.1661 -0.1754 -0.0159
 5935W        W22409  14.398  14.548  12.928 -0.1305  0.1036  0.1878
 5936W        W22410   6.903  12.482  10.738 -0.2318 -0.1894 -0.2065
 5937W        W22411   7.576  10.122   2.279 -0.0540 -0.0484 -0.0913
 5938W        W22412  15.257  14.888   0.760  0.2315 -0.0167  0.1516
 5939W        W22413  14.201   2.758   3.921  0.0909  0.0487 -0.2325
 5940W        W22414  16.453   4.433   3.800 -0.3347  0.0045 -0.0722
 5941W        W22415  16.042   6.834  12.113  0.0592  0.0587 -0.2217
 5942W        W22416  16.096   4.995  12.049 -0.1540  0.0180 -0.2417
 5943W        W22417  17.419  14.977  14.056  0.1773 -0.1563  0.0107
 5944W        W22418  12.316   1.508  11.653 -0.0492  0.1563 -0.0841
 5945W        W22419  11.765   3.089   0.290  0.3009 -0.0633 -0.3731
 5946W        W22420   9.491   6.020  10.107 -0.1404  0.0020  0.1346
 5947W        W22421   5.875  14.638  11.645  0.0743 -0.2913 -0.2952
 5948W        W22422  13.575   6.889   5.202  0.1674 -0.0707  0.0936
 5949W        W22423   0.842  16.366   3.275 -0.2375 -0.2718 -0.2760
 5950W        W22424   6.362   8.968  15.311 -0.0377 -0.1843 -0.1820
 5951W        W22425  14.072   8.256   4.627 -0.1378 -0.2034  0.0124
 5952W        W22426   3.764  10.433  15.362  0.1226  0.1882  0.0561
 5953W        W22427   1.118  18.395  11.711 -0.2158 -0.1846 -0.0008
 5954W        W22428   8.893  14.126   1.333  0.3835  0.1383 -0.0781
 5955W        W22429  10.575   0.339  12.031  0.0946  0.2402 -0.1544
 5956W        W22430   8.638  16.973  11.230 -0.1606  0.0712 -0.0884
 5957W        W22431  12.930  14.773  11.934  0.0347  0.3807  0.0929
 5958W        W22432   1.471   8.496   2.746 -0.1832 -0.1217  0.1692
 5959W        W22433  18.683  17.330   3.203 -0.1610  0.1557 -0.1254
 5960W        W22434  15.534   8.229   0.195  0.1818 -0.1418 -0.1833
 5961W        W22435   8.558  16.162  14.539 -0.2120  0.0746  0.0093
 5962W        W22436   4.864  11.841  13.685 -0.0803  0.2452 -0.2030
 5963W        W22437  14.754   2.141   1.637  0.1313  0.0273  0.1564
 5964W        W22438   8.315  13.803   2.197 -0.2008 -0.1241  0.2270
 5965W        W22439   1.866   8.914  10.467 -0.3108 -0.2648 -0.0695
 5966W        W22440  13.335   5.584  13.167  0.0427  0.3592 -0.0332
 5967W        W22441   6.007  16.127   9.728 -0.0477  0.1641 -0.1966
 5968W        W22442   2.592  13.109  13.782  0.0219  0.0638 -0.1095
 5969W        W22443  14.891  18.240   0.884 -0.1694  0.1740  0.0597
 5970W        W22444   5.652   4.569  15.097 -0.1982  0.3982 -0.2539
 5971W        W22445   2.663  17.298   1.028 -0.2304  0.0087 -0.0900
 5972W        W22446  10.832  12.164  12.989 -0.2338  0.2622  0.1186
 5973W        W22447  16.413   7.213  13.858 -0.4208 -0.0113 -0.3625
 5974W        W22448   8.311   5.881  15.205 -0.1417  0.1433 -0.1488
 5975W        W22449   1.543   0.445   2.167 -0.0620  0.3277  0.1581
 5976W        W22450   4.944   2.799   4.530  0.0348 -0.1048  0.1256
 5977W        W22451  10.638   6.714  10.799 -0.2803  0.1572  0.3772
 5978W        W22452  11.430   8.743   3.317 -0.0012 -0.0768 -0.0452
 5979W        W22453   2.006  13.126  13.867  0.1116 -0.1486  0.1210
 5980W        W22454   7.518  10.947  12.088  0.1606 -0.3463  0.5107
 5981W        W22455   7.041   2.250  13.106 -0.2064 -0.3091 -0.1868
 5982W        W22456  13.211   7.838   2.176  0.4220 -0.0813  0.0366
 5983W        W22457   0.615   3.338  11.038  0.4726 -0.0492 -0.1600
 5984W        W22458   4.283  18.777   4.616  0.1444 -0.0634 -0.1703
 5985W        W22459  14.490   3.189  14.335 -0.1260  0.0595 -0.4022
 5986W        W22460  13.392   8.477   2.363 -0.3728 -0.1056 -0.0477
 5987W        W22461  15.373   0.311  13.045 -0.0993  0.3722  0.0917
 5988W        W22462  16.757   8.179   0.995  0.0892 -0.2789 -0.1841
 5989W        W22463  11.845  18.115   1.295 -0.2488  0.0370  0.0074
 5990W        W22464   4.777   7.646   3.009  0.1408  0.2736 -0.0203
 5991W        W22465  18.006   8.813  14.497  0.4954  0.0148  0.0273
 5992W        W22466   5.394  12.210  10.836 -0.2263 -0.0706 -0.2128
 5993W        W22467  14.629   1.206  14.205 -0.4599 -0.0107  0.2381
 5994W        W22468   8.706  18.642  13.609  0.2377  0.3614  0.0358
 5995W        W22469  18.278  14.613  14.751 -0.3890 -0.0550  0.2949
 5996W        W22470   0.872  10.621   2.657  0.0979  0.2933 -0.0144
 5997W        W22471  10.012  15.365   0.699  0.1119  0.1028 -0.0709
 5998W        W22472  13.429  14.598  14.203 -0.1806 -0.0543 -0.1380
 5999W        W22473   8.613   9.442   2.643 -0.0822 -0.4240 -0.1577
 6000W        W22474  11.696   7.650   4.053 -0.3774 -0.1384  0.3276
 6001W        W22475  11.078   4.389  13.713  0.1882  0.1118 -0.0633
 6002W        W22476   8.180  18.128   0.243 -0.1029  0.3387 -0.1321
 6003W        W22477  10.899   4.083   2.348 -0.3410  0.1244  0.1586
 6004W        W22478   1.640  18.589  14.046 -0.0302  0.4028 -0.2512
 6005W        W22479  16.307  17.289   1.099  0.1238 -0.3907  0.1272
 6006W        W22480  14.631  10.203  11.014  0.1991 -0.2535  0.1632
 6007W        W22481  12.105   7.352  11.480 -0.1624 -0.0029  0.1998
 6008W        W22482  11.383  13.721   5.435 -0.0570  0.1105  0.0875
 6009W        W22483   2.106   3.536  13.354  0.0618  0.1846 -0.1737
 6010W        W22484   5.110   7.734   3.319 -0.1095 -0.4402  0.0207
 6011W        W22485   5.755  13.945  15.297 -0.1540  0.2804  0.1324
 6012W        W22486   7.753   5.179   1.291 -0.1915 -0.2497 -0.0658
 6013W        W22487   0.008   2.754   2.780 -0.1735  0.4625 -0.2324
 6014W        W22488   9.090   6.872  12.618  0.0097  0.0937 -0.2037
 6015W        W22489   2.462   7.348   0.008  0.0442  0.4044  0.0030
 6016W        W22490   9.552   0.593   3.388 -0.1387 -0.3069 -0.1727
 6017W        W22491  17.638  15.046  11.199  0.1591  0.2621  0.2087
 6018W        W22492  12.194  15.580   0.301 -0.3966 -0.1844 -0.3509
 6019W        W22493  13.159   1.663  12.053  0.1402  0.1616 -0.0050
 6020W        W22494   1.030   7.470  13.700 -0.0029 -0.3616  0.1134
 6021W        W22495   6.393  16.782  11.963  0.1370 -0.0876  0.0549
 6022W        W22496   1.858   4.107  13.460  0.0801 -0.0553  0.0577
 6023W        W22497   1.332  13.847   2.236 -0.1826  0.1873  0.0825
 6024W        W22498  13.163   4.920   0.932 -0.0493 -0.1736  0.0692
 6025W        W22499   6.681   2.484  11.211 -0.0897 -0.2267 -0.1722
 6026W        W22500   8.333  12.936  13.247  0.0963 -0.0848  0.0384
 6027W        W22501  16.659  18.071   0.193 -0.0117 -0.1413  0.2634
 6028W        W22502   0.743   7.590   4.822 -0.0764  0.0816 -0.0787
 6029W        W22503   8.255  15.956  11.119  0.0316 -0.0620  0.2380
 6030W        W22504  16.797   8.845  14.597 -0.1032  0.0075 -0.1115
 6031W        W22505   6.097  18.126   5.311  0.1676 -0.1539 -0.0660
 6032W        W22506  17.572   2.079   0.484 -0.0079  0.0854 -0.0880
 6033W        W22507  17.786  15.274   0.458  0.2387  0.0243 -0.1365
 6034W        W22508  14.162   6.343  13.950  0.3344 -0.0560  0.0027
 6035W        W22509   8.726   2.791  12.962 -0.1786  0.2949  0.2439
 6036W        W22510  10.143   4.506   0.916  0.2618 -0.1878 -0.2807
 6037W        W22511  13.785  13.763   4.862 -0.2359 -0.0298  0.0268
 6038W        W22512  12.396   0.235   0.142  0.1229  0.2353  0.0082
 6039W        W22513  12.373   3.367  14.209 -0.1721  0.1492 -0.1159
 6040W        W22514   2.313   7.334  14.050  0.0244 -0.2111 -0.1000
 6041W        W22515  12.943   7.104   5.838  0.0874 -0.1040  0.0150
 6042W        W22516   3.517  16.886   3.922 -0.2361 -0.0971  0.2483
 6043W        W22517   1.783  12.829  10.328  0.0669  0.2917 -0.0085
 6044W        W22518  10.586  11.716  12.970  0.0494 -0.0405 -0.1979
 6045W        W22519   7.159   2.454  15.129  0.1688  0.2600  0.3236
 6046W        W22520   3.242   9.339  10.596 -0.1381  0.0685  0.4417
 6047W        W22521  11.639   2.222  15.236  0.3329  0.1568 -0.0505
 6048W        W22522   2.626  10.972   9.813  0.0978  0.0136 -0.1313
 6049W        W22523   4.562   6.455   1.610 -0.1657 -0.2048 -0.0176
 6050W        W22524  15.710   0.034   0.872 -0.0954  0.2145 -0.3673
 6051W        W22525   0.410   0.071   2.245  0.5736 -0.1164 -0.0793
 6052W        W22526   4.296   0.923  14.434  0.2491  0.1391  0.0328
 6053W        W22527   4.773  17.107   5.611  0.0213  0.3004 -0.0819
 6054W        W22528   2.114   5.415   1.527 -0.1710 -0.0551  0.2252
 6055W        W22529   6.131   4.361   5.108 -0.1678  0.0933  0.0106
 6056W        W22530   3.052  12.284   3.026  0.1737 -0.2667  0.2066
 6057W        W22531   4.623  14.605  12.757  0.2118 -0.0741 -0.2762
 6058W        W22532  18.351   0.948   1.325 -0.3920 -0.1931 -0.3684
 6059W        W22533   7.388   7.352   5.339 -0.4447 -0.2136 -0.1154
 6060W        W22534   9.645   9.217  13.639 -0.0953  0.2294  0.1542
 6061W        W22535   7.573  15.642   4.548  0.1137  0.1529  0.0661
 6062W        W22536   9.263  15.871   6.364 -0.0386  0.0933  0.0875
 6063W        W22537  17.130  16.578  11.931  0.1409 -0.0861 -0.0416
 6064W        W22538   8.957   8.933  14.975 -0.0558  0.0213 -0.1515
 6065W        W22539   1.874   9.252   1.386  0.2325  0.0962  0.2823
 6066W        W22540   1.187   8.372  14.227  0.2095  0.2305  0.6035
 6067W        W22541   2.543   0.566  10.814 -0.1125  0.1787  0.0274
 6068W        W22542   7.066   5.864  12.624  0.0931  0.2519  0.0110
 6069W        W22543   7.841   7.298  14.799 -0.1487 -0.0063 -0.1922
 6070W        W22544  12.781   3.960   1.978  0.0302  0.0588 -0.0439
 6071W        W22545  14.556   5.158  11.680  0.2259 -0.1195  0.0823
 6072W        W22546  11.699   3.977   2.106 -0.0029 -0.1310  0.0044
 6073W        W22547   6.712  12.201   2.875 -0.0723 -0.1695  0.2004
 6074W        W22548   7.436  18.157  14.308 -0.2565  0.0063  0.0404
 6075W        W22549  12.368   9.717   1.526 -0.0554  0.0565 -0.0649
 6076W        W22550   4.478   5.045   4.469 -0.0515  0.0057  0.1274
 6077W        W22551  13.403   9.714   3.509 -0.1260  0.4521 -0.0882
 6078W        W22552   8.290   3.054   2.087  0.0702  0.0769 -0.0165
 6079W        W22553   8.496   2.652  11.920  0.2028 -0.2880  0.0404
 6080W        W22554  10.692  14.660  12.332 -0.0053 -0.2804  0.0013
 6081W        W22555   4.468  12.165  12.916  0.0375 -0.1126 -0.1013
 6082W        W22556   4.456   9.857  11.045 -0.0668  0.0870 -0.1471
 6083W        W22557  17.426  11.308   2.715 -0.1033 -0.1988  0.0897
 6084W        W22558  13.578   9.749   0.258 -0.1319 -0.2524  0.0929
 6085W        W22559   3.485  18.283  10.584 -0.3150  0.1289  0.0006
 6086W        W22560  11.461   9.527   5.182 -0.2108 -0.0208 -0.0998
 6087W        W22561  15.290  15.660  14.188 -0.0900 -0.0649 -0.2580
 6088W        W22562   4.732   0.180   3.735 -0.3987  0.1441 -0.1440
 6089W        W22563   7.352   3.100  12.648 -0.2130  0.1977 -0.0546
 6090W        W22564   9.444  18.298   3.680 -0.0030 -0.2859 -0.1699
 6091W        W22565  13.637   9.357  12.543  0.1325 -0.0866  0.1014
 6092W        W22566   7.049   8.688  13.271  0.0659  0.3386 -0.2072
 6093W        W22567   5.285   3.158   0.278  0.0120  0.1674 -0.3298
 6094W        W22568   7.452  10.112   1.251 -0.2500 -0.0771  0.1692
 6095W        W22569   5.930  18.367  11.291  0.0087  0.1621 -0.2745
 6096W        W22570   9.293  11.886  14.601 -0.2725  0.0649 -0.0694
 6097W        W22571  16.868  12.730  14.537  0.2277  0.0398 -0.0755
 6098W        W22572  12.088   6.496  14.203 -0.1618  0.0508  0.1346
 6099W        W22573   1.384   0.818  11.494 -0.1882  0.0522 -0.1967
 6100W        W22574   9.737   6.255  13.436  0.0030 -0.1247 -0.0032
 6101W        W22575  13.483  13.561   2.466  0.2201 -0.0960  0.1284
 6102W        W22576  14.452   0.622  14.662 -0.1868 -0.0398  0.0911
 6103W        W22577  17.780  17.917  11.949  0.3205  0.2563  0.0932
 6104W        W22578  17.793  13.123   4.878  0.0955 -0.0870  0.1553
 6105W        W22579  10.593  12.013  12.552  0.1796 -0.2914 -0.0928
 6106W        W22580  18.725  14.872   0.418  0.0447 -0.1610 -0.1134
 6107W        W22581   1.864   6.981   4.828 -0.0842 -0.0546  0.0976
 6108W        W22582  11.901   3.522  12.583  0.0914 -0.2751  0.2055
 6109W        W22583  15.638   2.764   2.949  0.1411  0.0592 -0.0308
 6110W        W22584  15.484  10.327   2.053 -0.0672 -0.0550  0.2802
 6111W        W22585  11.072   8.502   2.939  0.0217  0.0212  0.0271
 6112W        W22586  12.737   7.161  12.608  0.0686 -0.0924 -0.2055
 6113W        W22587  11.112   8.428   0.059 -0.1052 -0.1664  0.3299
 6114W        W22588   2.904   2.753   2.294 -0.2231  0.2225 -0.1146
 6115W        W22589   0.838   5.649  12.334  0.2220 -0.0494  0.0373
 6116W        W22590   5.593   0.437   3.768 -0.0086 -0.1828 -0.0719
 6117W        W22591   1.913  17.367   3.805  0.0087  0.1257  0.0612
 6118W        W22592  13.882   7.618  11.967 -0.0953  0.2548  0.1594
 6119W        W22593   5.980   4.728   2.525  0.0243 -0.1671  0.1766
 6120W        W22594  16.069   6.944   3.060 -0.1543 -0.0086  0.0549
 6121W        W22595   4.385   8.295   0.379  0.0060  0.1466 -0.0888
 6122W        W22596   2.039  10.149  12.312 -0.0260 -0.1256  0.1713
 6123W        W22597  15.313   2.415   4.854 -0.1015 -0.2846  0.0765
 6124W        W22598  16.606   0.588   2.027  0.0573  0.1187  0.0725
 6125W        W22599   6.136   8.470  11.632 -0.1112  0.1495 -0.1988
 6126W        W22600   0.004  13.492  14.609 -0.0429 -0.1929  0.0690
 6127W        W22601   3.531  12.115  15.412 -0.4486 -0.1267 -0.0184
 6128W        W22602   2.478  17.731  15.347  0.2541 -0.1747  0.3295
 6129W        W22603   3.147   2.367   2.804 -0.0764 -0.0300  0.1596
 6130W        W22604   4.977  10.274   4.787 -0.1085  0.1989  0.4753
 6131W        W22605   4.881   8.336   3.726  0.2244 -0.0133  0.1356
 6132W        W22606   3.459  10.716  15.074 -0.0812  0.0863 -0.1604
 6133W        W22607  10.340   6.332   4.142 -0.4642 -0.4460  0.4043
 6134W        W22608   5.569   8.024  13.873  0.0265 -0.0275 -0.0281
 6135W        W22609   6.740  13.858   5.116 -0.2301  0.0416  0.1878
 6136W        W22610   3.498   8.910  12.353 -0.2526 -0.0749 -0.0516
 6137W        W22611   2.652  11.711  12.107  0.0652 -0.1861 -0.1483
 6138W        W22612   5.584  18.728  13.097 -0.1978 -0.0529  0.2842
 6139W        W22613   7.982   1.301   3.744  0.0568  0.0643  0.0284
 6140W        W22614  18.065   8.620  11.141  0.1782  0.0825  0.0284
 6141W        W22615   4.608  15.891   1.944  0.0957 -0.1493 -0.1788
 6142W        W22616   5.206  11.233  14.458 -0.1186 -0.0294  0.2130
 6143W        W22617   1.101   9.308   3.848 -0.2669 -0.2760 -0.1496
 6144W        W22618   6.969  14.532  12.553  0.0654  0.2902  0.2761
 6145W        W22619   9.880  15.780   3.747  0.1507 -0.0875  0.1373
 6146W        W22620  10.829  18.008   0.910 -0.1904  0.0340  0.3102
 6147W        W22621   1.935   3.144   4.537 -0.0975  0.3264  0.4159
 6148W        W22622  15.876   3.876   4.884  0.1945 -0.1785  0.0320
 6149W        W22623  11.368   9.170  11.247 -0.1523  0.2048 -0.0927
 6150W        W22624   0.101   5.695   4.352  0.1813  0.0399  0.2822
 6151W        W22625   6.999  13.499   4.869 -0.2685  0.4034  0.1611
 6152W        W22626   5.497   1.914   3.478 -0.0257  0.0861  0.2377
 6153W        W22627   6.152  13.450   4.564 -0.0494  0.0074  0.1317
 6154W        W22628  13.326  13.386  15.013 -0.0666  0.1574  0.1084
 6155W        W22629  16.743   2.287   4.277  0.2442 -0.2440 -0.1193
 6156W        W22630  10.647   4.913   1.525  0.0075  0.0094  0.2210
 6157W        W22631   8.301  17.270  11.621  0.4452  0.0470  0.0446
 6158W        W22632   8.489  14.744   2.047  0.4638 -0.2732  0.0724
 6159W        W22633  10.409  13.890   5.112 -0.1082 -0.1778  0.2409
 6160W        W22634  14.003   9.549   0.659  0.0052  0.1502  0.3964
 6161W        W22635   7.380   0.893   2.999  0.0020  0.0186 -0.3110
 6162W        W22636   0.746   6.247   3.204 -0.3900  0.3597  0.0571
 6163W        W22637  10.575   3.506   2.586 -0.0442  0.0175  0.1810
 6164W        W22638  13.685   9.465  12.995 -0.2431  0.2579  0.2314
 6165W        W22639  12.406   4.383   2.524 -0.0405  0.0008 -0.2766
 6166W        W22640   6.769  14.441  12.011 -0.2731  0.0222 -0.4151
 6167W        W22641   0.383   8.473   4.131  0.2161  0.2517  0.0336
 6168W        W22642   1.447  11.886   4.615 -0.3913 -0.0548 -0.3170
 6169W        W22643   9.675   0.785  12.518  0.1693  0.0429 -0.2536
 6170W        W22644   5.179  11.936  14.585 -0.0033 -0.3349  0.3468
 6171W        W22645   9.991  14.392  12.799 -0.2578  0.1360  0.1924
 6172W        W22646  17.019   6.733   2.635  0.1912  0.3906  0.0693
 6173W        W22647  14.668   5.890  11.785  0.0324  0.0784 -0.0006
 6174W        W22648   3.386   3.142   0.643 -0.0878 -0.2193 -0.2757
 6175W        W22649   5.553   5.155   1.270 -0.0932 -0.0563 -0.1632
 6176W        W22650  13.474   9.913  11.585 -0.0571  0.1989  0.1197
 6177W        W22651   0.953  17.133   4.588 -0.1167  0.1204 -0.0631
 6178W        W22652   1.988   7.489   4.828 -0.0972  0.1113  0.1900
 6179W        W22653   1.428   0.225   1.692 -0.0929 -0.2523  0.0349
 6180W        W22654  15.225  18.211   3.009  0.0718  0.1175 -0.2246
 6181W        W22655  15.022   9.061  11.537 -0.0123 -0.1055 -0.1470
 6182W        W22656   9.988   8.367   5.555  0.4472 -0.1110  0.1647
 6183W        W22657   0.697  17.361   0.485 -0.1433 -0.0939  0.0416
 6184W        W22658   5.611  17.698  10.831  0.0838 -0.1023  0.1654
 6185W        W22659   3.952   1.696   1.678  0.1449 -0.1666  0.1600
 6186W        W22660  11.185   7.563  11.966 -0.0380 -0.0567 -0.1008
 6187W        W22661  12.532   2.778  12.941  0.1035  0.5604  0.1550
 6188W        W22662  14.326   3.295  12.933 -0.2484  0.0312 -0.0035
 6189W        W22663   0.290   0.198  12.905 -0.0748 -0.0315  0.1404
 6190W        W22664   1.380   4.684  12.865  0.0896  0.2602  0.2745
 6191W        W22665   9.500   3.568   3.156  0.1666 -0.0907 -0.1318
 6192W        W22666   4.739   3.166   4.807 -0.0056  0.0816  0.1865
 6193W        W22667   3.735   4.206  13.051  0.0618  0.2707  0.0951
 6194W        W22668   3.036   6.497  12.272 -0.2488  0.2608 -0.2764
 6195W        W22669  13.361   9.705  10.048 -0.2313 -0.0683  0.2918
 6196W        W22670   5.831  12.077  13.642 -0.1510 -0.0173  0.2133
 6197W        W22671  16.624  13.477   5.220 -0.0420 -0.0674  0.0155
 6198W        W22672   0.432  13.183   1.977 -0.0152 -0.1593  0.2242
 6199W        W22673   8.544  11.583  12.917 -0.4208  0.1047  0.1975
 6200W        W22674   0.930  16.976  12.606 -0.4099  0.0741 -0.0504
 6201W        W22675  17.601   7.142  10.254  0.0669 -0.0854 -0.1921
 6202W        W22676   5.070  14.456   0.260  0.2110  0.1618  0.2878
 6203W        W22677   9.025   9.155   0.297 -0.0259 -0.2471  0.1550
 6204W        W22678   9.687   7.066  11.830 -0.0909 -0.2041 -0.2493
 6205W        W22679   6.058  16.554   4.446  0.0454 -0.2622  0.0327
 6206W        W22680   0.510  15.032  12.400  0.1127 -0.2396  0.1384
 6207W        W22681   5.547  18.141  12.630  0.0171 -0.0147 -0.0472
 6208W        W22682   9.227  18.660   5.810  0.0451  0.0693  0.0602
 6209W        W22683  13.454  17.046   4.855  0.1147 -0.2681 -0.3775
 6210W        W22684  16.324   8.012  10.322 -0.1974  0.0425 -0.0052
 6211W        W22685  10.383  12.978  12.190  0.2198 -0.0843  0.0157
 6212W        W22686   9.402   7.793  12.854  0.1000  0.0320  0.2093
 6213W        W22687  17.207  17.083   0.165  0.2408 -0.3438  0.0312
 6214W        W22688   8.344   8.808   9.840 -0.1576 -0.1033 -0.3212
 6215W        W22689  15.280   5.185  12.041  0.2070  0.0742  0.1502
 6216W        W22690   7.065   9.347   0.069  0.0084 -0.1304 -0.1935
 6217W        W22691  16.849  15.193   1.622  0.1687  0.1066 -0.0119
 6218W        W22692   7.500   6.103  12.502  0.0656 -0.0053  0.1349
 6219W        W22693   7.263   7.344   4.774 -0.0530 -0.1879 -0.0686
 6220W        W22694  11.034   3.567  15.505 -0.1705  0.2038  0.0446
 6221W        W22695   9.693  11.129   0.674 -0.3033  0.1337 -0.0304
 6222W        W22696   0.233   3.913   3.886 -0.0849  0.1916  0.0721
 6223W        W22697   0.564   7.244  11.222 -0.0605  0.0370 -0.1873
 6224W        W22698   2.300  15.909   4.346 -0.2050 -0.2711  0.0560
 6225W        W22699  17.485  13.119  12.243 -0.0715  0.2485 -0.1819
 6226W        W22700  11.857  14.022  11.620 -0.1648 -0.2748  0.0018
 6227W        W22701   5.647   1.068   1.452  0.0467  0.1787 -0.2518
 6228W        W22702  13.383  10.488  15.004  0.1185  0.4572 -0.0965
 6229W        W22703   8.874   0.626   1.493  0.0595 -0.1025  0.0098
 6230W        W22704   2.214  18.389   4.873  0.1550  0.1756 -0.4748
 6231W        W22705  13.210  15.212   1.611 -0.0424  0.1871  0.3818
 6232W        W22706   6.004  13.734   0.100  0.0990 -0.1188 -0.0011
 6233W        W22707   6.840   0.849   1.592  0.5205  0.2042 -0.1064
 6234W        W22708   1.564   0.545   0.416  0.0047 -0.1532 -0.4325
 6235W        W22709   2.073  17.520  15.157  0.2624 -0.0136 -0.1952
 6236W        W22710  13.661  18.052  10.639 -0.1841  0.1597  0.0976
 6237W        W22711  12.584   8.576  12.172 -0.0305 -0.0491 -0.1445
 6238W        W22712   5.272  10.174  13.305  0.2136 -0.1185 -0.0699
 6239W        W22713  18.638  11.976   2.755  0.2824 -0.0009  0.3109
 6240W        W22714   0.046  15.444   4.096  0.3272 -0.4864  0.0781
 6241W        W22715  10.877   4.175   1.866 -0.0501  0.0758  0.0910
 6242W        W22716   6.934   6.659  11.058  0.0174  0.2881  0.2391
 6243W        W22717   7.252   8.442   0.781 -0.0669 -0.3127 -0.0521
 6244W        W22718  17.671   0.426  11.886  0.1834  0.1214 -0.1963
 6245W        W22719  16.121   8.420   1.035  0.0388  0.1663 -0.0678
 6246W        W22720  11.094  17.378  11.192 -0.0792 -0.1026 -0.2216
 6247W        W22721   1.799   7.716   3.857 -0.0674 -0.0403 -0.0630
 6248W        W22722  16.839   9.812   3.924  0.1127  0.1601  0.1057
 6249W        W22723   7.131  11.481   1.803 -0.1510  0.2112 -0.0621
 6250W        W22724  17.879   0.331   3.675  0.4553  0.0721 -0.0421
 6251W        W22725   0.934   6.152   4.162  0.0864 -0.0331  0.3571
 6252W        W22726   9.089  13.426   2.105  0.1452  0.2041 -0.0727
 6253W        W22727  12.700   4.577  12.960 -0.0832  0.1441 -0.5139
 6254W        W22728   0.978   0.625   4.299 -0.0710 -0.1923 -0.2817
 6255W        W22729  16.268  12.222  13.947 -0.1267  0.1138 -0.3212
 6256W        W22730   0.908   2.650   1.317 -0.1449  0.1400  0.1612
 6257W        W22731   2.000   9.368  13.160  0.0777 -0.0762 -0.3146
 6258W        W22732   9.130   8.822  11.931 -0.1202  0.3737  0.2533
 6259W        W22733   0.314   3.233  15.104  0.0870  0.0587 -0.1952
 6260W        W22734  10.649   5.734  15.107 -0.1606  0.2956 -0.2310
 6261W        W22735  18.395  11.806  11.768  0.0263  0.2144 -0.3693
 6262W        W22736   3.762  12.704  10.977  0.1151 -0.0716  0.1823
 6263W        W22737   1.890   4.448   3.742  0.1006  0.1784  0.0504
 6264W        W22738   8.094   9.359   2.594 -0.0133  0.0191 -0.1416
 6265W        W22739   1.682   4.469   1.752 -0.1242  0.2173 -0.0103
 6266W        W22740   1.606  17.696  14.261 -0.0288 -0.4026  0.1723
 6267W        W22741   3.113   4.627  13.224 -0.2116 -0.0508 -0.0653
 6268W        W22742   3.067   5.833  11.331  0.0024  0.0919  0.2387
 6269W        W22743  14.111   7.315  11.600  0.1462  0.0426  0.0666
 6270W        W22744  10.931   3.927   4.874 -0.1796 -0.0541  0.4312
 6271W        W22745   4.557   0.303  15.471  0.0013  0.1427  0.2124
 6272W        W22746   1.686  10.206  15.419  0.2798 -0.0615  0.0241
 6273W        W22747  11.292  18.194  11.887  0.2268  0.0029  0.0810
 6274W        W22748  15.411  18.667   2.274  0.0680 -0.2171 -0.2182
 6275W        W22749  18.773   8.535  13.765  0.1006 -0.1655 -0.0799
 6276W        W22750  10.098   0.228  11.794 -0.0691  0.1008  0.0253
 6277W        W22751  11.967   8.365   1.129 -0.1222 -0.3056 -0.1505
 6278W        W22752   2.635   3.293  11.879 -0.0964  0.1979 -0.0558
 6279W        W22753  10.690  10.334  11.670  0.0289 -0.1115 -0.3357
 6280W        W22754  17.478   0.283  10.623 -0.0476 -0.1355 -0.0073
 6281W        W22755  16.728   5.431  14.828 -0.1828  0.1513  0.1694
 6282W        W22756   9.585  10.434   2.491 -0.1278 -0.0815  0.4261
 6283W        W22757   6.444   0.114   1.082 -0.4473  0.0118  0.1386
 6284W        W22758  17.253   3.429  12.424  0.2563 -0.1612  0.0091
 6285W        W22759   7.412  12.135  11.893 -0.0370 -0.1138  0.0202
 6286W        W22760  13.135   5.370  14.490  0.1100 -0.0354 -0.2749
 6287W        W22761  13.338  11.857   3.860 -0.0117  0.0701  0.1487
 6288W        W22762   1.774   9.937   4.833  0.0289 -0.0678 -0.1397
 6289W        W22763  14.747   6.004  15.086 -0.4552 -0.0323  0.2110
 6290W        W22764  13.104   6.393  11.758  0.0751  0.3037 -0.2688
 6291W        W22765  11.199  16.426  14.071 -0.1439 -0.0163 -0.0110
 6292W        W22766  18.629  16.078   3.323 -0.1820  0.0498  0.0349
 6293W        W22767   6.281  14.189  10.856 -0.3347  0.2090 -0.0814
 6294W        W22768   6.699  14.529   0.289 -0.0467  0.0590 -0.1129
 6295W        W22769   4.162  13.971  11.288 -0.2373  0.1325  0.1749
 6296W        W22770  13.788   6.483   5.391 -0.1170 -0.0157  0.1276
 6297W        W22771  18.635   0.780   2.773 -0.1415 -0.1432  0.1656
 6298W        W22772  18.355   8.050  11.501 -0.0545  0.1941  0.4351
 6299W        W22773   8.730   4.374   0.679  0.0717  0.2136  0.0354
 6300W        W22774  14.670   1.681  13.727  0.2199 -0.0663 -0.0597
 6301W        W22775  15.326   8.235   4.199  0.3823  0.0406  0.0516
 6302W        W22776  14.134  11.506   4.555  0.1534  0.1959  0.2836
 6303W        W22777  12.306  12.549   3.230  0.1125  0.0377 -0.1775
 6304W        W22778  16.694  10.592   0.128  0.0044  0.0855  0.2065
 6305W        W22779   6.403   4.840  14.621 -0.1011  0.2009  0.1023
 6306W        W22780   4.180   0.783   1.082  0.0167 -0.0811  0.1357
 6307W        W22781  12.002   0.338   1.391 -0.0579 -0.0700 -0.2545
 6308W        W22782  13.093  16.053  11.393 -0.1810 -0.2330 -0.0203
 6309W        W22783   0.212  16.430  15.487  0.1393  0.0546  0.0522
 6310W        W22784  14.384  14.480   5.426  0.1331  0.0245 -0.0726
 6311W        W22785   2.393   1.101   4.650 -0.1834 -0.0240 -0.0115
 6312W        W22786   1.256   5.947   4.509  0.2240 -0.1358 -0.2022
 6313W        W22787   5.624  11.724   0.794 -0.0820  0.0065  0.0483
 6314W        W22788  17.319   3.949   0.871  0.1811  0.1299 -0.4819
 6315W        W22789  10.280  15.247   3.309  0.3498 -0.2328  0.0422
 6316W        W22790  17.631  13.217  11.506 -0.2156 -0.1321 -0.0189
 6317W        W22791   8.227   1.213   0.173 -0.0762 -0.2295 -0.1610
 6318W        W22792  15.060  13.743   0.581  0.1454  0.1194 -0.0286
 6319W        W22793  15.489   8.957  12.410  0.1406 -0.0842 -0.0643
 6320W        W22794   6.292   2.825  11.074 -0.0380  0.0929 -0.1819
 6321W        W22795  14.986  13.181   0.491  0.1381 -0.3560 -0.1213
 6322W        W22796  18.098  11.937  15.192  0.0344  0.0124  0.2188
 6323W        W22797   0.231  10.061  14.050 -0.0262  0.0975  0.0609
 6324W        W22798   5.453   7.139   1.834 -0.0256 -0.1113 -0.3301
 6325W        W22799  14.057  11.977  13.494  0.1365  0.2041  0.1471
 6326W        W22800   3.707   9.181  10.589  0.2427  0.1301 -0.0091
 6327W        W22801  18.744   2.487   2.332  0.2303 -0.1586  0.1160
 6328W        W22802   1.431  14.555   1.697  0.0383  0.1578 -0.1817
 6329W        W22803   4.505  15.681  11.186  0.1151 -0.3555  0.1949
 6330W        W22804   2.848  18.277   3.409  0.1002 -0.0298 -0.2177
 6331W        W22805   9.803   3.218   2.951  0.0306 -0.0812 -0.0077
 6332W        W22806   9.448  12.724   1.027  0.0248 -0.2118  0.1690
 6333W        W22807   3.560   5.605   5.772  0.0334 -0.1461  0.1405
 6334W        W22808  12.933   7.256   0.241  0.3898  0.0860 -0.0086
 6335W        W22809   3.191   5.773  14.525 -0.0613  0.2970  0.0994
 6336W        W22810   8.076   7.772  14.893  0.1316  0.0958  0.0392
 6337W        W22811  15.660   4.710  12.321 -0.0791  0.0281 -0.0633
 6338W        W22812  15.727  11.969   3.605 -0.0989  0.2105  0.2322
 6339W        W22813   3.612   2.255   4.805  0.0611 -0.0687  0.3264
 6340W        W22814  18.513   1.820   0.686 -0.0948  0.2349 -0.1702
 6341W        W22815   4.562   8.714   3.912 -0.2252  0.0468 -0.4054
 6342W        W22816  10.406   2.335  14.522  0.2360  0.0140  0.0447
 6343W        W22817   6.734  18.566  13.221 -0.0322 -0.1334 -0.1037
 6344W        W22818   3.280   0.980  11.099  0.3235 -0.4374 -0.1477
 6345W        W22819  15.056   0.402  14.781  0.0301 -0.1422  0.1761
 6346W        W22820  11.662  11.519   2.347  0.0165 -0.3316 -0.1892
 6347W        W22821  12.389   2.764  14.255  0.0746  0.1083  0.2156
 6348W        W22822  12.263   3.786   5.971 -0.1453  0.2235  0.0652
 6349W        W22823  11.116  13.874  13.451 -0.0876 -0.0682  0.1215
 6350W        W22824   0.501  16.635  12.374  0.5167  0.1484 -0.0626
 6351W        W22825  15.880   3.144   3.344 -0.0134  0.4035 -0.0230
 6352W        W22826   2.493  17.668   1.705  0.1040  0.0334  0.0052
 6353W        W22827   4.899   4.485   3.231 -0.1585  0.1171  0.0374
 6354W        W22828   4.412  14.810  14.963  0.0470  0.1154  0.0232
 6355W        W22829  11.608  10.650  14.548 -0.1116  0.2022  0.0078
 6356W        W22830  10.661   9.412  11.250 -0.1688 -0.1990 -0.3194
 6357W        W22831   1.424   4.196  13.172 -0.1855 -0.2486 -0.1212
 6358W        W22832   5.670  14.207  11.822 -0.2209 -0.0980 -0.1366
 6359W        W22833  10.107  12.017  12.239  0.0290 -0.2009  0.0658
 6360W        W22834  16.396   8.829   4.389  0.0364  0.2276 -0.2490
 6361W        W22835   9.928  16.968  13.991 -0.2559 -0.0857  0.0833
 6362W        W22836   8.899   1.863   1.703  0.2738  0.0091 -0.0161
 6363W        W22837  14.311   1.443   1.788  0.1438 -0.2666  0.1208
 6364W        W22838  17.414   7.055   2.693 -0.1610 -0.0326 -0.1983
 6365W        W22839   8.382   8.938  11.822 -0.0738 -0.2537 -0.3227
 6366W        W22840  10.211   4.196  15.013 -0.2083  0.1187  0.2189
 6367W        W22841  12.935  14.660   3.217  0.1387 -0.0413 -0.0828
 6368W        W22842  10.466   8.179   2.733 -0.1098 -0.0999  0.0570
 6369W        W22843   5.696  14.558  13.849 -0.1221  0.0050 -0.2546
 6370W        W22844  15.242   0.559  12.004 -0.0463  0.2469 -0.1201
 6371W        W22845  11.264   5.806   5.830 -0.2270 -0.0469  0.1487
 6372W        W22846  10.589   8.977   3.472  0.0498  0.1025 -0.0344
 6373W        W22847  16.406  14.441  11.223 -0.2173  0.0602  0.0514
 6374W        W22848   9.958   6.322  11.222  0.3412 -0.0542  0.0356
 6375W        W22849  14.704   0.508   0.119 -0.0399  0.2565  0.1462
 6376W        W22850  11.348  18.590  12.188 -0.0901  0.0342 -0.1227
 6377W        W22851  13.880   8.107  14.129  0.1042 -0.0036  0.1238
 6378W        W22852  13.143  18.108   0.333 -0.3339 -0.0082 -0.0257
 6379W        W22853  10.196   8.438   1.306  0.2382 -0.0476 -0.0676
 6380W        W22854   3.075  17.565   3.931 -0.1450  0.3351 -0.2289
 6381W        W22855  15.357  13.886   3.419 -0.0569 -0.0234 -0.0356
 6382W        W22856   1.411   7.886   3.070 -0.2034 -0.0247 -0.0553
 6383W        W22857  15.938  13.362   2.368 -0.0820 -0.0487  0.4551
 6384W        W22858   2.653   8.950  13.470 -0.1362  0.0399 -0.0976
 6385W        W22859   4.166  16.493  14.944  0.0976  0.2715 -0.0131
 6386W        W22860   3.345  16.460  13.838  0.2076  0.0295 -0.0199
 6387W        W22861   1.766  11.204   0.223 -0.0751  0.1001  0.0673
 6388W        W22862   2.720   7.604   1.401  0.2875  0.0309 -0.0584
 6389W        W22863  12.718  14.482   1.318 -0.2076 -0.0136 -0.1241
 6390W        W22864   1.744   6.119   2.189  0.0255  0.1545 -0.3062
 6391W        W22865   7.445   9.391   0.988 -0.0867  0.0312  0.0576
 6392W        W22866  18.468  12.623   1.463  0.0217 -0.0048 -0.0913
 6393W        W22867  14.595   9.811  11.353 -0.0569 -0.1078  0.0363
 6394W        W22868  18.755   1.082   3.724  0.2631  0.2278 -0.0804
 6395W        W22869  14.899   0.537   4.760 -0.4200 -0.0386  0.3634
 6396W        W22870   5.615   7.136  11.539  0.0504 -0.0669 -0.2833
 6397W        W22871   2.107  15.655   3.915  0.0659 -0.0919 -0.0295
 6398W        W22872   9.083   9.262  12.356 -0.0361  0.2178 -0.1580
 6399W        W22873  12.914   6.917   2.253 -0.1698  0.2911 -0.2772
 6400W        W22874   4.076   5.532  14.216 -0.0519 -0.4159 -0.2194
 6401W        W22875  13.811  18.601  11.341 -0.3302 -0.1176 -0.3494
 6402W        W22876   4.699   5.918   3.371  0.2395 -0.4111  0.0196
 6403W        W22877  13.227   6.839  11.974  0.0890 -0.0372  0.0197
 6404W        W22878   7.235  10.176  13.034  0.0202 -0.1526 -0.1206
 6405W        W22879  16.776  10.416  13.407  0.3411  0.2259 -0.2103
 6406W        W22880   7.398  11.714   2.144  0.2202 -0.2244  0.3780
 6407W        W22881   1.218  12.469  13.765 -0.1550 -0.0530  0.0441
 6408W        W22882   0.333  16.806  11.460 -0.1844  0.1087 -0.1370
 6409W        W22883  14.494   5.540  15.459 -0.1102  0.1165  0.1923
 6410W        W22884  13.703   5.108   3.249 -0.3080 -0.1649  0.1711
 6411W        W22885  15.076  13.598  15.184 -0.1807 -0.0108  0.2656
 6412W        W22886   4.886  14.031   2.891 -0.4289  0.1175 -0.2364
 6413W        W22887  10.584   9.545   5.196  0.2451 -0.1216  0.2491
 6414W        W22888   6.862  15.823  15.233  0.2027 -0.4083 -0.1145
 6415W        W22889  13.517   5.931  12.423 -0.0261  0.3164 -0.0083
 6416W        W22890  15.883  18.281  11.735 -0.2768 -0.2629 -0.0366
 6417W        W22891   6.651   9.864   1.326  0.0528 -0.3292 -0.0561
 6418W        W22892  17.763   5.642   0.695  0.3627 -0.2647  0.4098
 6419W        W22893   8.457   7.604  15.160 -0.0541 -0.0753  0.0616
 6420W        W22894  12.737   8.781   4.042 -0.1858  0.1370  0.4018
 6421W        W22895  14.602  17.582  11.289 -0.2652  0.4022 -0.1339
 6422W        W22896   0.981   5.337   0.358  0.0754  0.4404  0.0618
 6423W        W22897   2.135   5.623  14.896  0.0969  0.3132 -0.1125
 6424W        W22898  17.492   2.072  13.735  0.1521 -0.0579  0.1128
 6425W        W22899  13.782   2.752   3.613  0.0179 -0.1618  0.0868
 6426W        W22900   5.185   5.656  11.592 -0.0097 -0.0866  0.0788
 6427W        W22901  12.676  10.657   4.872  0.1189 -0.0742 -0.2023
 6428W        W22902  12.591  15.913   2.604 -0.1438  0.0973 -0.0257
 6429W        W22903   8.882  14.595   0.879 -0.0290 -0.1699  0.1184
 6430W        W22904  10.790  15.284   2.461 -0.3631 -0.1747 -0.0932
 6431W        W22905   3.497   4.450  13.892  0.2672 -0.2056 -0.1688
 6432W        W22906  17.809   1.634  11.220  0.0006 -0.2210  0.1149
 6433W        W22907   6.435   5.527   2.008  0.0630 -0.1999  0.3389
 6434W        W22908   2.902  17.330  13.996 -0.3663  0.2506  0.2221
 6435W        W22909  12.485  18.057   1.811  0.1145 -0.0492  0.3280
 6436W        W22910  10.538   5.933  11.559  0.0452  0.4014  0.1680
 6437W        W22911  17.559   4.251   3.014  0.0797  0.0979 -0.0476
 6438W        W22912  11.998  10.989  14.507 -0.1721  0.1382  0.0983
 6439W        W22913   6.514  15.250   3.422 -0.0445  0.0502  0.0155
 6440W        W22914  18.202  11.083   2.221  0.2564  0.2243 -0.0686
 6441W        W22915   1.356   7.783  13.419  0.2413 -0.1370  0.0727
 6442W        W22916  14.014   3.404   0.750  0.5573 -0.0974  0.0793
 6443W        W22917   0.868   0.574  11.461 -0.0049 -0.3154 -0.0446
 6444W        W22918   3.643  15.519  14.432 -0.4125  0.3058  0.1662
 6445W        W22919  16.104  14.064   1.712  0.1032  0.0481  0.1607
 6446W        W22920   9.502  17.763   3.718 -0.3526  0.0763  0.2181
 6447W        W22921  17.282  14.222  15.183 -0.0255  0.0405 -0.2417
 6448W        W22922  13.027  14.262  15.122  0.1089  0.1823 -0.1395
 6449W        W22923  18.180  17.071   4.320 -0.1109  0.0649 -0.3997
 6450W        W22924   8.341  17.831  12.808  0.2873 -0.0050 -0.0674
 6451W        W22925   4.615  18.065   1.963  0.2360 -0.0710 -0.4370
 6452W        W22926  16.742   0.570  15.090 -0.0321 -0.0534 -0.3470
 6453W        W22927  13.599  18.510  14.222  0.2266  0.0025 -0.0942
 6454W        W22928   8.556   9.330  15.526  0.0880  0.0142 -0.2100
 6455W        W22929   9.368  18.448   3.115  0.2923 -0.3136  0.1471
 6456W        W22930   7.139  15.827   3.612  0.1151  0.1072  0.2720
 6457W        W22931   2.706  10.637  14.953 -0.0009  0.2045 -0.0262
 6458W        W22932  17.892   1.045   5.214 -0.1143  0.0154  0.0647
 6459W        W22933  11.706  12.334  14.342  0.1470 -0.1347 -0.2560
 6460W        W22934   4.531   6.104   3.895 -0.0551  0.2856 -0.2292
 6461W        W22935   5.744   7.611  15.528 -0.2311 -0.2843  0.0330
 6462W        W22936  17.255   2.177  11.878 -0.0543  0.1520  0.0031
 6463W        W22937   3.626  18.671  13.046  0.0164  0.0213 -0.0587
 6464W        W22938   4.681  13.277   4.120 -0.0603  0.0198  0.0606
 6465W        W22939   5.632   1.584  11.315  0.2497  0.1227 -0.0383
 6466W        W22940   7.414   1.861   0.101  0.1912 -0.0305 -0.1341
 6467W        W22941  16.816   3.308   3.747 -0.1156  0.4106  0.0507
 6468W        W22942  10.274  18.538   4.281 -0.0205 -0.1930  0.0087
 6469W        W22943  15.986  14.835   3.396 -0.0845 -0.1545  0.2378
 6470W        W22944  16.979   5.193  14.039  0.0542 -0.0124  0.2599
 6471W        W22945  17.893   1.522  14.639 -0.2260 -0.2167  0.0194
 6472W        W22946   7.002   3.430   4.277  0.0185  0.4904  0.2879
 6473W        W22947   6.928  12.549   5.315 -0.0623  0.3080  0.1167
 6474W        W22948   7.984  13.813   2.834  0.0807  0.1686 -0.2165
 6475W        W22949  15.118   9.047   5.037 -0.0513  0.0428 -0.1747
 6476W        W22950   5.181  14.077  12.788  0.0520  0.2794  0.3767
 6477W        W22951   5.780  18.115   4.962  0.0207  0.1561 -0.1480
 6478W        W22952  13.784  15.392  11.129  0.1801 -0.0839 -0.2244
 6479W        W22953  17.372   6.923   1.545  0.2120 -0.0518  0.0313
 6480W        W22954  15.297   7.419   3.670 -0.0662  0.3460  0.1187
 6481W        W22955   6.154   2.476  11.473 -0.1561 -0.3273 -0.4240
 6482W        W22956  10.158   8.605   2.734 -0.1631 -0.2187  0.3067
 6483W        W22957   0.314  18.543  12.297  0.0438  0.2174 -0.0146
 6484W        W22958  11.906  16.526  11.721  0.0743  0.0337  0.2749
 6485W        W22959  13.913  18.701   0.690  0.1602  0.0215 -0.1029
 6486W        W22960   6.275   8.049  12.454  0.2313  0.1223 -0.0211
 6487W        W22961  12.583   6.484   4.637  0.1049 -0.0072  0.0297
 6488W        W22962  13.434  16.490   1.592  0.1090 -0.0611 -0.0396
 6489W        W22963  11.858   8.917   2.542  0.1452  0.2221  0.0514
 6490W        W22964  13.517  10.651  11.215 -0.0285 -0.0669 -0.0952
 6491W        W22965  13.572   8.394  13.288 -0.4943  0.0304  0.0878
 6492W        W22966   7.688  16.582   2.610 -0.0518 -0.0990 -0.2006
 6493W        W22967  11.904   9.938  13.058  0.2008  0.1416  0.3085
 6494W        W22968   4.900  18.756   0.207 -0.0602 -0.2184  0.2287
 6495W        W22969   6.871  13.510   1.202 -0.1538  0.0879  0.2316
 6496W        W22970   1.637   4.464  11.031 -0.2244  0.0483  0.2116
 6497W        W22971  11.562  11.641   0.566 -0.3364  0.1759  0.0982
 6498W        W22972  12.972  18.030  14.376 -0.0026  0.1099  0.0205
 6499W        W22973  10.013   1.676   1.539  0.4648 -0.1775 -0.0021
 6500W        W22974  10.765  18.529   0.104 -0.1828 -0.2226 -0.1055
 6501W        W22975  16.945   3.325   5.332 -0.2166  0.0299  0.3444
 6502W        W22976   6.024  18.551   1.168 -0.1351 -0.0186 -0.5023
 6503W        W22977  12.527   4.508  12.219 -0.5297 -0.0315 -0.1502
 6504W        W22978  14.333  11.360  14.170  0.1467 -0.0419 -0.0763
 6505W        W22979  12.972  17.468  15.283 -0.2513 -0.0825  0.0541
 6506W        W22980   9.665   5.076   2.240  0.0092 -0.0937 -0.2013
 6507W        W22981  18.467  14.105  12.418 -0.1250 -0.1105 -0.4080
 6508W        W22982   4.570  10.357  10.812 -0.1675  0.1095  0.0194
 6509W        W22983   6.194  12.151  13.327  0.0178  0.3048  0.1622
 6510W        W22984   2.645   2.772  12.209 -0.2520  0.0906  0.1872
 6511W        W22985   3.166   6.621   1.002  0.2565  0.0830  0.0560
 6512W        W22986   1.846   1.591  11.620 -0.1896  0.0936  0.0965
 6513W        W22987   4.543   8.760   5.356 -0.1850  0.1086 -0.2635
 6514W        W22988   9.236   0.261   0.017 -0.2998 -0.0149 -0.0984
 6515W        W22989  15.326  13.408   3.041  0.3683  0.2269 -0.0979
 6516W        W22990   1.779  15.134   0.982 -0.1692 -0.1164  0.1096
 6517W        W22991   4.043  12.455   3.261 -0.1449 -0.0483 -0.0053
 6518W        W22992  16.900  11.474  13.974 -0.1115  0.3370 -0.0196
 6519W        W22993   0.533   8.647  14.123 -0.0488 -0.1382  0.1839
 6520W        W22994  14.800  17.598   3.394  0.2929  0.0209  0.1715
 6521W        W22995   7.653  14.306   5.264  0.0521  0.1937  0.0166
 6522W        W22996   6.815   5.354   4.249  0.2067  0.0977 -0.0662
 6523W        W22997  10.480  13.919   3.250 -0.0337 -0.4593 -0.0677
 6524W        W22998   9.593  15.856  15.132 -0.1767  0.1120 -0.0905
 6525W        W22999   2.589   9.834   0.279 -0.1181 -0.0936 -0.2049
 6526W        W23000   4.321   8.411  15.039  0.1211 -0.0822  0.0674
 6527W        W23001   5.002  11.244  12.268 -0.2291 -0.0983  0.2390
 6528W        W23002   2.935   5.835   1.662 -0.0398 -0.2036  0.1552
 6529W        W23003  17.460   0.394   0.162  0.3444  0.0348  0.2128
 6530W        W23004   0.360   3.111   2.767  0.0276 -0.1795 -0.2414
 6531W        W23005  13.061   0.589   4.033 -0.0243  0.0038  0.2620
 6532W        W23006  18.743   3.779  11.868 -0.0089  0.0360 -0.1176
 6533W        W23007   8.145   5.606   5.663 -0.0052 -0.0177  0.2684
 6534W        W23008   5.589  13.426   0.899  0.0947 -0.2965 -0.0803
 6535W        W23009  14.919   6.954   5.436 -0.2578  0.0670 -0.0740
 6536W        W23010  11.249   7.155  10.404 -0.0194 -0.1047 -0.1955
 6537W        W23011   2.780  13.713   3.472 -0.0745 -0.1502  0.2700
 6538W        W23012   4.241  13.347   1.862 -0.4213  0.0103  0.0591
 6539W        W23013  14.103   1.572   2.313  0.1382  0.1466 -0.1550
 6540W        W23014   7.442   4.852   4.104 -0.0452 -0.3201  0.0050
 6541W        W23015  15.881  17.339  13.280  0.4178 -0.2105 -0.2570
 6542W        W23016  10.894   5.306  11.937  0.2985 -0.1512 -0.1002
 6543W        W23017   4.231   7.257  13.673 -0.1723  0.1798  0.0859
 6544W        W23018   3.033   2.175  10.039  0.2112 -0.2459  0.2921
 6545W        W23019   9.796  18.256   0.144  0.0794  0.1774 -0.2966
 6546W        W23020   7.286   8.028   1.997 -0.1451  0.0045  0.0171
 6547W        W23021  17.007   9.076  12.565  0.0745 -0.1736  0.2237
 6548W        W23022  10.432  15.835   4.374 -0.1066  0.1016 -0.2131
 6549W        W23023   5.945  13.241   6.040  0.0109  0.0312 -0.0915
 6550W        W23024   7.812  10.673  11.551  0.0685  0.0591  0.1948
 6551W        W23025   3.338   3.198  10.970 -0.0490  0.0364 -0.1104
 6552W        W23026  12.326  17.852   3.239  0.0180  0.0456 -0.0968
 6553W        W23027  14.498  15.976   0.703  0.0691  0.2556 -0.0900
 6554W        W23028  16.801   7.062   0.617  0.0110 -0.2019  0.0601
 6555W        W23029  10.863  14.888   3.309 -0.3544 -0.2409 -0.3878
 6556W        W23030   0.678   5.953  12.657 -0.3861 -0.2258 -0.0336
 6557W        W23031  18.433  16.587   3.370 -0.2809 -0.0577  0.3008
 6558W        W23032   6.743   7.920   1.081 -0.0488  0.2396  0.2913
 6559W        W23033  17.574  16.670  12.700  0.2005  0.1730  0.0272
 6560W        W23034  10.003  17.199   2.240 -0.0566  0.0647 -0.0795
 6561W        W23035   5.405   7.399   1.352 -0.3552 -0.3449 -0.0049
 6562W        W23036   9.624   0.552   5.269 -0.0368 -0.0875 -0.2216
 6563W        W23037  17.184   6.445   3.175 -0.3206  0.1421  0.1020
 6564W        W23038  12.933   1.823   5.174  0.0474  0.3594 -0.0721
 6565W        W23039  17.388   9.973   2.779  0.0114 -0.1081 -0.0660
 6566W        W23040  11.303   7.728  12.440 -0.1349  0.3313 -0.5325
 6567W        W23041   3.842   2.888   1.287  0.2599 -0.0622  0.1781
 6568W        W23042  18.552   3.498   4.436 -0.2041  0.0942 -0.1138
 6569W        W23043   8.099   7.571  12.063  0.4449 -0.3514  0.1778
 6570W        W23044  11.579  11.863  12.530  0.0703 -0.2587  0.2369
 6571W        W23045   5.714   7.943  11.095 -0.2575  0.2538  0.3420
 6572W        W23046   5.056  18.161  12.780  0.1946  0.0966 -0.1720
 6573W        W23047  18.523   4.733   1.886  0.4483  0.1839 -0.0869
 6574W        W23048   7.462  17.415  14.113 -0.2849  0.0158  0.0298
 6575W        W23049   5.747  11.335  12.917 -0.0392 -0.2126 -0.0627
 6576W        W23050   6.621  10.701   2.794 -0.2230 -0.1875 -0.0456
 6577W        W23051   7.367   3.849  12.629  0.1298  0.2253  0.1454
 6578W        W23052   4.327   5.886  15.207  0.1746  0.2410 -0.0199
 6579W        W23053  14.328  12.173   0.550 -0.1270 -0.0350  0.2903
 6580W        W23054  10.058  13.484   3.068  0.0013  0.1575 -0.0873
 6581W        W23055   2.514   6.748  13.039  0.4545  0.0542 -0.3269
 6582W        W23056  13.027  11.352  14.746  0.0968 -0.0198 -0.0147
 6583W        W23057  12.138   5.832  15.553  0.1232  0.3034  0.4132
 6584W        W23058   7.641  16.264   5.133 -0.3377  0.0745  0.0747
 6585W        W23059  10.240   4.080   3.031  0.0463  0.0186 -0.1349
 6586W        W23060  10.931  12.001  14.247  0.2292 -0.0813 -0.0572
 6587W        W23061   7.904   3.733  13.677 -0.1155 -0.3379  0.0985
 6588W        W23062   9.472   0.642  13.505  0.1319 -0.2194  0.3868
 6589W        W23063   4.597   1.188   1.236 -0.0564  0.3447  0.0224
 6590W        W23064  13.189  10.708   0.471 -0.0367 -0.2798 -0.1341
 6591W        W23065  17.654  17.135  10.669 -0.0297 -0.1277 -0.0657
 6592W        W23066   7.173   3.817  10.215 -0.0294  0.1028 -0.1944
 6593W        W23067  14.454   9.856   4.353  0.0400  0.0643  0.1254
 6594W        W23068   0.475   2.294   3.374  0.2109 -0.0640  0.0971
 6595W        W23069   9.110  10.947  11.507  0.1476  0.1320  0.0964
 6596W        W23070   9.078  15.474   3.903  0.3692  0.1224  0.2318
 6597W        W23071  15.452   9.933   1.160 -0.3238 -0.0578 -0.3090
 6598W        W23072   9.072  14.479  13.330  0.1811  0.0801  0.1370
 6599W        W23073   9.965   6.710  11.581  0.3064 -0.3219  0.0618
 6600W        W23074  18.618   1.379   2.792  0.1320 -0.0427  0.2179
 6601W        W23075   0.757  17.012  13.490 -0.1922  0.2377  0.2145
 6602W        W23076   3.231   2.667  13.441  0.1237  0.0212 -0.2654
 6603W        W23077  10.656  10.731  14.187 -0.0946  0.1300  0.0874
 6604W        W23078  12.788   4.648   0.651  0.0808 -0.0400 -0.1699
 6605W        W23079   6.580  14.819  14.248 -0.1926  0.3755 -0.0813
 6606W        W23080  18.130  18.546   0.710 -0.2190 -0.1223  0.1660
 6607W        W23081   8.218  12.684  14.056 -0.2961  0.0394 -0.0047
 6608W        W23082  12.653   6.732  11.003 -0.0649  0.3607  0.2434
 6609W        W23083   7.958   1.062   0.548 -0.0151 -0.0873  0.1589
 6610W        W23084  10.855   8.293  14.226  0.0032  0.0204 -0.1807
 6611W        W23085  11.173   6.303   0.490  0.0628 -0.2043  0.0657
 6612W        W23086   2.211   6.320   1.380 -0.1442 -0.3589  0.2777
 6613W        W23087  16.864  15.561   0.302  0.1363  0.1302 -0.1832
 6614W        W23088   7.479  15.863   5.944 -0.0528 -0.1697 -0.1412
 6615W        W23089  14.272   8.445  14.972  0.0274  0.0096 -0.1653
 6616W        W23090   2.957  10.334   2.663  0.0453 -0.4717 -0.0837
 6617W        W23091   8.258   8.550  12.955  0.0896 -0.2271 -0.0181
 6618W        W23092   4.268   1.144   4.328  0.1042 -0.6119  0.1410
 6619W        W23093   9.778  14.843  10.760 -0.3171 -0.1261  0.0995
 6620W        W23094   1.612   3.155   1.681 -0.0604 -0.1009  0.0308
 6621W        W23095   5.283   7.654  14.663  0.1381 -0.1299 -0.2931
 6622W        W23096  17.957   5.455   5.386  0.0946 -0.2773 -0.0379
 6623W        W23097   6.438  10.409   4.161  0.1124 -0.1098  0.1825
 6624W        W23098   7.878  11.847   1.974  0.1302  0.1832  0.1725
 6625W        W23099   7.021   2.482  12.294  0.1313  0.1159  0.0807
 6626W        W23100   3.632   5.544   2.521  0.2143 -0.1316  0.0157
 6627W        W23101   7.483   2.992  13.635 -0.1134 -0.1552 -0.1505
 6628W        W23102   8.922   6.614   2.321  0.0140 -0.1088  0.0752
 6629W        W23103   7.266  17.641   5.859  0.2752 -0.3473 -0.0516
 6630W        W23104  10.868  12.220  12.073 -0.1162  0.0908  0.0346
 6631W        W23105  10.901   2.317  10.944 -0.1837 -0.2146 -0.0532
 6632W        W23106   8.778  10.979   2.008  0.3283 -0.1069  0.1558
 6633W        W23107   0.327  18.433   1.305  0.0450 -0.0046 -0.1812
 6634W        W23108   8.516  15.026  14.666  0.1157 -0.0124 -0.2549
 6635W        W23109   6.792   5.562  12.935 -0.1183  0.0268  0.3599
 6636W        W23110  10.962  11.986   1.388 -0.0315  0.0680 -0.1951
 6637W        W23111   4.410  16.716  14.536  0.0267 -0.0226 -0.2831
 6638W        W23112   3.386   5.417   4.954 -0.2592  0.0572 -0.2147
 6639W        W23113  17.543  14.837   5.087 -0.1583 -0.0851 -0.1423
 6640W        W23114  13.879  10.854   1.049  0.0421 -0.2021 -0.0357
 6641W        W23115   7.883  14.799   0.600 -0.3141  0.1666 -0.0070
 6642W        W23116  10.372  10.573   1.598  0.2712 -0.1213 -0.2557
 6643W        W23117  16.122   0.079  15.492 -0.1529  0.0197 -0.3806
 6644W        W23118  14.643  11.021   3.789  0.0797 -0.1511 -0.1310
 6645W        W23119   0.912  11.301   1.614  0.3145 -0.4679  0.2423
 6646W        W23120  15.830  10.447   4.098  0.2009  0.0551 -0.0065
 6647W        W23121  13.881  17.375  12.840  0.0360  0.0697  0.1259
 6648W        W23122   7.816   2.868   1.927 -0.0863 -0.2981 -0.1396
 6649W        W23123  12.064  12.179   5.572 -0.2689 -0.0103  0.1747
 6650W        W23124   5.450  12.937   3.098 -0.0576  0.0104  0.3268
 6651W        W23125  16.214   5.521   4.236  0.0935  0.1645  0.1546
 6652W        W23126  14.670  14.499   1.761  0.0302 -0.2307  0.1385
 6653W        W23127  10.218   2.177   1.502 -0.2029 -0.0340 -0.3028
 6654W        W23128  12.682  12.830   2.991  0.1132  0.0032  0.1978
 6655W        W23129  12.101   9.383   2.603 -0.1215  0.2869 -0.0335
 6656W        W23130   5.295  16.454  14.090  0.0493  0.2854 -0.0200
 6657W        W23131   2.078   2.877  13.225  0.1919 -0.2761 -0.0495
 6658W        W23132   3.145  10.274  15.005  0.0732 -0.1796  0.0547
 6659W        W23133   7.508   9.849  12.160 -0.0745  0.1248  0.1210
 6660W        W23134  11.002   0.497   3.329 -0.2930 -0.0983 -0.1340
 6661W        W23135  13.176  16.558   4.332 -0.0401 -0.1424 -0.2567
 6662W        W23136   6.498  10.307   1.564 -0.1853  0.0124 -0.0536
 6663W        W23137   8.412   5.309  15.262 -0.0948  0.0845 -0.2851
 6664W        W23138   2.156   4.919   0.183  0.0956  0.0546 -0.1460
 6665W        W23139   0.175   7.644  13.407  0.1618 -0.3493  0.0382
 6666W        W23140   1.032   8.858  14.358  0.0331 -0.0834 -0.2251
 6667W        W23141  14.656  13.377   0.892 -0.0714  0.1944  0.1742
 6668W        W23142  15.999   0.435   0.610  0.2671 -0.2847 -0.0918
 6669W        W23143   5.495   8.417   2.153 -0.0661 -0.2664 -0.1275
 6670W        W23144   6.506  14.831  10.707  0.1585 -0.1290  0.0368
 6671W        W23145  15.110  15.794  11.667  0.2236  0.0236 -0.1602
 6672W        W23146   7.461  17.752  14.686  0.0362 -0.0517  0.0625
 6673W        W23147  10.056   9.695   2.586 -0.2118 -0.2398  0.1205
 6674W        W23148   2.515  15.201  14.064 -0.1138 -0.1386  0.0927
 6675W        W23149   9.141   8.803   1.099  0.4224 -0.2288 -0.1291
 6676W        W23150   0.364   7.701   1.334  0.2153 -0.0240 -0.0527
 6677W        W23151   7.429   6.217   3.736 -0.1848 -0.0203  0.1294
 6678W        W23152  16.240   7.477   0.254 -0.1302  0.0405 -0.0413
 6679W        W23153   8.804  10.271   5.091  0.1401  0.0225 -0.0229
 6680W        W23154  13.958  11.358  12.379  0.0164 -0.0222  0.1697
 6681W        W23155  13.587   9.621   4.322  0.2874  0.1210 -0.0772
 6682W        W23156   5.806   8.403  10.139 -0.3164 -0.0605  0.0081
 6683W        W23157   8.298  16.998  12.125  0.3221  0.0087  0.0022
 6684W        W23158   1.646  16.139  10.758 -0.2449 -0.1795  0.0196
 6685W        W23159   7.626  13.887  12.459 -0.0631 -0.2237  0.4759
 6686W        W23160   7.667  13.053  10.587  0.1401  0.0997 -0.1161
 6687W        W23161   7.708  10.472  14.053 -0.2398  0.0643  0.2384
 6688W        W23162  12.647   1.100  11.697 -0.1287  0.0488  0.0800
 6689W        W23163   0.731   8.154  14.100 -0.4230  0.2135 -0.2303
 6690W        W23164  16.560   7.711  11.328  0.1640 -0.0922 -0.1557
 6691W        W23165  15.041  14.062  14.519 -0.1294 -0.0451 -0.1354
 6692W        W23166  12.499  15.634  14.910 -0.0230  0.0643 -0.0072
 6693W        W23167   7.810  15.017  11.632  0.1492 -0.1181 -0.2067
 6694W        W23168  13.747   0.621  10.907  0.0285 -0.1242 -0.0336
 6695W        W23169  13.990   1.789   3.886  0.2153  0.1977  0.2375
 6696W        W23170  10.954  17.575   1.483  0.1628  0.4315 -0.0266
 6697W        W23171  12.241  16.464  12.985 -0.1212  0.1361  0.0910
 6698W        W23172   7.124  12.172  14.523 -0.1086  0.1442  0.1281
 6699W        W23173  12.734   1.378   2.113  0.0157 -0.0630  0.2936
 6700W        W23174  17.148  11.603   0.411  0.1656  0.4181 -0.0543
 6701W        W23175   1.072   2.370   1.806 -0.1349  0.1042 -0.0342
 6702W        W23176  10.395  13.215  14.091 -0.0825  0.4022 -0.2211
 6703W        W23177   1.144   0.293  15.171 -0.1128 -0.0489 -0.3202
 6704W        W23178   8.622   3.600   3.839  0.0109  0.1609 -0.2051
 6705W        W23179  13.582  13.763  12.761  0.2015  0.0815  0.3307
 6706W        W23180   4.234  15.152  15.316 -0.1063  0.4678  0.0250
 6707W        W23181  17.840   9.974   4.244 -0.0611 -0.2220  0.1229
 6708W        W23182   5.468  12.220   2.860 -0.0329 -0.1150  0.0250
 6709W        W23183  15.876  12.957  13.530 -0.0241 -0.1424 -0.1189
 6710W        W23184   3.108   8.124   0.284  0.0450 -0.3237  0.1406
 6711W        W23185  11.198   6.534  15.117 -0.2101 -0.3090 -0.3669
 6712W        W23186   4.099   1.399  11.934 -0.1180  0.0067 -0.0301
 6713W        W23187  14.489   5.216  14.549  0.0847 -0.4086 -0.0457
 6714W        W23188   1.620   1.276  13.237 -0.0656 -0.0666  0.1435
 6715W        W23189   4.283   4.110  14.341 -0.0279  0.2091 -0.3388
 6716W        W23190   3.711  17.245   4.426 -0.0460  0.0878 -0.2532
 6717W        W23191   0.528  15.618   0.913  0.0038  0.3096 -0.2421
 6718W        W23192   9.595   1.495  13.892  0.1611  0.1288 -0.2168
 6719W        W23193   3.787   6.149   5.049  0.0450  0.1640 -0.0247
 6720W        W23194  11.467   9.203   0.862  0.0845 -0.0993 -0.0566
 6721W        W23195   9.472   6.048  14.607  0.1239 -0.0984  0.1757
 6722W        W23196   2.494   4.309   0.666  0.1137 -0.1235  0.1488
 6723W        W23197  14.223   8.964  11.817 -0.0876 -0.1326  0.0641
 6724W        W23198   9.725  11.070  13.778 -0.1975 -0.1711 -0.0031
 6725W        W23199   0.062   8.793   0.195  0.1933 -0.1580 -0.2642
 6726W        W23200   8.617   5.775   0.520  0.3213 -0.0169  0.2168
 6727W        W23201   7.577   6.702   3.664 -0.1407  0.0067 -0.0512
 6728W        W23202   5.369  12.456  10.402  0.2664  0.1206  0.0310
 6729W        W23203  18.664   9.860  13.810  0.0313 -0.0119 -0.0450
 6730W        W23204  18.646   8.785  15.159 -0.2420  0.1229 -0.1327
 6731W        W23205  12.279  10.979  12.150  0.2382  0.1054 -0.0246
 6732W        W23206   8.811  12.624   0.315 -0.2937 -0.1164  0.0750
 6733W        W23207   3.476   8.461   0.826 -0.1198  0.0268 -0.0320
 6734W        W23208  10.586   4.440   2.452  0.0423  0.0516 -0.1390
 6735W        W23209   4.591   0.804   0.724 -0.0890  0.0134 -0.0889
 6736W        W23210   9.368  11.299   3.434  0.1213 -0.2379  0.2099
 6737W        W23211  15.454  10.587   2.590 -0.2337 -0.1428 -0.0871
 6738W        W23212  12.949  11.336   3.536 -0.0424  0.2694 -0.0911
 6739W        W23213   3.218  10.593   1.979 -0.0365  0.2425  0.0566
 6740W        W23214  10.248  12.951   1.619  0.0778 -0.1247 -0.2683
 6741W        W23215   1.122  10.922  10.403  0.1836 -0.1794  0.2528
 6742W        W23216   5.178   8.563  12.201  0.0285 -0.1326  0.4147
 6743W        W23217   4.269   9.967  12.347 -0.0062 -0.0489  0.1270
 6744W        W23218  10.001  14.233  11.760 -0.0201 -0.2792 -0.0347
 6745W        W23219  16.063  13.740   5.324 -0.1328  0.3178 -0.1585
 6746W        W23220   5.604  18.580  14.617 -0.0047  0.0163 -0.0050
 6747W        W23221   8.451  12.481   3.938  0.1691  0.0349 -0.1905
 6748W        W23222   2.082   8.955   1.741 -0.2389 -0.1437  0.0883
 6749W        W23223  17.940   1.656   1.335  0.0208 -0.2055  0.0765
 6750W        W23224  17.418  18.159  13.501 -0.1174 -0.3831 -0.0788
 6751W        W23225   9.842  15.847  15.566  0.1280  0.0866 -0.0678
 6752W        W23226   3.472  17.886   0.560 -0.0503 -0.1823 -0.1981
 6753W        W23227   2.981  10.621  14.526  0.0730  0.0742 -0.3026
 6754W        W23228  12.477  17.316   0.304 -0.0863 -0.0663 -0.3429
 6755W        W23229  14.281   2.123   0.860 -0.0116 -0.0205 -0.2557
 6756W        W23230   5.726   5.874   1.346  0.2410 -0.0890 -0.0592
 6757W        W23231   7.482  12.858  12.902 -0.0690  0.2105  0.0965
 6758W        W23232   3.550  16.851  10.591 -0.1030 -0.5473  0.3542
 6759W        W23233  18.203   9.032  15.030 -0.0196 -0.1067 -0.0954
 6760W        W23234   8.349  18.086   4.050  0.0353  0.0238 -0.1185
 6761W        W23235  18.333  14.683  15.573 -0.2229  0.1714 -0.3927
 6762W        W23236  13.096   6.512   1.953 -0.1587 -0.0995  0.0147
 6763W        W23237   9.722   5.864  15.054 -0.5101  0.4096 -0.0261
 6764W        W23238  11.770  14.879   1.267 -0.0664 -0.2149  0.5705
 6765W        W23239   0.178  10.271   3.021 -0.0640 -0.2119  0.2304
 6766W        W23240  17.708  15.454  14.037  0.0918  0.2760 -0.0221
 6767W        W23241   3.998   4.313  11.472  0.2495 -0.0617  0.1766
 6768W        W23242  16.630  15.095   1.111 -0.1013  0.1008  0.1603
 6769W        W23243  12.834   3.866   0.148 -0.1701  0.3022 -0.0496
 6770W        W23244  10.427   9.315   3.902 -0.0875  0.1782  0.2088
 6771W        W23245   4.678  17.861  12.773 -0.0713 -0.2077  0.0243
 6772W        W23246   3.873  15.653   1.279 -0.2982 -0.1655 -0.2704
 6773W        W23247   3.782   7.784  13.480  0.0409  0.1818  0.0080
 6774W        W23248   3.336   0.271  11.777  0.0633 -0.2658  0.0793
 6775W        W23249  13.242   6.515   5.102 -0.2027  0.2429 -0.1657
 6776W        W23250   6.378   8.370   3.855 -0.1144 -0.0556  0.2835
 6777W        W23251   9.635  10.044   5.424 -0.0197 -0.1147  0.1191
 6778W        W23252  14.087  17.722  10.738  0.1668 -0.0688 -0.0582
 6779W        W23253   9.223  12.214  13.749  0.0490 -0.1880  0.1513
 6780W        W23254   9.158  10.181  13.520 -0.0515  0.0037 -0.0057
 6781W        W23255   2.284  13.310  14.883 -0.0784 -0.1230  0.2265
 6782W        W23256   6.162   3.811  12.742 -0.3175  0.0811  0.1299
 6783W        W23257   1.792  14.970  14.798 -0.0349  0.1008 -0.0632
 6784W        W23258   6.500   2.846   0.076 -0.2197  0.0482 -0.1132
 6785W        W23259  18.290   6.291   2.567 -0.0492  0.4406  0.1868
 6786W        W23260   9.189  17.313   1.754  0.0911 -0.1412 -0.1021
 6787W        W23261   9.220  18.487  15.541 -0.1112  0.0936 -0.0226
 6788W        W23262   3.743   9.981   4.880 -0.3916 -0.3835 -0.2910
 6789W        W23263   3.099  16.876   2.311  0.0358  0.0590 -0.0573
 6790W        W23264  11.061  12.028   3.141 -0.1732  0.1290  0.0575
 6791W        W23265  13.573   8.698  11.314  0.1052 -0.2296  0.0840
 6792W        W23266   9.564  18.132   1.426  0.1675 -0.1191  0.0127
 6793W        W23267   8.412   3.732   1.212  0.1140  0.1808  0.0747
 6794W        W23268   7.095  11.540  11.516 -0.0758  0.0975 -0.0101
 6795W        W23269   4.358  17.673  14.493  0.1246 -0.0542 -0.2509
 6796W        W23270   9.308  12.770  14.997 -0.2749 -0.0629 -0.1322
 6797W        W23271  12.267   4.019  14.526  0.2415 -0.0489  0.0142
 6798W        W23272   6.228   1.067   9.795 -0.1246  0.3654  0.0859
 6799W        W23273   8.220  17.089   0.948  0.2765  0.0630 -0.0388
 6800W        W23274   4.287  13.239   0.930 -0.2056  0.0057  0.0280
 6801W        W23275   4.905   1.923  13.875  0.1208  0.0991  0.0760
 6802W        W23276   4.236  12.068  12.268  0.2820 -0.0273  0.2317
 6803W        W23277   2.341   5.802  13.099  0.0066 -0.2808 -0.1650
 6804W        W23278  17.113   9.920  13.989  0.1611  0.1779 -0.2166
 6805W        W23279  17.932  12.014   1.159  0.1736 -0.1579 -0.0459
 6806W        W23280  11.778   7.642  11.865 -0.2217 -0.1644 -0.0119
 6807W        W23281   7.646  14.052  14.296  0.0272 -0.2047  0.1653
 6808W        W23282   4.134  12.491  15.310 -0.1467 -0.3596  0.1780
 6809W        W23283   5.434  15.754   2.247  0.1278  0.1459 -0.0184
 6810W        W23284   7.543   6.069   1.356 -0.1176 -0.0192  0.4129
 6811W        W23285   9.252  13.903   3.594  0.0686  0.2056 -0.0086
 6812W        W23286   1.748   2.658  13.532  0.2240 -0.0866 -0.0300
 6813W        W23287   8.724   1.090  14.550  0.1118 -0.0094 -0.1195
 6814W        W23288   9.948   9.749   1.792 -0.0267 -0.1561  0.0972
 6815W        W23289  17.338   2.412  12.939  0.3213 -0.0965 -0.1118
 6816W        W23290  17.272  15.237  15.460 -0.0367 -0.2985  0.0954
 6817W        W23291   3.786   5.993   2.642 -0.1772  0.0363  0.2149
 6818W        W23292   8.003   1.262   5.189  0.2561 -0.0173 -0.0047
 6819W        W23293   5.353  10.337  12.667 -0.2346 -0.1584 -0.2587
 6820W        W23294  14.601  13.465   3.938 -0.1138 -0.0704 -0.2916
 6821W        W23295   0.742  11.455   4.255  0.5883  0.1995 -0.0282
 6822W        W23296   8.681  12.902   5.012 -0.3262  0.0482 -0.0647
 6823W        W23297   1.565  15.465   2.741 -0.0136 -0.0040  0.2235
 6824W        W23298   9.880  14.817   1.411 -0.0055  0.1005 -0.1220
 6825W        W23299  13.140   5.025  15.439  0.0725  0.1391 -0.0254
 6826W        W23300   9.305   7.549   3.212 -0.0241 -0.3085 -0.3902
 6827W        W23301   1.834  16.634   0.745 -0.2397 -0.0954  0.0573
 6828W        W23302  15.307  13.728   1.538 -0.4493 -0.0452 -0.1864
 6829W        W23303  15.369   1.869   3.702  0.0454 -0.2869 -0.1169
 6830W        W23304   9.228   4.194  15.027  0.0037  0.1477 -0.3453
 6831W        W23305   4.757   2.481  13.746 -0.0422  0.3394  0.2439
 6832W        W23306   9.969  16.766  11.151  0.2915  0.0359 -0.0781
 6833W        W23307   2.851   8.959   2.452  0.2503 -0.2055 -0.3042
 6834W        W23308  12.682   8.299   4.109  0.0492  0.1062  0.0355
 6835W        W23309  12.244   7.679  12.623  0.2708  0.1683  0.3763
 6836W        W23310  15.802  15.521  15.410 -0.3510  0.0434 -0.0331
 6837W        W23311  13.781   7.033  12.957  0.0453 -0.5300  0.3587
 6838W        W23312  14.588  15.729   3.312 -0.0709  0.1551 -0.1650
 6839W        W23313   9.251  16.196   1.774 -0.1222 -0.3031  0.0172
 6840W        W23314  14.978   9.997   1.035 -0.3019  0.1261  0.1473
 6841W        W23315  16.060   9.317  10.976 -0.1476  0.2005 -0.1838
 6842W        W23316   9.304  13.831   5.967 -0.0047 -0.0362  0.0998
 6843W        W23317  11.228  13.148  15.538  0.3114  0.0075  0.2901
 6844W        W23318   6.985   0.095   3.912  0.1647  0.2108  0.2328
 6845W        W23319   5.348  15.863   3.670  0.1755  0.0983  0.1574
 6846W        W23320  10.700   1.608  14.436 -0.0063 -0.0449 -0.1891
 6847W        W23321  18.038  10.069  14.315  0.1283 -0.0962 -0.0131
 6848W        W23322   6.577   0.400   4.081  0.2440  0.2847 -0.0254
 6849W        W23323   4.658   1.286   3.304  0.0358  0.1399  0.1970
 6850W        W23324  12.173  18.451   4.911  0.1683  0.1454  0.0249
 6851W        W23325  17.576  16.881  11.275  0.0543  0.2519  0.0879
 6852W        W23326   8.683  13.604  13.810 -0.2260  0.2004  0.1591
 6853W        W23327  18.336  12.400  11.068  0.0485  0.1128  0.0198
 6854W        W23328  13.983  18.297  15.374 -0.0768 -0.0168 -0.0234
 6855W        W23329  13.171   1.413  11.214  0.0116 -0.0158 -0.1970
 6856W        W23330  15.808  18.325   0.512 -0.1312  0.0640  0.1545
 6857W        W23331   5.075   7.649  11.789 -0.2041 -0.1121 -0.0144
 6858W        W23332  10.619  11.092   5.580 -0.2145  0.1984 -0.0398
 6859W        W23333  11.837   8.089  13.357  0.1563 -0.1108 -0.3850
 6860W        W23334   7.959  15.520   4.252 -0.0714  0.0472 -0.0002
 6861W        W23335   2.030  14.229  14.689  0.2297 -0.1611  0.0871
 6862W        W23336  16.677   5.261  15.405  0.0565 -0.1765  0.0207
 6863W        W23337  17.764   7.967   1.774 -0.0251  0.1349  0.4384
 6864W        W23338   1.212   2.296  14.415 -0.2016 -0.0726  0.0637
 6865W        W23339   7.298  13.420   1.539 -0.1824  0.2371  0.0607
 6866W        W23340  13.813  17.759   1.234 -0.3714 -0.0249  0.0308
 6867W        W23341  12.566   0.479   3.786  0.3813  0.0750  0.0289
 6868W        W23342  17.975  14.867   9.997 -0.3087  0.2059 -0.0509
 6869W        W23343   0.042   9.029  12.816  0.3047 -0.3504 -0.1905
 6870W        W23344   5.253  17.734   3.875  0.0746 -0.1891  0.1002
 6871W        W23345  16.326  13.122   2.619  0.4103  0.0486  0.2617
 6872W        W23346   2.439  18.134   4.131  0.2301 -0.2179  0.0231
 6873W        W23347   6.603  16.639   2.340  0.2005  0.1155 -0.1854
 6874W        W23348   6.030   4.779  14.183  0.3064  0.0905 -0.3813
 6875W        W23349  11.355   4.658   2.586  0.2952  0.0009 -0.0849
 6876W        W23350   8.449  12.313   0.810 -0.3684  0.4007  0.0661
 6877W        W23351  12.584   6.344  12.945  0.0291  0.1504  0.2803
 6878W        W23352   5.454  10.255   1.213  0.0626  0.2845 -0.2711
 6879W        W23353   4.263   9.957   1.990  0.0574 -0.2708 -0.0463
 6880W        W23354   8.180   1.632  10.904  0.1472 -0.2677 -0.2211
 6881W        W23355   6.899  12.357   0.281  0.1732  0.0197  0.1303
 6882W        W23356  12.200   6.743  11.385  0.0197  0.1053  0.0799
 6883W        W23357   4.536  11.368   1.856  0.1158  0.2414 -0.0989
 6884W        W23358   2.077  13.808   1.829 -0.0071 -0.0421  0.1397
 6885W        W23359   5.653  17.071   9.923 -0.3296  0.1033  0.2988
 6886W        W23360  12.283   3.201  12.682 -0.0605 -0.4369  0.1141
 6887W        W23361  17.403   8.239  14.527 -0.0755  0.0309 -0.2720
 6888W        W23362   8.653   7.908  14.827  0.1397  0.0485 -0.1170
 6889W        W23363  16.145   3.529   2.131 -0.2050  0.1082  0.2254
 6890W        W23364  15.312  13.454   0.227  0.1094 -0.0750  0.0499
 6891W        W23365  18.049  10.482   5.273  0.1706  0.2538 -0.0512
 6892W        W23366  17.297  14.470   0.545 -0.1471 -0.0400  0.1214
 6893W        W23367  18.468  17.031  12.797  0.2638 -0.0276 -0.1754
 6894W        W23368  12.300  13.690   5.613 -0.4143 -0.4671  0.2751
 6895W        W23369   6.289   4.438   1.504  0.1705 -0.4807  0.2817
 6896W        W23370   0.330   3.131  10.722  0.3803  0.0785 -0.1313
 6897W        W23371  15.579  11.057   2.398 -0.0285 -0.1726 -0.2185
 6898W        W23372  16.843  10.892   4.820 -0.1136  0.0128 -0.0744
 6899W        W23373  12.586  17.520  14.956  0.4634 -0.1385  0.1282
 6900W        W23374   2.307   2.801   3.656 -0.0600  0.1897  0.1684
 6901W        W23375   9.489  11.680   5.314  0.0628  0.3121  0.2250
 6902W        W23376  11.269  17.455   4.767 -0.2950  0.2324 -0.2375
 6903W        W23377   1.999   4.203   0.592 -0.0644  0.0570 -0.2596
 6904W        W23378  13.382  18.156  11.121 -0.0075 -0.1285  0.1994
 6905W        W23379   4.332  18.102   9.936 -0.1864  0.0658 -0.1478
 6906W        W23380   6.663  12.163  14.215  0.0727  0.1884  0.2260
 6907W        W23381   4.527   2.869  10.523  0.2332  0.0009  0.0815
 6908W        W23382   5.191   3.995   2.039  0.1561 -0.4212 -0.0647
 6909W        W23383   6.791  11.132   1.912 -0.3158  0.1694 -0.3750
 6910W        W23384  17.023  12.717  15.437 -0.1556 -0.0898  0.2873
 6911W        W23385   4.500   5.081   1.147 -0.0190  0.0181 -0.1628
 6912W        W23386   3.517   9.839   0.553  0.0049 -0.1345  0.3744
 6913W        W23387   8.691   4.490  14.691  0.3369 -0.0109 -0.1381
 6914W        W23388  12.863   1.151   0.689  0.1935 -0.1107  0.3417
 6915W        W23389   9.040   9.931   1.773 -0.2694  0.0110 -0.0407
 6916W        W23390  17.587   8.440  11.176 -0.3423 -0.1910 -0.2268
 6917W        W23391  17.063   9.401   3.587 -0.1411 -0.0568  0.0115
 6918W        W23392  10.243  16.809   3.129 -0.0314 -0.0570  0.0967
 6919W        W23393  15.316   1.049   1.604  0.2208 -0.1925 -0.0029
 6920W        W23394  15.024   0.179  12.749 -0.0109  0.0248  0.1442
 6921W        W23395  13.127   1.289  12.905 -0.1025 -0.0899  0.2266
 6922W        W23396   5.688   0.470   0.538  0.0693 -0.2083  0.0559
 6923W        W23397  12.760   7.747   4.208 -0.0256 -0.0019 -0.1383
 6924W        W23398   2.984  12.720  12.668 -0.2205 -0.0052  0.0908
 6925W        W23399   6.717   2.803  15.179 -0.1685  0.1736  0.0391
 6926W        W23400  18.650   9.588  12.960  0.0885  0.2538 -0.1306
 6927W        W23401   3.192   3.681  13.525 -0.4308  0.0504 -0.1100
 6928W        W23402  12.553   9.816   4.169 -0.0848 -0.0694  0.1301
 6929W        W23403   2.165  15.660   4.950 -0.0370  0.0425 -0.0509
 6930W        W23404   9.483  12.792   2.906 -0.0135  0.0321 -0.2876
 6931W        W23405  16.291   8.769  15.256  0.1752  0.0843 -0.0695
 6932W        W23406   3.553   5.048  10.475 -0.0931  0.2426  0.0334
 6933W        W23407  17.812  16.183  12.615 -0.3298 -0.0877  0.1352
 6934W        W23408   3.977   1.488  13.926 -0.1624 -0.0681 -0.1523
 6935W        W23409   4.442   6.538  14.080 -0.2480  0.0161 -0.1067
 6936W        W23410   1.771  13.602   4.400 -0.2096 -0.2182 -0.0636
 6937W        W23411  17.352  13.697   3.424  0.2194  0.2439  0.0114
 6938W        W23412  11.895  15.635  11.688  0.0678  0.1690  0.2127
 6939W        W23413  11.457  17.156  12.923 -0.1250  0.0336  0.1185
 6940W        W23414  14.489  12.680   3.246 -0.2660 -0.0624 -0.1896
 6941W        W23415  15.502  18.587   4.169  0.1481 -0.1700 -0.3286
 6942W        W23416   1.439  17.993   0.006  0.1549  0.0823  0.3455
 6943W        W23417  12.446  11.560  14.042 -0.0195  0.1615  0.1020
 6944W        W23418   9.943   2.751   2.803 -0.1985  0.0106  0.2326
 6945W        W23419  15.683  13.287  11.617 -0.3025 -0.0226 -0.2325
 6946W        W23420   6.855   7.577   4.190 -0.0270  0.2399  0.2050
 6947W        W23421  18.401   3.974   1.535 -0.0062 -0.3522 -0.0483
 6948W        W23422   8.049   8.829   2.671 -0.1333 -0.0210 -0.0295
 6949W        W23423  10.540  17.435   5.257 -0.0020 -0.1710 -0.1240
 6950W        W23424   7.403   2.083   2.305  0.0680 -0.0376  0.1466
 6951W        W23425   0.504   2.737  12.481  0.2336  0.1794  0.0297
 6952W        W23426  18.468   8.276  10.652  0.0027  0.1075  0.2820
 6953W        W23427  14.080   4.287  15.555 -0.0206 -0.1328 -0.1796
 6954W        W23428  15.427  13.492  14.390 -0.2616 -0.0458 -0.0509
 6955W        W23429   4.768   3.796   4.319  0.1834  0.0213 -0.1027
 6956W        W23430   3.024   7.711   1.793  0.2355  0.1452  0.0937
 6957W        W23431   8.689  17.029  13.342  0.1050 -0.2209 -0.1222
 6958W        W23432   5.638   0.793  14.629  0.2742  0.0801 -0.1958
 6959W        W23433  11.833   0.276   5.611  0.0738  0.2005 -0.1015
 6960W        W23434  11.293   1.129  11.697  0.1245 -0.1007 -0.1817
 6961W        W23435  12.302  13.723  12.530 -0.2598 -0.0658 -0.0082
 6962W        W23436  17.145   0.322   4.820  0.0468 -0.1321 -0.0494
 6963W        W23437   5.387   5.923   4.802  0.2399 -0.0338 -0.4524
 6964W        W23438   2.831  16.021   4.682 -0.0123  0.0562  0.1325
 6965W        W23439   0.600   9.353   5.071 -0.1545 -0.2484  0.1457
 6966W        W23440  17.697   5.630  11.480 -0.0914  0.1048  0.2871
 6967W        W23441  12.921   7.088   2.827 -0.1450 -0.0824 -0.2742
 6968W        W23442  15.752  11.072  14.293 -0.0020 -0.1444 -0.3220
 6969W        W23443   8.241   5.384   1.386 -0.3123 -0.3378 -0.1836
 6970W        W23444   5.365  14.506   1.445 -0.2584  0.1817  0.1749
 6971W        W23445   2.972   9.332   0.106 -0.0413 -0.1351 -0.1112
 6972W        W23446  18.138   0.014  12.658 -0.1391 -0.3102 -0.1072
 6973W        W23447   3.260   4.705   2.531  0.0324  0.0296 -0.1620
 6974W        W23448  10.766  14.582   1.591 -0.0226 -0.0811  0.0272
 6975W        W23449   7.893  10.417  15.006  0.2629  0.0797 -0.1930
 6976W        W23450   2.795   4.191   1.973 -0.3080  0.0906  0.1082
 6977W        W23451  12.795   8.806  11.367 -0.4382 -0.1700  0.0737
 6978W        W23452  11.374   8.884  11.683  0.2258  0.1228  0.1763
 6979W        W23453  14.708  16.175   5.094 -0.1138  0.0925  0.1499
 6980W        W23454   4.879  14.491   2.591 -0.1520 -0.4087 -0.0831
 6981W        W23455   8.695  15.038   6.057  0.2083 -0.2677  0.2312
 6982W        W23456   1.772   8.147   2.546  0.0285  0.2732 -0.3027
 6983W        W23457  13.071   4.217  13.136  0.1680  0.3832 -0.3359
 6984W        W23458  10.620   6.952   3.390 -0.1621 -0.0270  0.3104
 6985W        W23459   8.111  10.204   1.054  0.1847 -0.2174  0.0403
 6986W        W23460  17.828   3.845   3.310 -0.0103  0.0763 -0.0090
 6987W        W23461   3.214  18.414   1.149 -0.0025  0.1025 -0.0161
 6988W        W23462  11.955   3.438   3.295  0.3427 -0.1159 -0.1217
 6989W        W23463   0.884  16.572  11.301 -0.2479  0.1917  0.1151
 6990W        W23464   5.323   7.511   2.761 -0.1381 -0.0890  0.1544
 6991W        W23465  13.530   5.683   2.461 -0.0712 -0.3787 -0.0660
 6992W        W23466  16.067   3.048   2.842  0.2393  0.0057  0.3220
 6993W        W23467  17.367   5.545   5.416  0.1918 -0.1124  0.0971
 6994W        W23468  18.430   3.294  15.094 -0.1810 -0.1228 -0.1243
 6995W        W23469   4.585  15.858   2.621  0.0277 -0.3066  0.3130
 6996W        W23470   2.365   5.149   0.694  0.1187 -0.0571 -0.2074
 6997W        W23471  14.872   2.410  15.323 -0.0764 -0.2415 -0.3481
 6998W        W23472   3.461   4.824  14.911  0.2716  0.3264  0.0784
 6999W        W23473  17.423  12.719  10.628 -0.3980  0.0713 -0.4734
 7000W        W23474   9.414   6.655  11.455 -0.1496 -0.1998  0.1569
 7001W        W23475   2.911   3.363   0.707  0.1120  0.0918  0.1531
 7002W        W23476  18.136  16.011   1.566 -0.0426 -0.2513  0.2542
 7003W        W23477   0.100  11.540   2.030 -0.1407 -0.0142 -0.1116
 7004W        W23478  16.060   7.246  14.755  0.2171 -0.3396 -0.1636
 7005W        W23479   8.839  17.840   4.339  0.0706 -0.1917 -0.2476
 7006W        W23480  16.031   9.714  14.428  0.3487  0.0952 -0.0383
 7007W        W23481  10.111   7.748  14.074 -0.0747  0.0739  0.1167
 7008W        W23482   8.708   5.484   1.400 -0.0168  0.1895 -0.0392
 7009W        W23483   4.137   7.587   1.634  0.4472  0.3779 -0.1076
 7010W        W23484   5.227   3.937  14.726  0.0694  0.2237 -0.0201
 7011W        W23485  15.294   3.438  12.644 -0.1975 -0.1124 -0.1734
 7012W        W23486  17.265   4.284  12.092 -0.0996 -0.0976  0.2433
 7013W        W23487  16.129   4.090   2.779  0.0689 -0.1463 -0.2528
 7014W        W23488  16.340   3.891   0.824  0.0770  0.3257 -0.1813
 7015W        W23489   3.416   5.706   2.941  0.1893 -0.0481 -0.0629
 7016W        W23490   2.326  13.786  15.100 -0.0744  0.4214  0.0300
 7017W        W23491   7.347   1.005  14.857 -0.1581 -0.0686 -0.2153
 7018W        W23492   5.333  13.606  12.657 -0.0484 -0.2937  0.1026
 7019W        W23493  17.991  16.952   4.909 -0.1275 -0.0511 -0.1132
 7020W        W23494   1.266   6.601   0.042  0.2090 -0.3538 -0.2865
 7021W        W23495   0.806  15.259  11.428  0.1947 -0.0722  0.3095
 7022W        W23496  11.643   0.148   0.314 -0.3230 -0.0079 -0.2621
 7023W        W23497   6.784  11.825   4.426 -0.2820  0.3446  0.0494
 7024W        W23498  17.602   4.638   1.504 -0.3635 -0.0556 -0.0751
 7025W        W23499  10.258   1.784  12.407 -0.0288  0.0581 -0.0267
 7026W        W23500  18.111  14.503  11.821  0.3252  0.1197 -0.0792
 7027W        W23501  13.125   5.991  12.110  0.0589  0.1349 -0.1999
 7028W        W23502  18.343   9.057   3.454 -0.4183  0.1184 -0.0540
 7029W        W23503   8.379  17.439  14.402 -0.1370  0.0153  0.1588
 7030W        W23504  17.655  18.094  14.611  0.2689 -0.0083  0.1160
 7031W        W23505   7.665  17.757   3.561  0.0325  0.0671  0.0668
 7032W        W23506   4.924   4.242  13.004  0.1542 -0.1074 -0.0926
 7033W        W23507   5.512   0.603   5.362 -0.2208  0.1748 -0.1045
 7034W        W23508   5.844   9.010   4.238  0.0965  0.0636  0.0995
 7035W        W23509   4.469   2.457  10.806  0.0296 -0.3130 -0.0833
 7036W        W23510  11.122   3.413   3.442 -0.5155  0.0367  0.0857
 7037W        W23511   7.690   8.670  15.570  0.2252  0.0592 -0.3272
 7038W        W23512   9.982  16.738   2.016 -0.2972 -0.0008  0.2104
 7039W        W23513  15.544  14.815   3.031 -0.0828 -0.3402 -0.4086
 7040W        W23514  10.607   8.074   4.570  0.1918  0.3175  0.1016
 7041W        W23515   1.408  10.117  11.059 -0.1038  0.0044 -0.1164
 7042W        W23516   7.190  10.847  14.710 -0.2921 -0.2878  0.1047
 7043W        W23517  11.170   3.692  11.638 -0.1583  0.0491  0.0234
 7044W        W23518   8.727   8.302   0.459  0.1428  0.0282 -0.2574
 7045W        W23519   7.226  11.933   0.811 -0.4478  0.0376  0.0270
 7046W        W23520  10.889   3.912   0.936  0.0441  0.0011  0.1985
 7047W        W23521   6.068   0.350   1.270 -0.1827  0.1989 -0.0385
 7048W        W23522   9.547  16.769   4.585 -0.0075  0.0590 -0.0679
 7049W        W23523  18.241   6.962   4.612  0.2274 -0.2291 -0.1628
 7050W        W23524   3.104  10.780  13.144 -0.1754 -0.0715  0.1218
 7051W        W23525  15.732   1.367   5.056  0.1625 -0.1592 -0.0126
 7052W        W23526   3.953  11.280   1.953  0.1820 -0.0420  0.1052
 7053W        W23527  11.234  15.185   0.313  0.1641  0.1322  0.5620
 7054W        W23528   7.411   8.369  12.974 -0.1035 -0.0512  0.3117
 7055W        W23529   7.300   4.871  11.069  0.0017 -0.1507 -0.1131
 7056W        W23530   4.703  18.348   0.456 -0.4177  0.0664  0.2254
 7057W        W23531  10.858  11.218  11.393 -0.0985 -0.0981 -0.0535
 7058W        W23532  14.704   2.241  14.858 -0.0071 -0.0220  0.1958
 7059W        W23533  11.428   8.341  12.475  0.0923  0.0871  0.0543
 7060W        W23534   2.522   7.519  10.529  0.1065  0.1007 -0.2481
 7061W        W23535   2.565  14.350  10.992 -0.1703  0.0203  0.2889
 7062W        W23536  16.080  16.337  11.566  0.2308 -0.0161 -0.2435
 7063W        W23537   1.926  17.918   4.794 -0.0635 -0.2277 -0.1066
 7064W        W23538  18.179  15.857  12.785  0.3486 -0.0788 -0.2680
 7065W        W23539  15.719  11.497   2.247 -0.0587  0.1106  0.0919
 7066W        W23540  12.557  15.716   2.150 -0.1870  0.0277  0.0813
 7067W        W23541   8.555   8.863   0.315  0.0174 -0.0212 -0.3268
 7068W        W23542  13.131   9.126   4.988 -0.0737  0.1359 -0.0164
 7069W        W23543   3.387   8.132  14.720  0.1218  0.1470 -0.0997
 7070W        W23544  12.549   6.562  13.421  0.0562 -0.0243 -0.1532
 7071W        W23545  15.714   7.148   3.859 -0.0299  0.0794 -0.1557
 7072W        W23546  15.557  15.664   0.966 -0.1951 -0.0027 -0.0027
 7073W        W23547  12.443   0.590   1.317 -0.0159 -0.1882  0.1797
 7074W        W23548   6.209   7.725  11.156  0.2992 -0.0080  0.0837
 7075W        W23549   9.436   6.121   1.580  0.1868  0.1575 -0.0161
 7076W        W23550   1.009  16.032   4.620  0.2248  0.3649 -0.0893
 7077W        W23551   9.667   3.705   2.669 -0.1131  0.2849  0.1172
 7078W        W23552   0.053  12.304  10.329 -0.0031 -0.1608 -0.0724
 7079W        W23553   7.173  16.783  10.917  0.2128 -0.1298  0.0971
 7080W        W23554  16.995  12.701   4.211  0.0543 -0.0383 -0.0979
 7081W        W23555   4.949  10.809  12.059  0.1443 -0.0421  0.0147
 7082W        W23556   3.985   1.241   3.933  0.2227  0.1620 -0.1576
 7083W        W23557  10.355  10.468  15.191 -0.0634 -0.0756 -0.1688
 7084W        W23558   5.147   9.310  13.783 -0.2685 -0.0611  0.3575
 7085W        W23559   1.715   3.660  11.384 -0.3055  0.0378  0.0843
 7086W        W23560   5.690  15.915  14.173  0.2369 -0.0279 -0.4226
 7087W        W23561  17.024  13.695  13.635 -0.3650  0.2261 -0.1447
 7088W        W23562   8.697  11.465  14.391  0.0336 -0.1185  0.2133
 7089W        W23563   5.815  16.202  13.787  0.0813  0.2000  0.1559
 7090W        W23564   6.390   6.063  13.782 -0.0195 -0.0113  0.2652
 7091W        W23565   7.250   8.958  10.955 -0.0496 -0.1293  0.2167
 7092W        W23566   2.714  14.081   0.798 -0.0780  0.0429  0.1792
 7093W        W23567   8.911  16.581   5.508 -0.2022 -0.0964  0.4499
 7094W        W23568  14.481  14.054   4.248  0.2200  0.4511  0.0386
 7095W        W23569   3.715  11.619  14.946 -0.0088 -0.2175 -0.0121
 7096W        W23570   1.767  15.521   1.362 -0.2167 -0.0069  0.1480
 7097W        W23571  15.483  17.231   3.995 -0.1616 -0.1493 -0.1623
 7098W        W23572  14.111   4.456  12.337  0.1730 -0.1744  0.1450
 7099W        W23573   9.840   7.833   3.345 -0.0063  0.0122 -0.2802
 7100W        W23574  10.201   7.969   1.076  0.0441  0.0407  0.1433
 7101W        W23575   8.669   1.556  14.298  0.0047 -0.2712 -0.0517
 7102W        W23576   7.241   8.215  11.275  0.1064  0.0095  0.0444
 7103W        W23577  14.956  10.461  11.298 -0.1334 -0.3861  0.0018
 7104W        W23578  16.519  10.297   1.289 -0.1203  0.1474 -0.0644
 7105W        W23579   5.971   3.889  12.247 -0.1742  0.0090 -0.4579
 7106W        W23580  11.070   4.793  14.895 -0.1754  0.0378  0.0001
 7107W        W23581  15.528   5.583  10.760  0.0743  0.1320 -0.0630
 7108W        W23582   9.092  14.714   0.397  0.0185 -0.0387 -0.1591
 7109W        W23583   4.116  16.601   0.274 -0.2243  0.0557 -0.3582
 7110W        W23584   0.790   5.581   2.293  0.1367 -0.0785  0.1446
 7111W        W23585   6.412   4.399   2.634 -0.2567 -0.1431  0.3601
 7112W        W23586  10.384  15.780   0.443  0.2905 -0.5035 -0.2155
 7113W        W23587   7.191   5.721  13.254 -0.0408 -0.0890 -0.0753
 7114W        W23588  16.927   5.784  10.878  0.3447 -0.3120 -0.1553
 7115W        W23589   5.065   4.728  14.284 -0.3752 -0.1780 -0.3851
 7116W        W23590  11.586   0.186  12.042 -0.0915  0.0612  0.0507
 7117W        W23591   5.630   1.141  14.949 -0.0785 -0.1194  0.2699
 7118W        W23592  18.627   7.969   2.205  0.2321 -0.0110 -0.0940
 7119W        W23593   0.781   5.362   1.457  0.2675 -0.1894 -0.1899
 7120W        W23594   6.583  11.360  12.250 -0.1389 -0.0209  0.3868
 7121W        W23595  18.372  16.989  14.752 -0.0058  0.2477  0.0195
 7122W        W23596  16.332   3.376   0.761 -0.1728 -0.1845 -0.0404
 7123W        W23597   5.160   2.450  15.178  0.1834  0.1841 -0.1674
 7124W        W23598  15.320  14.325   4.424  0.1165  0.0926  0.0375
 7125W        W23599   8.591  17.521   2.324 -0.0456  0.1736 -0.0680
 7126W        W23600   7.282  14.391   4.705  0.2058  0.0502 -0.0508
 7127W        W23601  17.206   3.456   2.066  0.2643 -0.2630 -0.1871
 7128W        W23602   8.864  16.148   0.492 -0.2178  0.1345 -0.1595
 7129W        W23603  11.703  17.787   4.628 -0.1723  0.2001  0.0558
 7130W        W23604   7.852   4.249   4.543 -0.4114  0.2412 -0.0151
 7131W        W23605   9.199   3.791   2.770  0.2090  0.2298  0.1163
 7132W        W23606   2.476   1.659  14.889  0.0368  0.2819  0.1396
 7133W        W23607   2.066  16.017   5.287 -0.2081 -0.2005 -0.2778
 7134W        W23608  11.349   9.018   2.830  0.1165 -0.1611  0.1070
 7135W        W23609  11.171   2.612  15.513  0.2187  0.1777 -0.0444
 7136W        W23610   8.939  14.080   3.219 -0.4415 -0.0955  0.0295
 7137W        W23611   7.869   3.658  12.527  0.0198 -0.0533  0.1107
 7138W        W23612   6.155   7.300  15.540  0.0332 -0.2259 -0.0710
 7139W        W23613   7.953   3.298  14.948  0.2367  0.1908  0.1872
 7140W        W23614   0.458  15.549   4.456  0.0229 -0.2661 -0.0071
 7141W        W23615   8.558  12.868   1.674  0.0821  0.0530 -0.3128
 7142W        W23616  15.097  12.056  15.303 -0.2689  0.0844  0.1644
 7143W        W23617   8.667   4.893   2.623  0.1285 -0.2635 -0.2286
 7144W        W23618   3.195   8.640  11.146 -0.0527 -0.1646 -0.0627
 7145W        W23619   5.966   1.598   4.391  0.0208  0.0766 -0.0569
 7146W        W23620   4.555  17.902  15.249  0.2308  0.1405  0.2534
 7147W        W23621  18.083  10.589   0.296 -0.1960 -0.2664 -0.3122
 7148W        W23622   9.271  13.077   4.423  0.1668 -0.1699 -0.1005
 7149W        W23623   6.186   6.308   0.902 -0.2142 -0.1241 -0.0850
 7150W        W23624  16.740  11.933  15.043  0.1173 -0.0843  0.0645
 7151W        W23625   0.404  17.164   4.494  0.0377 -0.1490 -0.0189
 7152W        W23626   8.550  14.405   4.654 -0.1280 -0.0736  0.4881
 7153W        W23627   9.182   5.902   2.144  0.1850 -0.1838 -0.0961
 7154W        W23628   1.736   8.761   5.062 -0.0285  0.1618  0.1549
 7155W        W23629   3.084   7.057   4.312  0.2576  0.2341 -0.0104
 7156W        W23630  10.072  12.329  11.861 -0.0252 -0.1106 -0.4189
 7157W        W23631   4.768  18.330  10.203 -0.0565  0.0355 -0.1898
 7158W        W23632   2.189  14.176   1.080 -0.0252  0.0815  0.2346
 7159W        W23633   5.293  13.950  11.632 -0.0532  0.2932 -0.1621
 7160W        W23634  11.866  16.945  15.308  0.0879  0.3052 -0.1235
 7161W        W23635   9.409   2.747   2.960 -0.0509 -0.2046  0.2332
 7162W        W23636  15.762   8.746  13.399  0.1795  0.0025  0.2337
 7163W        W23637  17.706   1.616  13.759  0.0334 -0.1649 -0.1777
 7164W        W23638  10.147  17.020  12.040 -0.1584  0.3262  0.0606
 7165W        W23639   3.934   9.885   3.591 -0.0104  0.3925 -0.0843
 7166W        W23640   4.435  14.589  13.262  0.2898 -0.1139 -0.1581
 7167W        W23641   4.633   4.940  11.262 -0.0608  0.4113 -0.1969
 7168W        W23642   7.849  15.062  11.002 -0.2864 -0.4406 -0.0960
 7169W        W23643  11.510   6.439  12.361 -0.0249  0.2033  0.2407
 7170W        W23644  14.153   1.317   4.027  0.3280 -0.0900 -0.3170
 7171W        W23645   8.017   1.721  10.025  0.4832 -0.1648 -0.0947
 7172W        W23646  13.515  11.063   0.398 -0.3362  0.3446  0.2724
 7173W        W23647  15.617  18.405  13.837  0.1299  0.3656 -0.0155
 7174W        W23648   5.313  14.146   1.802  0.0684 -0.1683  0.0248
 7175W        W23649   7.837   5.511   0.221  0.1119 -0.1411 -0.0783
 7176W        W23650  13.184   2.751  12.880  0.2900  0.3100  0.2318
 7177W        W23651   5.262   4.819   3.250 -0.1698 -0.1795  0.1914
 7178W        W23652  14.531   7.012  13.086  0.1373 -0.1169 -0.0254
 7179W        W23653   5.506   9.894  12.971 -0.4532 -0.2047 -0.0239
 7180W        W23654  11.294  17.942  14.238 -0.1005 -0.2822  0.1893
 7181W        W23655   5.383  17.043   4.359  0.1058 -0.4623  0.1390
 7182W        W23656  11.399   3.171   0.662 -0.2659  0.3381 -0.2143
 7183W        W23657  16.158  14.425  15.353 -0.2650  0.1832  0.0464
 7184W        W23658  13.285   0.953   3.300 -0.1962 -0.1542 -0.2861
 7185W        W23659  14.427   2.516   0.102  0.1868  0.1249  0.2178
 7186W        W23660  13.972  17.620   4.892 -0.2078  0.0530  0.1558
 7187W        W23661  18.146   1.667   4.351  0.2200 -0.2104  0.0045
 7188W        W23662  13.782   6.466  13.090  0.1713 -0.0271 -0.2268
 7189W        W23663   4.135   2.930  14.894  0.0537  0.0257  0.1687
 7190W        W23664   2.735   0.886  14.839 -0.0516 -0.0189  0.2104
 7191W        W23665  12.971   6.965   1.782  0.0057  0.0853 -0.1657
 7192W        W23666  17.056  12.615   0.362  0.1454 -0.1089 -0.1753
 7193W        W23667  15.632  10.464   1.579  0.0150 -0.1427 -0.0063
 7194W        W23668  17.941  12.552   1.151 -0.2486 -0.1188 -0.1395
 7195W        W23669   9.326  15.674  14.228 -0.0902 -0.2203 -0.1830
 7196W        W23670   0.861   9.677   3.683 -0.0405  0.3333 -0.1737
 7197W        W23671  13.747   8.897  10.872  0.4693 -0.1995 -0.1246
 7198W        W23672   0.479   9.177   1.089  0.1374  0.4829  0.2289
 7199W        W23673   9.126  15.662  11.470  0.0183  0.1788  0.0095
 7200W        W23674  11.281   9.784  11.180 -0.2967  0.1380 -0.2485
 7201W        W23675   7.905   5.328  12.231 -0.3591  0.0373 -0.1429
 7202W        W23676  17.155  17.516   4.757 -0.0149 -0.0288 -0.1560
 7203W        W23677  12.474   1.952   3.921 -0.1295  0.0262 -0.2198
 7204W        W23678   4.069   2.868  11.488 -0.2208 -0.0234 -0.0285
 7205W        W23679  13.958  18.786   2.326  0.1784  0.2474 -0.0535
 7206W        W23680  12.932   8.094   0.085 -0.2077  0.0141  0.1139
 7207W        W23681  14.235   7.530   0.575 -0.0495  0.0648 -0.2515
 7208W        W23682  12.330  16.054   3.523  0.0083 -0.1830 -0.1583
 7209W        W23683   5.266  15.542   3.177 -0.0740 -0.2598 -0.0327
 7210W        W23684  10.696  14.247   4.498  0.2385 -0.3710  0.0668
 7211W        W23685  17.548   9.313   5.837  0.3318 -0.1272  0.2737
 7212W        W23686   4.303   9.635  14.678 -0.0286  0.0130  0.0152
 7213W        W23687  18.184  10.195   3.376 -0.0701 -0.0279 -0.0565
 7214W        W23688   1.497   9.187   0.996  0.0308 -0.0466  0.1211
 7215W        W23689  10.130   8.634   0.216 -0.1790 -0.0581  0.1254
 7216W        W23690   1.268   5.600   2.636  0.1279  0.0003 -0.0704
 7217W        W23691   3.057   4.404  11.475  0.3662 -0.0317 -0.1440
 7218W        W23692   9.321  15.926   0.652  0.2469 -0.0649  0.3081
 7219W        W23693  15.649   9.634  11.964  0.1009  0.0118  0.0738
 7220W        W23694  16.576   1.476   1.928  0.1912  0.0036  0.1829
 7221W        W23695  11.863   5.570   5.193 -0.1601 -0.2932  0.2615
 7222W        W23696  13.947   0.629  15.335 -0.0138 -0.0346  0.1190
 7223W        W23697   9.693   7.423  14.898  0.0590  0.1368 -0.1993
 7224W        W23698  11.433   2.232   0.175  0.1308 -0.1718  0.1143
 7225W        W23699   6.110  13.591  13.268 -0.4621 -0.2303 -0.2016
 7226W        W23700   2.024   5.799   1.227 -0.0885 -0.3352  0.3283
 7227W        W23701   2.960  11.164  14.368  0.1299 -0.0620  0.1647
 7228W        W23702  15.311  14.372  13.926 -0.2982 -0.3936  0.0247
 7229W        W23703  12.913   3.518   2.311 -0.0280 -0.2679 -0.0740
 7230W        W23704  16.225   9.955   2.691  0.1846  0.0483 -0.0156
 7231W        W23705  11.913  11.862  12.190 -0.3158  0.2237 -0.1581
 7232W        W23706  15.496  12.111   4.713  0.0966 -0.1705  0.3596
 7233W        W23707  10.804  17.206  13.973 -0.0649 -0.1458 -0.1891
 7234W        W23708  18.098   7.787   0.623 -0.0358  0.0412 -0.2692
 7235W        W23709  17.856   6.128  14.359 -0.1089 -0.1590  0.0817
 7236W        W23710  16.177   7.831  13.095  0.0605 -0.2208 -0.0012
 7237W        W23711  10.734  14.824   5.092  0.3391  0.1741 -0.0678
 7238W        W23712   0.468  12.863  12.171  0.2782 -0.0054 -0.0595
 7239W        W23713   8.499   1.358   4.457  0.1966  0.0079  0.0244
 7240W        W23714  18.393   0.692  11.660  0.1113  0.1921 -0.0840
 7241W        W23715   4.124   7.765  11.720  0.2101 -0.0378  0.1399
 7242W        W23716   2.020  16.521   5.376  0.2349 -0.1613 -0.1622
 7243W        W23717  12.259   9.332  13.379  0.0758  0.5108 -0.3509
 7244W        W23718   5.005  11.890  10.646  0.1276  0.3103 -0.0885
 7245W        W23719  18.751   8.426  14.263 -0.2726 -0.1807  0.2555
 7246W        W23720  17.899  18.224   0.957  0.2907  0.1765 -0.0793
 7247W        W23721   3.080  10.649   0.415 -0.0173  0.0620  0.1792
 7248W        W23722  18.240  17.605  11.350  0.0970  0.0550 -0.0922
 7249W        W23723  13.099   1.840   1.270 -0.1069 -0.0208 -0.1854
 7250W        W23724  17.008   8.011  14.320  0.3311 -0.4342  0.3643
 7251W        W23725  13.964  16.345   1.726  0.1679 -0.0214  0.2341
 7252W        W23726   2.762   0.381  12.565  0.0891 -0.0642 -0.3125
 7253W        W23727   5.692  16.728   0.934  0.0759 -0.1455 -0.2453
 7254W        W23728  10.242   5.803   3.326  0.1172 -0.0618  0.1105
 7255W        W23729  15.520  18.721   1.320 -0.0987  0.3034 -0.3974
 7256W        W23730  14.766   3.244   2.122 -0.2789 -0.0657  0.2181
 7257W        W23731  18.182  13.595   3.231  0.1401  0.0024  0.0569
 7258W        W23732   1.495  15.626  15.420 -0.1465  0.3627 -0.1719
 7259W        W23733  14.105  15.917   3.225  0.1047  0.0901 -0.0530
 7260W        W23734  18.506   7.660   3.985  0.0319  0.0229 -0.2029
 7261W        W23735  10.276  13.151  14.702 -0.0166  0.0095 -0.0209
 7262W        W23736   4.137   7.844   0.225 -0.0979 -0.1764  0.1415
 7263W        W23737   6.194   5.650   3.430  0.4051  0.2026 -0.2119
 7264W        W23738  15.650  14.497  12.662 -0.0957  0.1552  0.0746
 7265W        W23739  16.824  15.478  11.362 -0.0930  0.0138 -0.1627
 7266W        W23740  11.435  17.265  15.393 -0.0470  0.1224  0.0790
 7267W        W23741   4.981   7.862  13.118 -0.2628  0.0838  0.0826
 7268W        W23742  17.701   0.094   0.501 -0.1355 -0.2527 -0.3166
 7269W        W23743   7.633  14.295   3.049  0.2489  0.0364  0.1550
 7270W        W23744  14.030  11.388  10.239 -0.3303  0.0952  0.1497
 7271W        W23745   3.949   0.815   0.606 -0.0738 -0.1918 -0.1744
 7272W        W23746  12.029   2.618   2.594  0.4883  0.0437 -0.1136
 7273W        W23747  16.613   1.167  14.387  0.1132  0.0601  0.3146
 7274W        W23748   3.913   5.872  12.209 -0.1654  0.1548  0.2237
 7275W        W23749  11.202   1.288  12.662 -0.1185  0.0169  0.0825
 7276W        W23750  13.854   9.613  15.300 -0.0832 -0.1404  0.1021
 7277W        W23751   9.617   7.637   1.854 -0.1308 -0.1063 -0.1831
 7278W        W23752   2.737  15.419  14.452  0.1032 -0.2892  0.0079
 7279W        W23753   7.902  12.400  14.412 -0.0539  0.3270 -0.0976
 7280W        W23754  15.929  16.488  12.568  0.1745 -0.3041  0.1191
 7281W        W23755  14.845   1.176   3.231  0.0130 -0.0111 -0.3087
 7282W        W23756  10.409   2.201  15.023 -0.2663 -0.1370 -0.1999
 7283W        W23757  15.441  11.803   1.379 -0.3014 -0.3064 -0.3477
 7284W        W23758   8.169  16.337   2.182  0.1634 -0.0522  0.1493
 7285W        W23759  12.799  17.579  13.696  0.0356  0.0357  0.2857
 7286W        W23760   6.478   7.352   3.876  0.2280 -0.0498 -0.2599
 7287W        W23761  13.373   2.870  15.183 -0.2295 -0.1862  0.1223
 7288W        W23762  15.473   9.836   4.328  0.1813  0.3078  0.2752
 7289W        W23763   0.820  17.739   2.226 -0.1954  0.0598  0.0649
 7290W        W23764  16.526   3.577  10.966  0.1871 -0.1594 -0.1645
 7291W        W23765  13.104   5.524   5.495  0.0308  0.1199  0.0002
 7292W        W23766  11.033  15.446  15.467 -0.1093 -0.2651  0.0158
 7293W        W23767   4.400   0.147  11.778 -0.2586  0.0177 -0.0702
 7294W        W23768  13.330  12.440   0.101  0.0468 -0.2028  0.2187
 7295W        W23769   5.721  12.824  12.749  0.0323  0.1977 -0.0493
 7296W        W23770  17.197  10.631   3.476  0.1439  0.0479 -0.3143
 7297W        W23771   4.424   4.505   1.041  0.2911  0.0875 -0.1894
 7298W        W23772   3.846  10.857   1.338 -0.0175 -0.2031  0.0144
 7299W        W23773   8.789   2.211  12.211  0.1808 -0.0437 -0.1876
 7300W        W23774  15.158   7.693  13.531 -0.0441 -0.0974 -0.1538
 7301W        W23775  15.155   9.074  10.848  0.3136  0.0337 -0.2165
 7302W        W23776   7.244  17.911   3.845 -0.0673 -0.0458  0.0205
 7303W        W23777   7.126   9.607  11.926 -0.1196  0.0594 -0.2258
 7304W        W23778  10.196   6.583   0.555 -0.0585  0.3216 -0.2656
 7305W        W23779  18.109  14.824   4.387 -0.0548 -0.0252  0.1034
 7306W        W23780  10.356   3.249  13.240 -0.1060  0.1271  0.0417
 7307W        W23781  15.123  10.479   3.432 -0.1681 -0.0678  0.0235
 7308W        W23782   6.554   3.079  12.819  0.2130  0.1915 -0.3328
 7309W        W23783   9.158   3.573  13.221 -0.1285 -0.0593  0.0642
 7310W        W23784  16.059   2.929   2.181  0.0720 -0.0442  0.2661
 7311W        W23785   6.182   6.745  15.082  0.0800 -0.1478  0.1070
 7312W        W23786   1.299   4.881  13.317  0.1731 -0.0930 -0.1673
 7313W        W23787   6.190  14.679   0.382 -0.0327  0.1300 -0.1153
 7314W        W23788   9.024  12.068  14.175 -0.1709  0.1769  0.3940
 7315W        W23789  11.561  15.915  11.288  0.5392  0.0259  0.0837
 7316W        W23790   0.101   2.044   2.631 -0.2160 -0.1366 -0.0138
 7317W        W23791   9.402   6.058  12.697 -0.4231 -0.1347 -0.2870
 7318W        W23792  12.784   5.136   0.676 -0.2508  0.3516 -0.1697
 7319W        W23793  17.547  15.499   3.735 -0.0636 -0.0682 -0.0974
 7320W        W23794  10.759  16.069   5.693 -0.2989  0.1270  0.1009
 7321W        W23795  11.306  14.358  13.596 -0.1529 -0.2366  0.1430
 7322W        W23796   4.462  12.255   3.435 -0.1076 -0.2263 -0.2632
 7323W        W23797  18.211  18.777   2.346 -0.2289  0.0130  0.1446
 7324W        W23798   0.751  17.149   3.662 -0.1151  0.1913  0.3114
 7325W        W23799   1.330   4.606  11.362  0.0077  0.2012 -0.3796
 7326W        W23800  15.564  13.834  11.531 -0.1716 -0.3259 -0.1088
 7327W        W23801  11.277   2.169   4.800 -0.1752  0.2135  0.2895
 7328W        W23802   8.195   7.589   5.507 -0.1638 -0.1942  0.2737
 7329W        W23803   1.374   5.421   4.431  0.2603 -0.0274 -0.0975
 7330W        W23804  13.710   9.616  13.543  0.1790 -0.1303  0.1937
 7331W        W23805   2.961   6.223   4.827  0.1659  0.0129  0.0369
 7332W        W23806   0.794  15.181   5.697 -0.2290 -0.1263  0.1540
 7333W        W23807   4.000   1.145   1.716  0.1499 -0.3536 -0.0646
 7334W        W23808  10.744   5.806  11.118 -0.2025  0.0167 -0.4367
 7335W        W23809   6.372  17.048  14.173 -0.2873  0.0908 -0.2458
 7336W        W23810  17.807  10.355  12.515 -0.0065  0.0222  0.5989
 7337W        W23811  13.999   7.182   1.766 -0.0855  0.1251 -0.0526
 7338W        W23812   9.925   6.641  13.117 -0.2539 -0.1350  0.1922
 7339W        W23813   0.059  10.508  14.259  0.0535  0.2159  0.0305
 7340W        W23814  12.119  12.027  10.745 -0.0342 -0.3457  0.1450
 7341W        W23815  17.564  16.932  11.758 -0.3175 -0.2277 -0.4282
 7342W        W23816   1.580  17.635  11.068 -0.0576 -0.1844 -0.2025
 7343W        W23817   0.113  13.960   1.714  0.0682 -0.1392 -0.1882
 7344W        W23818   6.869  11.816  11.092 -0.2953 -0.0162  0.1485
 7345W        W23819  12.621   5.571   5.659  0.0830  0.0323  0.3968
 7346W        W23820   5.182   4.499  12.671  0.1191  0.0870  0.0216
 7347W        W23821  14.270   8.338   3.627 -0.0883  0.2371 -0.2688
 7348W        W23822   0.137  16.579   3.139 -0.1419  0.0114 -0.2871
 7349W        W23823  16.809  18.133  11.439  0.2092  0.3939  0.1189
 7350W        W23824   2.466  18.482   3.010  0.0630 -0.1156  0.5405
 7351W        W23825   0.988  11.677  14.498 -0.2125 -0.1839 -0.3065
 7352W        W23826   8.874   0.237   2.868 -0.3318  0.1669  0.0663
 7353W        W23827   1.760  14.995  10.977  0.6337 -0.0311  0.1940
 7354W        W23828   6.400  17.332   0.990 -0.2684 -0.1748  0.1903
 7355W        W23829   6.385  11.401   4.972  0.3022 -0.0424  0.3822
 7356W        W23830  13.304   1.297  13.614  0.0558  0.1024  0.0128
 7357W        W23831  13.873   9.608  10.901  0.2954  0.0329 -0.1615
 7358W        W23832  10.588  13.166   0.341 -0.2156 -0.3272 -0.1321
 7359W        W23833   0.716   4.420   0.464  0.2693 -0.0249 -0.0617
 7360W        W23834  17.529  15.899  11.783 -0.4116 -0.1885 -0.3982
 7361W        W23835   1.287  11.633  12.606  0.0815  0.0880  0.0419
 7362W        W23836  17.074  18.548   0.912 -0.3878 -0.2953 -0.0966
 7363W        W23837   7.787   7.344   0.929  0.0510  0.0594  0.0929
 7364W        W23838   8.150   4.260  13.865 -0.1252  0.0945 -0.2024
 7365W        W23839   9.108  10.710  13.609 -0.0374 -0.1776  0.2963
 7366W        W23840  14.044  13.706  12.581 -0.2624  0.0357  0.1021
 7367W        W23841  10.070   2.159   3.750  0.1794  0.1031 -0.0345
 7368W        W23842  17.443   4.160   3.464  0.3759 -0.2241 -0.1554
 7369W        W23843  13.514   6.712   0.462  0.0657 -0.2558 -0.1737
 7370W        W23844  15.941  16.553   3.248  0.1213 -0.0598 -0.1428
 7371W        W23845  17.840   5.038   4.565 -0.3454  0.1700  0.1132
 7372W        W23846   6.669  12.178  15.366  0.1485  0.1725 -0.0597
 7373W        W23847  18.419   6.780  12.108 -0.1467 -0.1969 -0.0539
 7374W        W23848   7.982  17.515  11.954  0.1580 -0.3373 -0.2211
 7375W        W23849  17.715   6.806  10.604 -0.0260 -0.1531  0.0650
 7376W        W23850  16.473  14.738   3.315  0.1812 -0.0178  0.1079
 7377W        W23851   1.496   0.899  13.602 -0.0887  0.2325 -0.0454
 7378W        W23852  18.248  11.168   1.000 -0.1599  0.1762  0.0081
 7379W        W23853  16.557  13.275   1.316  0.1649 -0.0708 -0.0801
 7380W        W23854   5.499  11.250  10.533  0.2614  0.1361 -0.0364
 7381W        W23855  11.643  18.662  15.307  0.0014  0.0961 -0.1761
 7382W        W23856  18.776  11.806   5.656 -0.1663 -0.0230 -0.0039
 7383W        W23857   0.159  14.999   1.856 -0.1664  0.2112 -0.3400
 7384W        W23858   7.195  15.399  14.620 -0.2136 -0.1507  0.2727
 7385W        W23859  15.427  12.104  13.969  0.2035 -0.1703  0.1205
 7386W        W23860  12.366   7.962   1.365  0.1933 -0.0253  0.0106
 7387W        W23861   3.342   5.249   3.405 -0.3750  0.0918  0.1126
 7388W        W23862   7.534  15.405  11.345  0.1579 -0.1843 -0.3759
 7389W        W23863   2.158   0.023   0.921  0.0055 -0.0818  0.0601
 7390W        W23864   3.252   3.440   2.957  0.3781 -0.0756 -0.0269
 7391W        W23865   3.813   0.250   3.310 -0.0876 -0.0812  0.0798
 7392W        W23866   3.863   8.240  11.746 -0.0520  0.1769  0.0328
 7393W        W23867   9.475   0.067   2.199  0.3183 -0.1090  0.1471
 7394W        W23868   8.091   5.040   0.139 -0.0404  0.2073  0.0853
 7395W        W23869   7.721  11.851   3.624 -0.1211  0.1057  0.1482
 7396W        W23870   2.358   4.123  15.342 -0.1551  0.1627 -0.3584
 7397W        W23871   4.172  11.111  14.946  0.0668  0.0658 -0.0884
 7398W        W23872   8.725  17.770   3.838 -0.1009  0.1753 -0.1335
 7399W        W23873   3.354   5.703  13.829 -0.1543  0.3834  0.0685
 7400W        W23874   7.010   1.827  10.695 -0.0220 -0.4307  0.3121
 7401W        W23875  15.636   3.561   2.166  0.0453 -0.0739  0.2724
 7402W        W23876   8.291  18.466  12.510  0.3421 -0.1614 -0.0093
 7403W        W23877  17.860   7.068  14.953  0.2086 -0.2780  0.1999
 7404W        W23878   9.259  14.435  14.737 -0.0346  0.1326  0.1356
 7405W        W23879   5.721   4.628  13.730  0.2388  0.0102  0.0751
 7406W        W23880  11.126  11.668  13.835 -0.2793  0.0827  0.1858
 7407W        W23881  13.963  16.255  11.659 -0.4192 -0.1615  0.2997
 7408W        W23882   3.206  17.523   5.150  0.1084 -0.2375 -0.0261
 7409W        W23883  10.380   1.203  14.347 -0.0843 -0.2837 -0.3010
 7410W        W23884   5.312   8.116  12.426  0.1826 -0.1135 -0.0141
 7411W        W23885  15.210  10.012   1.582 -0.0086  0.2223 -0.0399
 7412W        W23886  14.680  18.789   2.591 -0.1114  0.1561 -0.3465
 7413W        W23887  18.210   6.936  14.587  0.0462 -0.3035 -0.1154
 7414W        W23888   3.258  16.426   3.070  0.3663  0.2302 -0.0625
 7415W        W23889   3.093   6.262  12.760 -0.0769  0.1077 -0.2026
 7416W        W23890  18.130   9.708   1.518  0.0696 -0.0390 -0.0702
 7417W        W23891   4.589   5.978  13.815 -0.1311  0.1023  0.1979
 7418W        W23892   2.585  18.182   4.624  0.2070 -0.0018  0.0996
 7419W        W23893   2.800   2.619  15.420  0.0326 -0.1303  0.0591
 7420W        W23894   6.878   4.815  13.310 -0.1578  0.1935 -0.0827
 7421W        W23895   5.375   3.437  13.083 -0.2240  0.1372  0.1894
 7422W        W23896   2.716   2.314  11.991 -0.0816 -0.0887 -0.0046
 7423W        W23897   9.575  15.440   5.620  0.0570  0.2701 -0.1526
 7424W        W23898  14.738   6.920  14.926 -0.1209 -0.0701 -0.1106
 7425W        W23899  15.318  16.063  14.502 -0.0277  0.3436 -0.0465
 7426W        W23900   1.965  17.328   0.435  0.1944 -0.2288 -0.0071
 7427W        W23901   1.583  18.642  12.971 -0.0224  0.1809  0.2848
 7428W        W23902  11.043   2.397  12.213  0.4775  0.0693  0.0116
 7429W        W23903   2.372  11.268   0.122 -0.2473  0.0241  0.2414
 7430W        W23904  11.977  15.174   0.458  0.0103  0.0280 -0.2721
 7431W        W23905   8.421   6.467  12.687 -0.0306 -0.0460 -0.0098
 7432W        W23906   8.597  17.628  11.143  0.1303  0.0003 -0.0125
 7433W        W23907  10.583  16.975  13.426  0.0751  0.1121  0.2822
 7434W        W23908   1.868  18.282   1.264  0.1046  0.2891 -0.1053
 7435W        W23909  16.038   8.383   3.499 -0.0557  0.1627 -0.1721
 7436W        W23910  17.853   5.582  13.573 -0.1466  0.2129  0.1110
 7437W        W23911  12.047   6.317  12.159  0.1546  0.1543 -0.1045
 7438W        W23912  10.449   1.267  13.837  0.2923 -0.3772  0.0889
 7439W        W23913   1.022  18.214   2.169 -0.1302  0.0993  0.1030
 7440W        W23914  11.660  18.397  14.442 -0.1143  0.0349 -0.2803
 7441W        W23915  12.886   1.705  15.493 -0.2201 -0.2053  0.1659
 7442W        W23916  18.635  15.719  15.562  0.1684 -0.1238 -0.3654
 7443W        W23917  16.357   2.152   5.809 -0.2701  0.1553 -0.0709
 7444W        W23918   4.111   5.170  11.020  0.0254  0.1251 -0.0647
 7445W        W23919   8.894  15.692  12.099  0.0018  0.0284 -0.2285
 7446W        W23920   8.818   2.452   3.744 -0.1677  0.0857 -0.3388
 7447W        W23921   3.476  16.187   3.626  0.1826  0.1213  0.2001
 7448W        W23922  17.722  12.490   0.413  0.1144 -0.0870 -0.0389
 7449W        W23923  17.941   8.178  13.916  0.1133  0.0850 -0.0636
 7450W        W23924   7.081   5.619   5.164 -0.1677 -0.1288 -0.0496
 7451W        W23925  13.077  11.141  13.332  0.1108 -0.2069 -0.1378
 7452W        W23926  10.678  14.826  14.929 -0.3539 -0.0269  0.2288
 7453W        W23927   9.168   8.575  13.243  0.1492 -0.2380  0.0141
 7454W        W23928   5.292  18.502   4.295 -0.2186 -0.2082  0.0425
 7455W        W23929   2.608  16.563  12.601  0.3954 -0.1456  0.0440
 7456W        W23930  10.707   4.186  13.453  0.1258  0.0237 -0.0662
 7457W        W23931  17.793   8.984  13.890 -0.2355  0.0676 -0.2457
 7458W        W23932  11.221   5.863  12.734  0.0532  0.0122 -0.3105
 7459W        W23933   2.921  15.230   4.458 -0.0720 -0.0513  0.0782
 7460W        W23934  12.484  16.137  14.770 -0.0195 -0.0431  0.1595
 7461W        W23935   2.236  17.101  13.299  0.2906 -0.2485  0.2994
 7462W        W23936   2.503  16.066  10.992  0.3049  0.2001 -0.0340
 7463W        W23937  13.367   3.221  11.402 -0.2432 -0.0611  0.1065
 7464W        W23938  11.793  13.450  13.029 -0.1453  0.0657  0.3223
 7465W        W23939   1.425   3.713  10.951 -0.4378 -0.1035 -0.1199
 7466W        W23940   9.973  16.400   3.850 -0.0988 -0.0834  0.2828
 7467W        W23941   3.634   1.803  11.742 -0.1508 -0.1142 -0.1481
 7468W        W23942   4.207   5.456   1.085 -0.2315 -0.0055 -0.0464
 7469W        W23943  11.788  15.834  15.417 -0.0634  0.1866 -0.0248
 7470W        W23944  17.700   5.870  12.401 -0.1228  0.1645 -0.1427
 7471W        W23945   8.238  17.058   3.969  0.0601  0.0434 -0.1453
 7472W        W23946   0.093   2.506   1.004 -0.1855 -0.1259  0.3676
 7473W        W23947  10.574  14.959   2.049  0.0331 -0.0754  0.0316
 7474W        W23948   6.013   5.143  15.391  0.3268 -0.0134 -0.3766
 7475W        W23949  17.230   5.389   0.487  0.0541  0.1805 -0.0963
 7476W        W23950  11.216   1.575   0.917 -0.1740 -0.1132  0.0816
 7477W        W23951  11.036   2.363   2.635 -0.1954 -0.0517 -0.1725
 7478W        W23952   4.207  15.038   1.508 -0.2189  0.2951  0.1289
 7479W        W23953   1.097  10.927  12.520 -0.1287  0.1249  0.0004
 7480W        W23954   6.283  16.871  11.390  0.1685  0.2282  0.1886
 7481W        W23955   8.854   5.665  12.176  0.0605 -0.4425 -0.1000
 7482W        W23956  10.825   8.013  11.915  0.3037 -0.4186 -0.1424
 7483W        W23957  11.686   5.491   1.984 -0.0966 -0.1696  0.0843
 7484W        W23958   5.408  13.741   3.641  0.1861 -0.2179 -0.1372
 7485W        W23959   7.067   3.795  13.101 -0.1072 -0.1355  0.0446
 7486W        W23960   2.770   2.031  12.909  0.0425  0.3075  0.0874
 7487W        W23961   6.471   8.012  13.470 -0.1787 -0.0131  0.2212
 7488W        W23962   1.017  14.511   2.467  0.3911  0.1183  0.0999
 7489W        W23963  17.549   2.892  13.224  0.0173  0.2254 -0.1935
 7490W        W23964  12.460  14.086  13.291  0.0922  0.1115 -0.0072
 7491W        W23965   1.209  14.320   4.428  0.0808  0.0594  0.1666
 7492W        W23966   2.120   1.538  11.061 -0.0842 -0.0760 -0.0442
 7493W        W23967  12.601  10.208   2.870  0.1875 -0.0826  0.2460
 7494W        W23968  10.094   6.083   2.495  0.1414  0.0922 -0.5243
 7495W        W23969  15.872   1.847   5.057  0.1259 -0.2936  0.2619
 7496W        W23970  17.803  10.876  13.290  0.0966  0.0692  0.0995
 7497W        W23971   4.357   8.230  11.754 -0.0804  0.0919 -0.1681
 7498W        W23972   1.417  14.374   2.218  0.0581 -0.2663  0.2340
 7499W        W23973   0.635  12.321  12.817 -0.1790  0.1454 -0.0857
 7500W        W23974   7.151   2.182  11.177 -0.0493 -0.1455  0.0431
 7501W        W23975   5.412   0.418  11.046 -0.1062 -0.2737 -0.1970
 7502W        W23976  11.238   2.973   4.118  0.0082 -0.0166 -0.0393
 7503W        W23977   2.231   3.607  13.961 -0.3866 -0.1209 -0.0621
 7504W        W23978  18.536  17.526   4.323 -0.2791 -0.2318 -0.1633
 7505W        W23979  18.021   8.123   2.181  0.0133  0.1831 -0.1256
 7506W        W23980   2.130   3.784   1.798 -0.2707  0.0882 -0.3842
 7507W        W23981  11.054   7.096   3.666  0.0762  0.0652  0.0999
 7508W        W23982  15.793   5.334   2.971  0.0732 -0.2001  0.1818
 7509W        W23983  17.182   4.783   2.498  0.2014 -0.3521  0.1107
 7510W        W23984  11.128  18.355  13.386  0.0846  0.2888 -0.0369
 7511W        W23985   6.600  15.356   0.944 -0.0499 -0.0857  0.0467
 7512W        W23986  10.939   0.536  10.473  0.2328  0.0343 -0.0370
 7513W        W23987   5.541   3.178   2.410 -0.1791 -0.0376 -0.3201
 7514W        W23988  11.743  15.075  10.576 -0.0362 -0.1208  0.0977
 7515W        W23989  15.937  10.851   1.394 -0.1302 -0.1270  0.0016
 7516W        W23990   9.815   3.689  13.069  0.1333  0.2037  0.1946
 7517W        W23991  13.334   7.996   1.260 -0.1261  0.1548  0.0403
 7518W        W23992   9.214   8.118  10.013 -0.1435 -0.1857  0.3667
 7519W        W23993  16.614  12.626   1.802 -0.1513  0.0259  0.1108
 7520W        W23994  11.945   1.444   4.768  0.2080 -0.0823  0.2051
 7521W        W23995  10.960   7.143  10.905 -0.1065  0.1344  0.0411
 7522W        W23996   3.135   0.683  12.901 -0.2679  0.1136  0.0555
 7523W        W23997  16.746   1.530  11.223 -0.0664 -0.1051 -0.1336
 7524W        W23998  10.074  18.332   1.704 -0.2449 -0.0814 -0.0846
 7525W        W23999   8.540  14.979  15.209  0.3837  0.0460  0.0556
 7526W        W24000  18.514  11.442   2.980  0.2450 -0.0653 -0.1405
 7527W        W24001   3.785   6.862   2.171  0.2417  0.1663  0.2164
 7528W        W24002   8.133   0.776   3.530  0.1345  0.3094 -0.0871
 7529W        W24003  14.945   5.333   0.200  0.2802 -0.0827 -0.2049
 7530W        W24004   7.207  18.080  10.722 -0.0507  0.1576  0.0497
 7531W        W24005  15.239   0.387   2.444  0.1255  0.0145 -0.2486
 7532W        W24006  16.436  16.157  11.826 -0.0408 -0.3770  0.0362
 7533W        W24007   4.218  13.907  14.628 -0.3955 -0.2331  0.0289
 7534W        W24008   1.838   8.532  13.928 -0.2590  0.0185  0.2553
 7535W        W24009   6.519  15.852  12.731 -0.0034 -0.4880  0.1797
 7536W        W24010   9.600  14.365   4.794  0.4021  0.2550 -0.1460
 7537W        W24011   1.711   3.393  11.881 -0.3926  0.2171 -0.1485
 7538W        W24012   4.204  11.058   1.573 -0.1031 -0.2535 -0.1905
 7539W        W24013   9.804   7.317   2.352  0.2790  0.1182  0.1279
 7540W        W24014  10.525  12.649  13.028 -0.2992  0.4274 -0.1466
 7541W        W24015   9.510   2.357  13.307  0.3982  0.2299  0.0717
 7542W        W24016   5.070  10.261   0.918  0.2307  0.1703  0.1218
 7543W        W24017   7.962  10.704  12.117 -0.0981  0.0603  0.0460
 7544W        W24018   9.491  12.994  13.109  0.0704  0.0801 -0.0651
 7545W        W24019   4.897  10.965  15.425  0.0921  0.1175 -0.2237
 7546W        W24020  18.491   2.760   0.294 -0.0907 -0.2762 -0.0787
 7547W        W24021   7.698   2.209   2.777  0.0187 -0.0884  0.0956
 7548W        W24022  10.616  18.739   3.512 -0.3357 -0.5177  0.1111
 7549W        W24023  12.053   1.683   2.589 -0.2273 -0.0303 -0.0881
 7550W        W24024  10.007   5.792  13.342  0.2492  0.1596 -0.0530
 7551W        W24025   3.618  16.165   2.163 -0.0398 -0.0004 -0.0701
 7552W        W24026   2.906  13.280   4.336 -0.1298 -0.0923  0.2265
 7553W        W24027   2.797   1.779  11.962  0.3554  0.1277 -0.1083
 7554W        W24028   8.921   0.618   2.498 -0.2026 -0.2527  0.0114
 7555W        W24029   4.904   4.947   1.698  0.0128 -0.3529  0.0499
 7556W        W24030   5.466   8.266  14.399  0.0236 -0.1961 -0.0530
 7557W        W24031   0.727  14.440  13.004  0.0484 -0.1275  0.2549
 7558W        W24032   7.290  18.414   2.319  0.3028  0.0899 -0.1696
 7559W        W24033   8.938  13.082  11.155  0.0341 -0.2142  0.1222
 7560W        W24034  10.732  17.326   3.752 -0.1111 -0.4361 -0.0256
 7561W        W24035   2.734   2.101   0.136  0.0672 -0.2021  0.2914
 7562W        W24036   8.025   0.822   0.964 -0.0245 -0.3414 -0.1214
 7563W        W24037   1.583   4.385   2.239 -0.0903  0.3536 -0.0861
 7564W        W24038   6.326   2.249  13.960  0.2177  0.1003  0.0683
 7565W        W24039   6.008   4.261   2.274 -0.2223  0.0590 -0.0632
 7566W        W24040   4.252  17.158   0.744 -0.0719 -0.5735  0.1909
 7567W        W24041   5.462  12.425  13.578  0.1833 -0.0942 -0.0378
 7568W        W24042  12.940   5.728   2.053 -0.0111 -0.0177  0.1153
 7569W        W24043   6.336   2.547   3.465  0.2189 -0.0520  0.0779
 7570W        W24044  13.698  15.041   1.579 -0.0339 -0.0711  0.2893
 7571W        W24045  15.623   8.554   3.647  0.0644 -0.1953 -0.2938
 7572W        W24046  14.435  16.550  11.640  0.2690  0.0284  0.1081
 7573W        W24047   1.804   4.599  13.400  0.1366  0.2288 -0.1065
 7574W        W24048   6.209   8.242   1.196  0.1128 -0.1405  0.1017
 7575W        W24049  15.567  12.531  14.608  0.0457  0.3930  0.1320
 7576W        W24050   4.229  11.814   5.546  0.1180  0.1347  0.2352
 7577W        W24051  16.088   1.342  11.370  0.0147 -0.2842 -0.0282
 7578W        W24052   7.302   3.843   0.252 -0.4107 -0.0660 -0.2586
 7579W        W24053  13.212   9.458  11.617  0.0941  0.2887 -0.1923
 7580W        W24054  15.616   7.886   1.128  0.2009 -0.0476  0.2881
 7581W        W24055  12.523  17.085   4.424  0.2522 -0.2304  0.0930
 7582W        W24056  14.226  12.360   4.818  0.0223 -0.2780 -0.3036
 7583W        W24057  13.923  18.776  13.544 -0.0143 -0.1121  0.2411
 7584W        W24058  10.175   7.692  14.737  0.0030 -0.2510  0.1645
 7585W        W24059   2.944  14.720  10.787  0.1325 -0.0299  0.1588
 7586W        W24060  12.787  14.459  13.315  0.0114 -0.1300  0.0009
 7587W        W24061   8.731  17.094   2.627  0.0718 -0.0129 -0.0605
 7588W        W24062   7.638  10.288   4.904  0.0862  0.3017  0.2982
 7589W        W24063   1.119  14.997  11.678 -0.2645 -0.1383 -0.1277
 7590W        W24064  12.225   4.735   4.870  0.0047  0.0984 -0.0001
 7591W        W24065  13.213  13.821  12.306  0.1253  0.0114  0.2770
 7592W        W24066  16.337   1.351   0.147 -0.0781 -0.0887  0.0321
 7593W        W24067   1.442   7.666  15.437 -0.3161  0.1585 -0.0462
 7594W        W24068   6.525  17.657  10.904  0.0761 -0.3475  0.1083
 7595W        W24069  18.689  10.098   2.123 -0.0621  0.2460 -0.0712
 7596W        W24070   1.421   7.502  11.043 -0.1410 -0.0941  0.0061
 7597W        W24071  10.790   2.885   0.758  0.0209  0.0037 -0.0979
 7598W        W24072  10.337  18.241  15.030 -0.1940  0.0338  0.3095
 7599W        W24073  15.975   8.188   4.519 -0.2727 -0.1373 -0.0636
 7600W        W24074  13.903   6.073  12.754  0.0484  0.0323 -0.3174
 7601W        W24075   8.261   4.806  12.982 -0.2123  0.3062  0.0224
 7602W        W24076  10.273   0.237  14.626 -0.1158  0.0315  0.3136
 7603W        W24077  12.104   0.123   4.706  0.5578 -0.0749  0.4093
 7604W        W24078   8.546   6.795   3.825  0.2506  0.0089 -0.0695
 7605W        W24079  11.636   0.583   1.198  0.0064 -0.2689 -0.1268
 7606W        W24080  14.443   6.332   2.843 -0.2464  0.2071  0.2265
 7607W        W24081  13.116   9.995   4.811 -0.2479  0.1011  0.1629
 7608W        W24082  14.313   6.095   0.024 -0.0966  0.0331  0.2896
 7609W        W24083  14.000   3.344  14.250 -0.0983  0.0416  0.1349
 7610W        W24084  16.201   6.553  13.273  0.1441  0.1911  0.0666
 7611W        W24085   8.547  15.719  13.649 -0.1092 -0.1467 -0.0083
 7612W        W24086  17.803   0.770   3.838  0.0919  0.0492  0.2776
 7613W        W24087   1.858  11.908   0.292  0.2862 -0.2074  0.0577
 7614W        W24088   5.656  12.363   1.494  0.0614  0.0615 -0.0969
 7615W        W24089  15.882   9.232  12.343 -0.1686 -0.1834 -0.0851
 7616W        W24090   3.296  16.926  11.219  0.1725  0.0693 -0.0867
 7617W        W24091  17.582  16.808  15.037  0.1192  0.0928  0.3367
 7618W        W24092  18.713  15.453  12.587 -0.0788 -0.0527  0.1885
 7619W        W24093  14.848  18.625   3.016  0.2383  0.0651 -0.2442
 7620W        W24094  16.284  18.515   3.153  0.1440 -0.1594  0.2247
 7621W        W24095  14.824   7.362   4.464 -0.2374  0.1614  0.1862
 7622W        W24096  18.705  14.450   2.689  0.1910  0.0120 -0.2817
 7623W        W24097  11.407  17.073  10.761 -0.1081 -0.1914 -0.2826
 7624W        W24098   9.619  11.602   1.795  0.0713  0.1755 -0.0357
 7625W        W24099  11.857   0.817  11.550 -0.0534 -0.2090  0.1041
 7626W        W24100   7.741  11.759   0.524  0.1206  0.2972 -0.1795
 7627W        W24101   9.982   9.422  14.186  0.0161 -0.0247  0.3316
 7628W        W24102   7.376  16.966  15.283  0.2216  0.0815 -0.0805
 7629W        W24103   1.018  16.983   0.430 -0.1455 -0.0756  0.2880
 7630W        W24104  17.901  14.997  11.595  0.0973 -0.0401  0.1681
 7631W        W24105   1.468   7.254   5.595 -0.1393  0.2177 -0.0187
 7632W        W24106  13.270  15.387  13.211 -0.1553 -0.2346 -0.3168
 7633W        W24107  14.289   8.499   3.169 -0.0270  0.1440 -0.0504
 7634W        W24108  17.493  14.668  10.858 -0.0865 -0.1110 -0.2108
 7635W        W24109  13.270  10.910   3.046  0.4051 -0.2198 -0.2094
 7636W        W24110   2.009   3.579   0.220 -0.1025  0.2362 -0.0113
 7637W        W24111  16.411   3.136   3.501  0.3283 -0.2346  0.0933
 7638W        W24112   3.949  14.338   2.646  0.0676 -0.3070 -0.1346
 7639W        W24113   9.318  13.283   0.678 -0.0863  0.2485 -0.1033
 7640W        W24114   8.828   6.418   5.427  0.1083 -0.1088 -0.2030
 7641W        W24115  17.411  11.760  11.428  0.1557 -0.0136 -0.2466
 7642W        W24116   8.094   8.358  15.485  0.2611  0.0161  0.3169
 7643W        W24117   0.193  16.344  14.683 -0.0249 -0.0760  0.1326
 7644W        W24118   5.255  18.321   4.775 -0.2043 -0.4135 -0.0895
 7645W        W24119  17.496  18.311   1.162 -0.1019 -0.0282  0.2043
 7646W        W24120   4.175   4.150   1.824 -0.1188 -0.1192 -0.1638
 7647W        W24121   6.597  12.711   4.306  0.1725 -0.0699 -0.1538
 7648W        W24122   5.369  16.460  10.397  0.0339 -0.2458  0.1781
 7649W        W24123   0.301   6.576  13.763 -0.0827  0.1719  0.1121
 7650W        W24124  10.640  15.932   4.856 -0.0347 -0.1080  0.2795
 7651W        W24125   0.531  12.426   4.459  0.1110  0.0557 -0.0718
 7652W        W24126   2.923  14.450   1.042  0.0415 -0.2530  0.1366
 7653W        W24127   1.706  11.387  10.956  0.0761  0.0632  0.0650
 7654W        W24128   5.880  16.321   4.863 -0.2652 -0.1131  0.2505
 7655W        W24129   2.216  10.210  10.954 -0.0862 -0.0569 -0.2928
 7656W        W24130   2.890   4.929   1.363 -0.0939  0.0664 -0.0065
 7657W        W24131   8.131   6.746   3.415 -0.0825  0.2694  0.1270
 7658W        W24132  14.953   3.961   2.811 -0.0259 -0.2344  0.1882
 7659W        W24133   8.871   2.283  14.616 -0.3072 -0.0881  0.3780
 7660W        W24134  12.259   9.601   2.192  0.0712 -0.4695  0.1452
 7661W        W24135  13.738   6.685  12.027  0.1841 -0.2626 -0.0401
 7662W        W24136   1.155  17.552   4.379 -0.1297 -0.2406 -0.1299
 7663W        W24137   5.416   2.210  14.647  0.0229 -0.3933  0.3454
 7664W        W24138   9.413  10.312  12.659 -0.2734 -0.0525  0.1175
 7665W        W24139   4.021  10.578   0.221  0.1376  0.0326 -0.2287
 7666W        W24140   5.625  16.874   0.479  0.1126  0.0672  0.1913
 7667W        W24141  16.294  12.089  15.174  0.3395 -0.1036  0.0999
 7668W        W24142  10.345   7.733  12.822  0.0265  0.0469 -0.0390
 7669W        W24143   2.876   3.186   4.557 -0.2573  0.4160  0.1593
 7670W        W24144  11.841   6.597  15.328  0.1959  0.1518  0.1963
 7671W        W24145   2.759  11.953  14.750  0.0653 -0.0444  0.3508
 7672W        W24146  15.182  14.883  13.937 -0.1712  0.2188 -0.0300
 7673W        W24147   9.357   2.928  12.535 -0.2532  0.2240 -0.2513
 7674W        W24148  13.348   1.519  15.522 -0.1787 -0.3372  0.0349
 7675W        W24149  18.355  16.219   4.627 -0.1345 -0.0584  0.3394
 7676W        W24150  16.616  15.653   3.772 -0.0068  0.2110 -0.0080
 7677W        W24151  17.592  16.576  12.210 -0.1586  0.0241 -0.1601
 7678W        W24152   0.942  15.265  14.899 -0.2756 -0.1699 -0.3122
 7679W        W24153  16.842  12.991   3.814  0.0136  0.0725 -0.1117
 7680W        W24154   0.990   3.303   1.022 -0.1164  0.1632 -0.1001
 7681W        W24155  11.906   8.672   5.743  0.1057 -0.1206  0.1270
 7682W        W24156   3.789   6.848   2.971  0.0681 -0.3084  0.0978
 7683W        W24157   8.665  17.007  14.238  0.0455 -0.3140  0.1449
 7684W        W24158  11.401  12.726   2.386  0.1463 -0.1313 -0.0080
 7685W        W24159  18.488  13.739   2.807 -0.0441 -0.2882  0.0086
 7686W        W24160  16.201  16.124   4.368 -0.2058  0.0591 -0.1025
 7687W        W24161  15.577  13.915   1.899  0.4702 -0.2992  0.0051
 7688W        W24162   5.148  15.503  10.952  0.0820  0.1551 -0.2621
 7689W        W24163   1.016  14.389   1.372 -0.0122 -0.6361 -0.1529
 7690W        W24164   2.717   0.036   1.829  0.0329 -0.0384 -0.0314
 7691W        W24165  14.577   8.778   1.428  0.0839  0.0250 -0.0252
 7692W        W24166  18.315  11.484  15.532  0.4995 -0.1198  0.1701
 7693W        W24167   3.483  15.618  12.981 -0.1840  0.1066 -0.0551
 7694W        W24168   2.633   4.113   3.146 -0.1529  0.1676  0.1345
 7695W        W24169   2.721  14.223   3.322 -0.1424 -0.1772 -0.1183
 7696W        W24170  10.188   0.691  13.118 -0.2645 -0.1245  0.5111
 7697W        W24171  10.899  13.213  12.119  0.5775  0.0351  0.1869
 7698W        W24172  10.325  13.774  14.018  0.0199  0.2568  0.1371
 7699W        W24173  11.381  10.791  13.744  0.0570 -0.0559  0.4431
 7700W        W24174  18.595   7.012   4.274  0.3594 -0.1266  0.2278
 7701W        W24175   1.124   5.510   1.080 -0.2455 -0.1960  0.2602
 7702W        W24176  15.971   3.185   0.342  0.0785 -0.0900 -0.1182
 7703W        W24177  13.123  10.921  11.919  0.1524 -0.2850  0.1999
 7704W        W24178   0.358  11.979   3.578  0.5162  0.0299  0.1403
 7705W        W24179   4.054   2.226   0.507  0.1178 -0.0325  0.1861
 7706W        W24180   6.306   9.393   4.353  0.3111 -0.0112  0.1660
 7707W        W24181  11.517   5.631  13.340 -0.2312  0.0206 -0.0883
 7708W        W24182   9.843   4.865   4.917 -0.0443 -0.4670  0.2710
 7709W        W24183  18.304   4.271  11.312 -0.1642  0.0215  0.1631
 7710W        W24184   4.793  13.277   1.080  0.0232 -0.2025 -0.3563
 7711W        W24185   5.370   6.230   2.933  0.0474 -0.1194  0.1671
 7712W        W24186   9.017  12.620  12.996  0.2300  0.2827 -0.0864
 7713W        W24187   3.385  18.010   2.195 -0.1547  0.1339 -0.0268
 7714W        W24188  13.282  15.630   0.889 -0.1606  0.1369 -0.0840
 7715W        W24189   6.692  15.859   4.118  0.2268 -0.4277  0.1546
 7716W        W24190  10.363   2.437  13.701  0.2278 -0.2835  0.0696
 7717W        W24191  11.741  12.843   4.865  0.0971  0.2261  0.0822
 7718W        W24192  11.360   5.785   0.756  0.1019  0.1649 -0.1248
 7719W        W24193  17.925  16.626  11.875  0.0840  0.2958 -0.2603
 7720W        W24194   6.042  10.893  15.215  0.0541 -0.3821 -0.0039
 7721W        W24195  11.550  12.095   1.818  0.0479 -0.1579 -0.0734
 7722W        W24196  11.348  17.950   0.111  0.0354 -0.0178  0.2621
 7723W        W24197  16.179   0.607  15.148  0.1404 -0.0914  0.0685
 7724W        W24198  17.114   1.384  13.536 -0.1011  0.2023  0.1161
 7725W        W24199  16.966   2.241   3.292  0.2150  0.0154  0.2319
 7726W        W24200  16.171  16.707  14.586  0.2140  0.0666  0.0915
 7727W        W24201   7.563  10.940   0.066 -0.1658  0.1250  0.0213
 7728W        W24202  10.291  12.623  14.735  0.0270  0.2258  0.1069
 7729W        W24203   8.489  15.562  14.639  0.2216  0.3006  0.3720
 7730W        W24204  18.543   1.389   4.565  0.2297 -0.0078 -0.1376
 7731W        W24205  13.298  15.426   0.279 -0.0182 -0.1029  0.0497
 7732W        W24206  11.713   6.873  11.520  0.2885 -0.2030 -0.2819
 7733W        W24207  13.289  14.026   2.413 -0.1228 -0.2160  0.2632
 7734W        W24208  17.737   0.217  11.046 -0.2154 -0.1921  0.0174
 7735W        W24209  12.235   2.510   4.153 -0.3496 -0.1137 -0.1653
 7736W        W24210  17.428   4.386   0.592  0.2295  0.3803 -0.2127
 7737W        W24211   9.758  13.846  11.981  0.3354 -0.1888 -0.4132
 7738W        W24212   9.604   3.011   2.488  0.3305 -0.1932 -0.0775
 7739W        W24213   3.030   9.512   2.638  0.3333 -0.1322  0.2744
 7740W        W24214   7.590  10.884   0.992  0.0215  0.1977  0.3438
 7741W        W24215  15.423   1.932  13.654 -0.0705 -0.1237  0.1036
 7742W        W24216  13.309  15.030  14.558 -0.4238  0.0101  0.0682
 7743W        W24217   0.318   1.598  10.592  0.0301 -0.0448 -0.2633
 7744W        W24218   8.341  11.931   1.805  0.0432  0.0327  0.3403
 7745W        W24219  12.879   4.280   2.853  0.1328  0.0721 -0.1738
 7746W        W24220  15.435  10.840   4.153  0.1168  0.2182 -0.0226
 7747W        W24221   8.011   0.808  13.548 -0.0365  0.2204  0.0795
 7748W        W24222   9.063   3.895   3.753  0.1826 -0.0555 -0.1026
 7749W        W24223   2.089   5.995   0.151 -0.3194  0.0229  0.1597
 7750W        W24224   1.295   0.340  11.314 -0.0721 -0.1875 -0.0781
 7751W        W24225   5.913  17.644   5.577 -0.1700 -0.1719 -0.0274
 7752W        W24226   8.612   6.475   2.808 -0.1394 -0.1266 -0.0365
 7753W        W24227   0.117   3.030   3.649  0.2064  0.2097 -0.1001
 7754W        W24228   0.102   2.567  12.806  0.0241 -0.1883 -0.1296
 7755W        W24229   4.758  16.513  12.179 -0.0090 -0.1121  0.0568
 7756W        W24230   1.572   1.139   1.145 -0.1568 -0.2222  0.2277
 7757W        W24231   6.929   0.947  14.627  0.1476 -0.1728 -0.1022
 7758W        W24232   5.253   5.067  11.436  0.1915  0.1465  0.0557
 7759W        W24233   8.106   8.089   0.751 -0.0475  0.0351 -0.1610
 7760W        W24234  13.147   7.866   0.720  0.1489 -0.2737  0.3774
 7761W        W24235   3.452  17.240   0.664  0.1516  0.0508  0.2868
 7762W        W24236   4.187  12.491   3.871 -0.0027  0.1135 -0.0412
 7763W        W24237  16.987   9.748   4.432  0.0341  0.1725  0.1378
 7764W        W24238  17.665   3.706  14.652  0.3820  0.2672 -0.0102
 7765W        W24239  16.682  16.931  13.358 -0.0496  0.0292  0.2793
 7766W        W24240   7.476   6.364   2.229  0.1591  0.0269  0.1465
 7767W        W24241  12.721   4.037  11.511  0.0299 -0.3488 -0.2646
 7768W        W24242   4.559  18.555   2.123 -0.3198  0.2818  0.1693
 7769W        W24243   5.164   1.227   3.182 -0.1835  0.0563  0.0124
 7770W        W24244   8.214  10.472   2.732  0.0587 -0.1141  0.3908
 7771W        W24245  12.956  10.961   0.035  0.0839  0.2299 -0.0035
 7772W        W24246  14.366  11.253   4.110  0.1242 -0.1806  0.2761
 7773W        W24247  15.014  14.543   3.149  0.0350  0.3200  0.0030
 7774W        W24248   5.248   5.448  10.153 -0.0788 -0.1926  0.4495
 7775W        W24249  14.797  10.512  12.919 -0.1016  0.0363  0.2199
 7776W        W24250   5.604  11.026  13.704  0.2271  0.1112  0.1677
 7777W        W24251   8.628   9.570  13.712  0.0189 -0.2962 -0.5582
 7778W        W24252   1.966  13.961  13.606  0.0048  0.1725 -0.2293
 7779W        W24253  11.511   4.641   4.728 -0.0453  0.2718  0.2709
 7780W        W24254   2.522  16.295   1.996  0.1711 -0.4305  0.0556
 7781W        W24255   3.430   8.470   3.617  0.2253  0.2637  0.0470
 7782W        W24256   4.217   6.014   1.135 -0.0828  0.1562 -0.0171
 7783W        W24257  16.582  11.059  14.227  0.1427 -0.0588  0.2437
 7784W        W24258   3.447   0.612  14.744 -0.0988 -0.2249  0.0903
 7785W        W24259  13.994   8.684   4.932  0.1446 -0.0376  0.2863
 7786W        W24260  12.679   3.114  14.530  0.1680 -0.2203 -0.0796
 7787W        W24261  13.066  12.993   0.706 -0.0047  0.0170  0.1490
 7788W        W24262   0.370   0.705  13.164 -0.2188 -0.3579 -0.0293
 7789W        W24263   4.768   2.726   0.827 -0.1374 -0.0276 -0.1627
 7790W        W24264  16.102   4.381  13.866 -0.1908  0.3694 -0.1090
 7791W        W24265   6.933  11.426   1.037 -0.0069  0.2604  0.1006
 7792W        W24266  10.004  11.574  12.009  0.1093 -0.2103  0.2999
 7793W        W24267   9.396   1.519   1.527  0.0267  0.0880 -0.3601
 7794W        W24268   7.083   4.389  12.968  0.0995 -0.2684  0.2596
 7795W        W24269   9.275   8.627  15.281  0.0980  0.1173 -0.0161
 7796W        W24270  17.096  15.936  13.591 -0.0248 -0.0006  0.0112
 7797W        W24271   6.300  18.115  15.039  0.2261  0.0559 -0.1166
 7798W        W24272  18.531   0.123   4.625  0.1024  0.0905 -0.0413
 7799W        W24273  10.696   2.258   3.079  0.0707 -0.4438  0.3386
 7800W        W24274  13.392  17.261  14.727  0.0907 -0.1398 -0.2546
 7801W        W24275   2.672  12.287  13.906  0.0988  0.1376  0.2552
 7802W        W24276  11.281   3.774   3.779 -0.1029  0.0481 -0.3520
 7803W        W24277   3.512  12.744  12.250 -0.0580 -0.0219 -0.3678
 7804W        W24278  16.800  15.234  13.968  0.0802  0.0132 -0.1999
 7805W        W24279   0.939   9.705  11.530  0.1370 -0.1357  0.2500
 7806W        W24280  10.418  13.139   2.938  0.1331 -0.0711  0.5260
 7807W        W24281  12.515   3.626   9.909  0.2113  0.0171 -0.0671
 7808W        W24282  14.871  15.241   5.099 -0.0016  0.2099 -0.0985
 7809W        W24283  10.063  15.941   4.753  0.0543 -0.1089  0.1290
 7810W        W24284   2.481   5.088   4.632 -0.0892  0.1366  0.0664
 7811W        W24285  12.319   8.917   3.753 -0.0736 -0.0283  0.1096
 7812W        W24286   4.671   1.739   2.393 -0.2527 -0.2165 -0.3887
 7813W        W24287  11.745  14.716   4.345  0.1460  0.1038  0.3910
 7814W        W24288   0.552  10.980  11.777  0.0441 -0.3454 -0.3164
 7815W        W24289  12.265  16.781  10.907 -0.0026  0.0227  0.0054
 7816W        W24290  18.177   7.163  12.315 -0.1314 -0.2723  0.0613
 7817W        W24291   8.643   0.557   1.985 -0.3968 -0.0541 -0.2072
 7818W        W24292   3.329   4.842  11.702 -0.1906 -0.2430 -0.3426
 7819W        W24293  10.839  12.517   1.108 -0.1781  0.2024  0.2056
 7820W        W24294   7.699   5.874   3.347  0.2055  0.1852  0.3685
 7821W        W24295   5.265   8.275   0.533 -0.1236  0.2287  0.1395
 7822W        W24296   8.740  18.764   3.741  0.2582  0.1443 -0.0127
 7823W        W24297   4.268  15.274   5.982 -0.0382  0.1219 -0.0302
 7824W        W24298   7.269  13.471   3.561 -0.1431  0.2306  0.0882
 7825W        W24299  11.465   6.473   0.970  0.2149 -0.0545  0.3595
 7826W        W24300  11.397   4.705  13.959  0.0697  0.1042 -0.0429
 7827W        W24301  13.374   5.672  10.413  0.5623  0.2036  0.0927
 7828W        W24302   0.740  10.243  13.627  0.0392 -0.1242 -0.0117
 7829W        W24303  11.821   9.214  11.616  0.1611 -0.1545 -0.1375
 7830W        W24304   6.252   5.319  14.986 -0.3613  0.2011 -0.0362
 7831W        W24305  16.926   4.118   3.300  0.1689 -0.1814 -0.2064
 7832W        W24306   3.953   9.981  10.995 -0.2910 -0.3370 -0.0016
 7833W        W24307  10.492  11.011  13.249  0.0441 -0.0582  0.1481
 7834W        W24308   1.488   0.490   5.431 -0.1936  0.1720  0.2501
 7835W        W24309   6.333   4.041  13.406 -0.0797  0.2897 -0.2282
 7836W        W24310   7.348  12.909  11.135  0.2769  0.2237 -0.2244
 7837W        W24311   9.428  13.376   6.289  0.1016  0.2310  0.1010
 7838W        W24312  16.434   4.361  15.139 -0.1834  0.3147 -0.2328
 7839W        W24313   3.992   5.317   3.751  0.1329 -0.0770 -0.1477
 7840W        W24314  17.950   3.176  14.062 -0.1522 -0.1106  0.1893
 7841W        W24315   1.148  11.337  13.461 -0.0666  0.1296  0.2961
 7842W        W24316   1.380   7.054  13.086  0.0185  0.2360  0.0512
 7843W        W24317   8.179   0.715  10.584 -0.0871 -0.0547 -0.0872
 7844W        W24318  14.358  10.099  14.607  0.1647 -0.0791  0.0784
 7845W        W24319   8.056   9.969   2.587 -0.0881  0.1362 -0.1228
 7846W        W24320   0.980  13.319   4.247 -0.0551  0.3170  0.2381
 7847W        W24321   2.806  16.784  15.401  0.4085  0.0205  0.0819
 7848W        W24322   3.762  10.943  11.349 -0.0335  0.0474 -0.1450
 7849W        W24323   1.608   5.893  11.083  0.0391 -0.3104  0.1584
 7850W        W24324   5.073  18.435  13.453  0.1015 -0.0941 -0.3112
 7851W        W24325  16.641   9.661  13.591  0.2522 -0.1153  0.1174
 7852W        W24326   7.307   7.165  13.347  0.2942  0.0254 -0.3934
 7853W        W24327  12.300   4.297   3.043  0.1973 -0.1151  0.0096
 7854W        W24328  17.424  12.338  11.020 -0.0976 -0.3332  0.0960
 7855W        W24329  15.189  17.985  15.451 -0.1599  0.2080  0.1278
 7856W        W24330   6.352  16.481  10.014  0.1013  0.1623  0.0573
 7857W        W24331   3.417  16.064  13.576  0.0330  0.2126  0.1210
 7858W        W24332  17.077  16.682   9.998  0.2169 -0.3135 -0.0937
 7859W        W24333   9.082   1.460  11.565  0.0417 -0.0140 -0.1083
 7860W        W24334   8.484  16.197  11.552 -0.3153 -0.0638 -0.3224
 7861W        W24335  10.322  17.115   4.019 -0.0408  0.0469 -0.0641
 7862W        W24336  10.160   7.271   2.756 -0.0840  0.0550 -0.0477
 7863W        W24337   3.776   5.613  15.386 -0.1851 -0.0560 -0.4559
 7864W        W24338   9.255   5.982  15.137  0.3855  0.0491 -0.1503
 7865W        W24339  13.103  13.745  11.796 -0.0782 -0.0875 -0.2721
 7866W        W24340  10.203  15.763   0.919 -0.3663 -0.0269 -0.1604
 7867W        W24341  14.635  10.743   1.671  0.0466  0.1201  0.1156
 7868W        W24342   2.068  10.686  14.005 -0.1565  0.1949  0.0941
 7869W        W24343   2.317  14.916   4.358 -0.0823  0.0268  0.0752
 7870W        W24344   9.483   7.471  14.042  0.2397 -0.0148  0.1168
 7871W        W24345   1.129   3.697  14.004  0.0821  0.0323  0.1769
 7872W        W24346  17.047   0.155   1.761  0.0243 -0.2972  0.1126
 7873W        W24347  10.152   4.566  12.064  0.0596 -0.0025 -0.0788
 7874W        W24348   1.462  15.266   1.780 -0.0700  0.1598 -0.2077
 7875W        W24349  11.590  17.259  11.209  0.5269 -0.3206  0.3921
 7876W        W24350  17.103   4.803  11.831  0.0728 -0.2860  0.0587
 7877W        W24351  12.398   2.218  12.811  0.0905  0.1407  0.2976
 7878W        W24352  15.674  16.164   3.922  0.0163  0.2632  0.0159
 7879W        W24353  18.040  16.216   0.391 -0.2697 -0.0871  0.3640
 7880W        W24354   5.741   1.599  10.845  0.0688  0.4033  0.2581
 7881W        W24355   0.831  16.132  13.116 -0.0898 -0.1774 -0.2532
 7882W        W24356  10.018  11.491  10.707 -0.0200  0.0622  0.0519
 7883W        W24357  15.724   6.059  14.119 -0.1362  0.0680  0.3863
 7884W        W24358  12.035  16.253  10.923 -0.0574  0.1895  0.1815
 7885W        W24359   7.418   8.270  13.470  0.1860 -0.0092 -0.0655
 7886W        W24360   9.159   3.362   3.675 -0.3682 -0.0184  0.1490
 7887W        W24361  12.819  15.302   4.995  0.1800 -0.2761 -0.0041
 7888W        W24362  18.714  17.323   2.668 -0.0265  0.0779  0.1956
 7889W        W24363  11.707  18.232   0.858 -0.1502 -0.2473  0.3081
 7890W        W24364   5.378   1.993  13.386 -0.0126 -0.2998 -0.2524
 7891W        W24365  10.188   4.029  10.645 -0.1133 -0.0738  0.0441
 7892W        W24366   2.746  16.619   0.414  0.0747  0.0365 -0.0235
 7893W        W24367   6.586  14.389  14.511 -0.0310  0.1921  0.1529
 7894W        W24368   2.910  13.367  10.893  0.2760 -0.1604 -0.0496
 7895W        W24369   4.677   3.692  11.357 -0.1255  0.1437  0.1533
 7896W        W24370   4.787  17.607  10.688  0.1725 -0.1808 -0.1915
 7897W        W24371   4.857   3.678   5.243 -0.0539 -0.1317 -0.0367
 7898W        W24372  16.076   8.295  11.807 -0.1126  0.0978 -0.1002
 7899W        W24373  14.074   5.315   4.917 -0.1325  0.1090  0.3772
 7900W        W24374   8.544  15.484  11.287  0.2442  0.0975 -0.0149
 7901W        W24375  12.659  13.931   3.678  0.2936 -0.1232  0.3403
 7902W        W24376   8.965  13.565   1.121 -0.2038 -0.0335 -0.2618
 7903W        W24377   9.468   2.547  15.321  0.0694  0.5380 -0.4569
 7904W        W24378   6.231   6.868   4.670  0.3759  0.0553  0.1198
 7905W        W24379  16.209   3.744   3.951 -0.3512  0.2922  0.1843
 7906W        W24380  11.047   0.325   1.342 -0.0913 -0.2578 -0.0900
 7907W        W24381  16.433  10.360  14.754  0.1014 -0.2244 -0.1323
 7908W        W24382  10.507  17.249   4.571 -0.3007 -0.0720 -0.0741
 7909W        W24383  15.222   3.799  14.759 -0.1722 -0.1736 -0.0293
 7910W        W24384  15.423   2.353  14.616 -0.1905 -0.2155  0.1823
 7911W        W24385   6.867  10.648  13.682  0.0760  0.1386  0.0146
 7912W        W24386   5.051   5.692   1.252 -0.1247  0.1836  0.1832
 7913W        W24387   0.828  10.928   0.927  0.1738  0.0054  0.3776
 7914W        W24388   4.365   4.044  12.263  0.1271  0.0108  0.1140
 7915W        W24389   4.572   3.776  10.859  0.0541 -0.2464 -0.3061
 7916W        W24390  10.210  17.706  14.985 -0.1075 -0.0800 -0.0376
 7917W        W24391   2.718  11.360  13.638 -0.3398 -0.2293  0.1116
 7918W        W24392   6.478  17.161  10.883  0.0350  0.0641  0.0979
 7919W        W24393   3.020  14.015  12.061  0.0723  0.1150  0.1542
 7920W        W24394  16.108  11.950   4.542  0.2031 -0.1115 -0.1313
 7921W        W24395   1.241  10.728   0.855 -0.1064 -0.0650 -0.1796
 7922W        W24396   5.189  18.238   0.194 -0.0454 -0.2630 -0.3887
 7923W        W24397  18.303   4.027   0.059  0.0162  0.1334 -0.1269
 7924W        W24398   4.125  14.245   1.895  0.1589 -0.0329  0.2042
 7925W        W24399  18.675  11.677  12.725 -0.0453  0.1051  0.3455
 7926W        W24400   6.563  16.499   0.778 -0.0555  0.0291  0.1034
 7927W        W24401   3.234   8.078  10.547  0.0231 -0.1796 -0.0321
 7928W        W24402   4.208   1.627   4.206  0.1714  0.0847  0.0444
 7929W        W24403   9.964   6.540   4.981 -0.0517 -0.0063  0.0853
 7930W        W24404   3.336  17.220   3.562  0.0078 -0.2471  0.1758
 7931W        W24405  12.070   0.926   1.302  0.0392  0.0673  0.4576
 7932W        W24406  15.489   7.289  13.957 -0.1835 -0.2854  0.1049
 7933W        W24407   4.730   6.021   2.515  0.1057  0.0689  0.0504
 7934W        W24408  12.708  13.495  11.448  0.0937  0.0836 -0.1540
 7935W        W24409  13.509  18.765   1.022  0.2860  0.1420 -0.0459
 7936W        W24410  10.765   2.741   1.256 -0.0599  0.1292  0.1466
 7937W        W24411  10.411  12.334  15.178 -0.1200  0.0550 -0.0881
 7938W        W24412  14.511   3.505  13.383  0.3069  0.1305  0.3398
 7939W        W24413   0.141  17.501   1.504  0.1329 -0.1306  0.0613
 7940W        W24414   9.945  12.360  15.433 -0.0423 -0.1494 -0.0019
 7941W        W24415  15.560   0.900   4.955 -0.0900  0.3137 -0.0993
 7942W        W24416   8.521   9.960   1.925  0.1042  0.1793 -0.0548
 7943W        W24417   2.274   8.888  15.209 -0.0952  0.1094 -0.0231
 7944W        W24418   1.361   8.386   3.195  0.1961  0.0503  0.1516
 7945W        W24419  12.833  14.798   0.831 -0.0906  0.0730  0.2036
 7946W        W24420  15.081   5.664  12.072 -0.0380 -0.2903 -0.2769
 7947W        W24421  16.912   4.509   0.377  0.1527 -0.3236 -0.0974
 7948W        W24422   9.086  15.306   0.430  0.0370 -0.2499 -0.0266
 7949W        W24423   1.331   1.153   9.791  0.1947  0.0251  0.0956
 7950W        W24424   8.210   3.850   4.137 -0.0139  0.3121 -0.0639
 7951W        W24425   8.286   6.311   3.609 -0.0295 -0.1126  0.0938
 7952W        W24426  13.337  18.561   1.839  0.0197  0.3611 -0.0919
 7953W        W24427   0.113   0.470   4.429 -0.0153  0.4202  0.0766
 7954W        W24428   7.588   1.685  13.706 -0.0646  0.0659  0.1187
 7955W        W24429  12.464   8.790   3.310 -0.2474  0.0800 -0.0026
 7956W        W24430   4.475   0.284  13.784  0.1894 -0.0208  0.0695
 7957W        W24431   9.656   5.740  12.970 -0.1876 -0.0245 -0.0675
 7958W        W24432  16.656  18.687  12.552 -0.0809 -0.0599  0.1331
 7959W        W24433   4.861  14.386  14.140  0.0688 -0.0958 -0.0835
 7960W        W24434   5.981  17.064   1.242  0.0809  0.0442 -0.1899
 7961W        W24435   6.965   8.534  11.696 -0.0649 -0.3278  0.1500
 7962W        W24436   2.130  11.014  11.534  0.6067 -0.1789  0.1268
 7963W        W24437  13.432  14.700   5.115 -0.0775 -0.0542 -0.3181
 7964W        W24438   1.372  11.232  14.372  0.0632 -0.1652 -0.0809
 7965W        W24439  10.245  11.183   4.697  0.0630  0.0763 -0.2973
 7966W        W24440   4.288  18.017   3.911  0.2599 -0.1305  0.0051
 7967W        W24441   1.066  15.700   3.783  0.0424  0.0766 -0.0362
 7968W        W24442   7.698   9.628   1.395 -0.0717 -0.1647 -0.0987
 7969W        W24443   7.893   9.608   4.324 -0.0703  0.1069 -0.1659
 7970W        W24444   1.927  13.966  15.314  0.3735 -0.3000 -0.1492
 7971W        W24445   9.569  17.579   1.635 -0.0324  0.0554  0.0933
 7972W        W24446  10.701   5.417   0.316 -0.0622 -0.0413  0.3583
 7973W        W24447   6.559   8.781  13.847 -0.0857 -0.3274 -0.0498
 7974W        W24448   6.432   6.538   3.676 -0.0282 -0.2578 -0.2013
 7975W        W24449   9.144   5.720  14.663  0.0517  0.1717  0.0411
 7976W        W24450  18.257   8.213   3.219  0.0059 -0.0730  0.0723
 7977W        W24451  14.590  16.695   3.075  0.0014  0.1726  0.0614
 7978W        W24452   6.184  15.818   3.971 -0.1060  0.1743  0.4454
 7979W        W24453   7.055   6.758  11.973 -0.1841  0.1568  0.0192
 7980W        W24454  18.678   7.855  12.800 -0.0205  0.1911  0.0400
 7981W        W24455   8.842  12.377  13.438 -0.0591  0.2519  0.2328
 7982W        W24456   2.676   9.333  11.111 -0.0785 -0.2543 -0.1396
 7983W        W24457   7.183   6.687  15.449  0.1003  0.0495  0.1623
 7984W        W24458   1.952  16.097   4.738  0.0794  0.1443  0.2225
 7985W        W24459  13.714   7.287  14.069 -0.0614 -0.1068  0.1755
 7986W        W24460  17.895  17.011  12.157  0.1239  0.1685 -0.1149
 7987W        W24461  13.476  11.351   2.922 -0.0112  0.0900  0.0243
 7988W        W24462  13.022   8.550  13.989  0.2162  0.0319  0.2634
 7989W        W24463  15.259   1.552   1.672  0.1161 -0.3442  0.1979
 7990W        W24464   7.176  15.219  13.505 -0.0997  0.1442 -0.0263
 7991W        W24465  18.383  15.262  11.502 -0.3827 -0.1208  0.1834
 7992W        W24466   1.516  12.909   1.742 -0.2148  0.0384  0.3246
 7993W        W24467   4.715   3.110  11.446 -0.4205 -0.1464 -0.0280
 7994W        W24468  10.994  14.008   3.521  0.3118  0.0095 -0.1763
 7995W        W24469   2.950   1.183   0.837  0.0657 -0.1081  0.2246
 7996W        W24470  13.936   8.359   5.879  0.3232  0.1966  0.1966
 7997W        W24471  18.597  17.764  14.428  0.4093  0.1398 -0.1003
 7998W        W24472   9.921  13.532  13.954 -0.0676  0.0073  0.1464
 7999W        W24473   3.610   3.751   2.885  0.0276 -0.3716  0.3525
 8000W        W24474   4.500   7.477   0.373  0.4332  0.0702 -0.1557
 8001W        W24475  12.741   4.469  13.479  0.1658  0.0858 -0.2141
 8002W        W24476  17.617   4.668   2.608  0.1694 -0.4936  0.2601
 8003W        W24477   1.689  13.046   2.922 -0.1097 -0.3611 -0.0339
 8004W        W24478   3.446   2.962  11.576  0.0634 -0.2298  0.2698
 8005W        W24479   7.793   6.292  14.628  0.2138  0.0208  0.2459
 8006W        W24480  12.267  18.125  12.354 -0.2317  0.3616 -0.0935
 8007W        W24481   4.902   6.627  14.536 -0.0135 -0.2595  0.0899
 8008W        W24482  14.980  13.753  11.762  0.0618  0.2339 -0.1920
 8009W        W24483  10.896  11.202  10.413  0.0757 -0.2363 -0.1006
 8010W        W24484   1.564  14.188  11.640 -0.1388 -0.0092 -0.5350
 8011W        W24485   3.709  11.711  10.725  0.0373  0.1991 -0.1483
 8012W        W24486  16.505  13.989   2.047 -0.2633  0.2085  0.0141
 8013W        W24487  18.237   7.730   1.409  0.2294 -0.0305  0.3957
 8014W        W24488   9.922   1.802   5.398  0.0029 -0.0887 -0.0918
 8015W        W24489   1.820   5.802   1.692 -0.1633 -0.0709  0.0391
 8016W        W24490  15.464  11.971  12.752  0.2078  0.2335  0.6761
 8017W        W24491  11.723   2.898   4.420  0.0342  0.0359 -0.1423
 8018W        W24492  15.956  13.277  14.307  0.1514  0.0318 -0.1072
 8019W        W24493   8.089  13.885  12.289  0.1631 -0.1755  0.3095
 8020W        W24494   1.031  10.695   4.648  0.1037 -0.2775 -0.0909
 8021W        W24495  11.511   7.348  11.485 -0.1444  0.2685 -0.3368
 8022W        W24496   0.770   3.504   1.908 -0.1009  0.0527  0.1551
 8023W        W24497   6.764   4.671   1.408 -0.0282 -0.4333 -0.0669
 8024W        W24498   7.169  14.428   0.325  0.0712  0.2320 -0.0571
 8025W        W24499   5.018   4.371  13.862  0.1478  0.3195  0.0882
 8026W        W24500   5.042  14.911  11.957 -0.0076  0.1737  0.0335
 8027W        W24501  10.753   3.883   0.466  0.3213 -0.0228 -0.2524
 8028W        W24502  12.975   0.275   6.537  0.2956  0.0122  0.0741
 8029W        W24503   8.242  17.553   3.636  0.1001  0.1609 -0.0765
 8030W        W24504  14.979  15.339   1.878 -0.1024  0.1247 -0.2026
 8031W        W24505   8.731  17.119   9.944 -0.0946  0.0667 -0.0078
 8032W        W24506   8.681  11.017   0.500  0.0205  0.1448  0.0079
 8033W        W24507   8.182   5.347   0.494  0.0040  0.0371 -0.0654
 8034W        W24508  12.816  13.136  13.139 -0.0471  0.0988 -0.0545
 8035W        W24509   2.725  11.955  15.274  0.4094 -0.1831  0.0162
 8036W        W24510  16.967  18.723  14.959 -0.1801  0.2530 -0.3251
 8037W        W24511  13.500   3.287   1.051 -0.0825 -0.0154 -0.1490
 8038W        W24512   2.822  17.216   4.446  0.1679 -0.3108 -0.2410
 8039W        W24513  17.506  17.982   0.242 -0.1955 -0.0381 -0.0956
 8040W        W24514   5.805  12.500  10.672  0.1511 -0.0064  0.0977
 8041W        W24515  17.671   0.161   5.032  0.1175  0.4404 -0.1255
 8042W        W24516   2.951   5.653   2.629  0.0364 -0.0945 -0.0011
 8043W        W24517  12.475  16.319  11.888  0.4022 -0.0741  0.4606
 8044W        W24518  17.169  15.771   2.444  0.0911  0.2700 -0.0830
 8045W        W24519  14.816   8.400   0.276 -0.0250  0.0860 -0.0836
 8046W        W24520   7.210   4.125   1.887 -0.0041 -0.1465 -0.0752
 8047W        W24521  10.114   2.126  14.062 -0.1662  0.0274 -0.0079
 8048W        W24522  11.937  10.065  15.544 -0.1456 -0.1087 -0.3460
 8049W        W24523   7.382  10.031   3.964 -0.2576 -0.2722 -0.0733
 8050W        W24524  17.833  13.039   5.519  0.0776 -0.1465 -0.1309
 8051W        W24525  18.350   3.221  12.454 -0.0925  0.0393 -0.1579
 8052W        W24526   5.583   7.205  14.269 -0.1556 -0.1548  0.0011
 8053W        W24527   6.400  18.462   2.376  0.1353  0.0732 -0.0519
 8054W        W24528   0.905   2.996  11.331 -0.0380 -0.0206  0.1105
 8055W        W24529   6.927   8.802  12.674  0.0251  0.3751 -0.0975
 8056W        W24530  16.538  17.176   3.442  0.1635 -0.0529  0.2709
 8057W        W24531   8.503   7.444  14.082  0.1597 -0.1664 -0.1679
 8058W        W24532   8.409   8.529  13.760  0.2648 -0.2931 -0.3627
 8059W        W24533   8.477  11.786   0.767  0.1166  0.3492  0.0326
 8060W        W24534   3.831  14.705   5.789  0.2315 -0.0166  0.2334
 8061W        W24535   4.267  16.476   2.775 -0.2075 -0.0630  0.3548
 8062W        W24536   1.177   4.993   4.128  0.2147  0.0290  0.2164
 8063W        W24537  15.695   2.613  14.152  0.1286 -0.0249  0.0816
 8064W        W24538  17.018   8.732  11.840 -0.1018 -0.0271  0.1661
 8065W        W24539   9.851  14.266  14.669 -0.0640  0.0004 -0.0180
 8066W        W24540   9.930  16.174   5.150 -0.0036  0.1604  0.3038
 8067W        W24541  17.258   2.743  11.700  0.1398  0.3135  0.0253
 8068W        W24542  17.871   3.265  13.297 -0.2097  0.1323  0.4009
 8069W        W24543   3.464  16.520  12.246  0.2040  0.2440  0.4871
 8070W        W24544  16.953   4.033   4.673  0.1157  0.0791 -0.0110
 8071W        W24545   2.205   1.925  10.749 -0.0632  0.0427  0.3242
 8072W        W24546  14.326  12.077  13.062  0.0046  0.0477 -0.2504
 8073W        W24547  17.745   3.231   1.456 -0.0100  0.0666  0.0393
 8074W        W24548  10.677  10.237  12.532  0.1503  0.2670 -0.0498
 8075W        W24549   1.053  17.481   2.686  0.0341  0.5109 -0.1457
 8076W        W24550   3.853  17.425  10.683 -0.0401  0.1289 -0.0888
 8077W        W24551  18.777  15.005  13.212 -0.0828 -0.0066  0.0144
 8078W        W24552  13.471   0.924  14.915  0.1859  0.2373 -0.3269
 8079W        W24553  16.228  16.251  15.088 -0.0856  0.0242 -0.0040
 8080W        W24554  12.044   5.052  12.792  0.1223  0.4222 -0.1079
 8081W        W24555   5.099   9.680   2.653  0.3148  0.0979  0.0890
 8082W        W24556   6.040   1.762   2.729 -0.0408  0.4090 -0.2891
 8083W        W24557  11.938  14.424  15.010 -0.1801  0.1291 -0.0828
 8084W        W24558  18.131   3.588  15.417  0.2735  0.3041  0.2915
 8085W        W24559  18.112  15.155  11.084  0.1912 -0.0949  0.1616
 8086W        W24560   3.302  10.959  11.015 -0.3959  0.1032  0.1042
 8087W        W24561   6.785  11.697   4.993  0.4003  0.0103 -0.1242
 8088W        W24562  13.331   9.648   3.000 -0.2678  0.2551  0.0490
 8089W        W24563  10.386   0.982   5.472  0.1346  0.0626 -0.2775
 8090W        W24564   4.753  12.179  14.119  0.2963  0.0607  0.0728
 8091W        W24565   9.534  10.798  15.231  0.3707 -0.0282 -0.0243
 8092W        W24566  16.113   1.296  14.573  0.0941  0.1351 -0.1616
 8093W        W24567  15.773  13.168  13.059 -0.1539  0.0155 -0.3304
 8094W        W24568  15.984  15.739  14.964 -0.1378 -0.2845  0.2177
 8095W        W24569   7.897   5.752  12.562  0.1184  0.0125  0.0164
 8096W        W24570   2.037   8.658  12.656 -0.0740 -0.0668  0.1639
 8097W        W24571   7.785   9.891  11.187 -0.0781  0.1572 -0.1934
 8098W        W24572   1.252   7.825  11.431 -0.0941  0.0841 -0.4485
 8099W        W24573   3.869  10.045  14.040 -0.3038  0.2719  0.2154
 8100W        W24574  14.721   8.749  11.912  0.2261 -0.2138  0.1093
 8101W        W24575  10.838  16.107  15.192 -0.1339  0.0947  0.1437
 8102W        W24576  15.676  10.622   5.511 -0.0746  0.0848  0.0583
 8103W        W24577  16.327   1.448   2.661  0.1360  0.2029 -0.2241
 8104W        W24578   9.612  13.448   5.740 -0.0312 -0.1444 -0.1242
 8105W        W24579  11.395   0.150   2.086 -0.0646  0.0110 -0.0585
 8106W        W24580  16.257   6.139  14.086  0.1265 -0.0789  0.1847
 8107W        W24581  10.689  15.758   2.678 -0.0966  0.1576 -0.1547
 8108W        W24582  15.098  14.457   4.978 -0.0536  0.1908 -0.0354
 8109W        W24583  11.991   8.251   0.581  0.0488 -0.1349 -0.1288
 8110W        W24584   6.552  18.418   1.233 -0.0270 -0.2563  0.0799
 8111W        W24585  15.952   6.503   3.982 -0.2947 -0.2029 -0.0061
 8112W        W24586   6.456   3.791  15.338  0.1791 -0.1510  0.0712
 8113W        W24587  16.965  12.646   5.264 -0.1667  0.1418  0.0686
 8114W        W24588  16.034   0.104  10.797  0.1365  0.0635  0.0181
 8115W        W24589  12.949   9.133   1.643 -0.2448 -0.4146  0.1051
 8116W        W24590   3.673  14.941  11.470 -0.0864 -0.3303 -0.1147
 8117W        W24591   2.704   3.681  12.237  0.1242  0.2713 -0.0846
 8118W        W24592  12.510   7.293   3.095 -0.1144  0.0790 -0.1901
 8119W        W24593  12.606   8.172   6.150  0.1010  0.0153  0.0805
 8120W        W24594  14.440   6.777  13.895  0.1677 -0.1043 -0.4849
 8121W        W24595   3.308  13.511   3.343 -0.0330 -0.1573 -0.2930
 8122W        W24596   0.637   4.952   0.563 -0.1704  0.1604 -0.1446
 8123W        W24597  16.473  17.614  14.552 -0.0205 -0.0392  0.3291
 8124W        W24598   2.241   3.268  15.454 -0.0861  0.0283 -0.0144
 8125W        W24599   1.783  10.255   2.905  0.1614 -0.0962 -0.2682
 8126W        W24600   9.839   0.640  13.960  0.0027  0.2626  0.1392
 8127W        W24601   0.849   6.483  14.963  0.0290  0.1741  0.0025
 8128W        W24602   3.065  18.755   0.447  0.4013 -0.2386 -0.1508
 8129W        W24603   8.754  11.583  12.435  0.0221  0.1106  0.3067
 8130W        W24604  12.245   4.094   0.179 -0.0045 -0.1920 -0.1232
 8131W        W24605   3.897   6.219   4.541  0.4163 -0.1102  0.0303
 8132W        W24606   0.571   0.205  12.468  0.1309  0.3381 -0.0033
 8133W        W24607  18.669   1.959  15.395  0.0941 -0.0720 -0.3154
 8134W        W24608   5.091  18.271  11.361  0.1170 -0.2543  0.0051
 8135W        W24609   4.631  14.187   0.473  0.0375  0.1789 -0.0003
 8136W        W24610  13.577   2.917   4.631 -0.0037  0.2824 -0.1791
 8137W        W24611  16.286   2.954  15.565 -0.2801 -0.0818  0.2448
 8138W        W24612  13.916   2.458  11.909 -0.1195  0.2291 -0.0038
 8139W        W24613   3.911  11.881   4.113 -0.2082  0.2529  0.0620
 8140W        W24614  18.630  15.331   1.393  0.0156  0.1108 -0.2855
 8141W        W24615   9.049  16.735   2.431 -0.2205 -0.1003 -0.4125
 8142W        W24616  17.390   0.457  12.321  0.3611  0.0592 -0.0980
 8143W        W24617   6.926  15.420   1.369  0.1951  0.2041 -0.2783
 8144W        W24618   7.334   9.306   3.635 -0.0858  0.1060  0.0424
 8145W        W24619   6.146   9.725  12.787  0.1837  0.4549  0.1604
 8146W        W24620   4.411  17.026   1.195 -0.0243  0.0496 -0.0096
 8147W        W24621   6.185   0.839  13.893 -0.2617 -0.0210  0.1145
 8148W        W24622  10.001   5.314   5.221 -0.2407  0.0815  0.0193
 8149W        W24623  15.234  18.292  15.037  0.2167  0.1945 -0.0636
 8150W        W24624  18.106  11.062   0.508  0.3491 -0.0746 -0.0344
 8151W        W24625   6.265   4.398  10.973 -0.2315 -0.0621 -0.0577
 8152W        W24626   9.258   5.038  13.437  0.0130  0.2490 -0.0341
 8153W        W24627   6.626  11.760  11.472  0.1008  0.0225  0.2575
 8154W        W24628   1.804   9.895  11.798 -0.3024  0.1629 -0.3469
 8155W        W24629  16.762   0.667   1.362  0.0646  0.0112 -0.0476
 8156W        W24630  17.891   8.847  15.360 -0.0491 -0.2202 -0.1904
 8157W        W24631   5.790   1.516  15.386 -0.2740  0.4214 -0.1651
 8158W        W24632  11.296  18.632   0.090 -0.1340  0.3200  0.1987
 8159W        W24633  17.460   6.351  14.544  0.0166 -0.0925  0.1791
 8160W        W24634   5.520   9.276  10.490 -0.1689 -0.0457  0.0204
 8161W        W24635  11.062   0.654   4.380  0.1612  0.3368  0.1354
 8162W        W24636   0.488  16.332   2.433  0.0223  0.1322 -0.0047
 8163W        W24637  12.803   5.860  11.699  0.1104 -0.2141  0.0390
 8164W        W24638  12.572   3.112  11.532  0.0708 -0.0841  0.0529
 8165W        W24639   4.361  17.841  10.840  0.2489  0.2207 -0.1018
 8166W        W24640   7.328  10.049   1.785 -0.1641  0.1526 -0.1879
 8167W        W24641  11.362  14.026  14.437 -0.0419  0.1482  0.2669
 8168W        W24642  13.521   7.937  14.505 -0.1301 -0.1580 -0.0405
 8169W        W24643  14.971   3.219   0.213  0.1288  0.0924 -0.0227
 8170W        W24644   8.076   4.461  14.461  0.1641  0.3576 -0.1371
 8171W        W24645   2.589   3.033   2.553 -0.1782 -0.3860  0.1845
 8172W        W24646   2.341   1.640  12.098 -0.0850 -0.2544 -0.3646
 8173W        W24647   6.896   3.766   2.083 -0.0965 -0.1106 -0.2364
 8174W        W24648   9.824  12.489  14.984 -0.2085  0.0422  0.0110
 8175W        W24649  12.281  13.502   4.063  0.1022 -0.0217 -0.0798
 8176W        W24650   0.141   1.340   4.234  0.2495 -0.2287  0.0665
 8177W        W24651  10.534   7.793   1.955 -0.2063  0.2331 -0.0148
 8178W        W24652   0.693   7.314   3.438  0.0593 -0.0726 -0.1125
 8179W        W24653   5.345  17.117   1.239 -0.2002 -0.0869 -0.1356
 8180W        W24654   0.480  13.601   1.675  0.1137  0.3264  0.0965
 8181W        W24655  16.897  13.406   3.361 -0.3783  0.2254 -0.0447
 8182W        W24656   9.752  10.161   0.700  0.2644 -0.0793 -0.3632
 8183W        W24657  10.925  11.642  11.998 -0.0504  0.1573  0.2230
 8184W        W24658  11.268   5.888  13.716 -0.3148 -0.2594  0.1134
 8185W        W24659  10.512   5.306   1.920 -0.3135 -0.5246  0.0467
 8186W        W24660  16.421   0.030   5.203  0.1654 -0.0971 -0.1590
 8187W        W24661  16.454  12.797  14.925 -0.2483  0.0528  0.1965
 8188W        W24662   7.630  18.066   4.147  0.0857 -0.3377  0.1966
 8189W        W24663  13.056   9.434   0.304 -0.1557  0.0102 -0.1938
 8190W        W24664   2.525  18.736  13.961  0.0051  0.1709  0.1546
 8191W        W24665   0.058   2.670  15.170 -0.0064 -0.0005 -0.1507
 8192W        W24666   9.440   3.452  13.842  0.2321 -0.0624  0.0178
 8193W        W24667   5.198  16.057  12.637 -0.0755  0.0213  0.1393
 8194W        W24668   2.521  10.663  10.792 -0.0266 -0.2157  0.0444
 8195W        W24669   3.306   8.851  10.642  0.4010 -0.3575 -0.1987
 8196W        W24670   9.678  13.081  12.158 -0.1432 -0.1458  0.0230
 8197W        W24671  13.995  10.410   0.379 -0.0986  0.1023  0.1241
 8198W        W24672  18.764   2.854   4.081  0.1629  0.1262  0.1239
 8199W        W24673   8.118   0.775   1.941  0.2687  0.1723  0.3913
 8200W        W24674   9.432   1.987  12.976 -0.0083  0.0857  0.1412
 8201W        W24675   9.481  12.385  14.622  0.3109 -0.1792 -0.2021
 8202W        W24676   3.994   0.255  10.803  0.1125 -0.1049  0.1750
 8203W        W24677  18.384  14.107   3.436 -0.4455 -0.0018 -0.2583
 8204W        W24678   7.037  16.437   3.663  0.0926 -0.0808 -0.0130
 8205W        W24679   5.208   5.268  15.440 -0.1436  0.0419 -0.0914
 8206W        W24680  13.906  10.101  13.965 -0.1142  0.1244 -0.0251
 8207W        W24681  11.862   1.236   5.375  0.0284  0.3725  0.0116
 8208W        W24682  11.379   4.614  13.005 -0.1499  0.1211 -0.2586
 8209W        W24683   3.906  10.315   0.619 -0.0705  0.1119  0.2833
 8210W        W24684   8.212  16.509  14.252  0.0744  0.0136 -0.1612
 8211W        W24685  13.668  14.136   1.785 -0.2534 -0.0122 -0.1715
 8212W        W24686   4.859   4.539   1.370 -0.2052 -0.0360 -0.2203
 8213W        W24687   9.463   8.754  13.648 -0.2039 -0.3344 -0.1627
 8214W        W24688   5.625   6.786  10.157 -0.1121  0.5442  0.0190
 8215W        W24689  10.227   5.450  11.821 -0.2036  0.1125 -0.0756
 8216W        W24690   7.893  18.054  12.770  0.1928  0.1089 -0.0287
 8217W        W24691  17.852  16.459  11.289 -0.0750 -0.0979 -0.2075
 8218W        W24692  10.127   8.732   5.269  0.1782 -0.2747  0.3585
 8219W        W24693   8.151   1.388   1.975  0.1487 -0.0312  0.1994
 8220W        W24694  14.571  15.120   3.954 -0.0039 -0.1432 -0.4702
 8221W        W24695   1.161  10.244   0.644  0.1428 -0.2735  0.2526
 8222W        W24696   5.819   3.441  12.348  0.1616  0.0657  0.4088
 8223W        W24697   1.801   8.766   5.627  0.0871 -0.2467 -0.3309
 8224W        W24698   0.532  10.044   3.923  0.2690  0.1832 -0.1020
 8225W        W24699  12.156  15.633   5.184 -0.0774  0.2472  0.0670
 8226W        W24700   5.871  15.882  14.654  0.0810  0.0900  0.0239
 8227W        W24701   0.597   2.894   3.610  0.3334  0.2692 -0.1533
 8228W        W24702   3.973   3.933   5.178  0.3913  0.1788 -0.0669
 8229W        W24703   8.787   8.453  14.083  0.4668 -0.1314  0.2908
 8230W        W24704   2.593   7.300  15.025  0.1762  0.2071  0.0392
 8231W        W24705  14.041  15.771  15.230  0.0030  0.2249 -0.0731
 8232W        W24706   9.651  16.441  13.979  0.0022 -0.1093  0.3377
 8233W        W24707  15.373  11.219   4.506  0.1577 -0.1602 -0.2377
 8234W        W24708  10.124  13.526   4.094  0.0961 -0.1790 -0.1743
 8235W        W24709  11.704   3.086  11.136  0.0673 -0.0853  0.1751
 8236W        W24710  13.169  11.673   3.222 -0.0113  0.1153 -0.1226
 8237W        W24711  15.335   1.900   3.090 -0.2424  0.1424 -0.0009
 8238W        W24712   2.954   7.073   4.941  0.1232 -0.1559 -0.1616
 8239W        W24713   0.366   3.624   1.119  0.2627 -0.4717  0.2596
 8240W        W24714   6.000   6.406   4.619  0.3496 -0.3019 -0.0941
 8241W        W24715   0.672   4.184  13.026  0.1058  0.1515 -0.0132
 8242W        W24716   8.965   8.241  10.452  0.0928  0.1260 -0.3281
 8243W        W24717  18.719  15.777  14.692  0.1507  0.4109  0.2529
 8244W        W24718  14.499  13.359   1.464 -0.2738 -0.3765  0.2723
 8245W        W24719   3.044   9.811  14.927  0.1066 -0.2162  0.2025
 8246W        W24720  13.219   5.495  11.218 -0.2758 -0.1359 -0.0975
 8247W        W24721   1.593   3.015   3.367  0.2447  0.3510  0.0288
 8248W        W24722   9.395   1.008  13.100  0.1468 -0.0380 -0.0959
 8249W        W24723  18.349  18.501  13.788  0.2209 -0.2394 -0.0325
 8250W        W24724   5.385   2.460   3.351 -0.1262  0.2081  0.0163
 8251W        W24725   7.364  16.915   3.625  0.3908  0.1616  0.0249
 8252W        W24726   8.498  15.311  13.952  0.0715  0.0312 -0.0623
 8253W        W24727  13.817   7.036   2.253  0.0666 -0.0244 -0.2747
 8254W        W24728   1.416   6.054   2.810  0.1487 -0.0397 -0.0610
 8255W        W24729   1.839   0.927  11.725 -0.2396  0.0984 -0.0357
 8256W        W24730  13.565  15.768  13.077 -0.0334  0.4881 -0.1331
 8257W        W24731   4.533   6.469   3.348 -0.4182  0.1904  0.2011
 8258W        W24732   0.861  18.740  15.361 -0.0968 -0.3844  0.1167
 8259W        W24733   4.334   8.450   2.788 -0.1809  0.1244  0.2458
 8260W        W24734  17.462   0.271  14.913 -0.0522 -0.2610 -0.1778
 8261W        W24735  11.129  15.834   4.961 -0.2436 -0.2377  0.3837
 8262W        W24736   4.923  17.537   2.444  0.1189 -0.1540 -0.3423
 8263W        W24737  17.316   3.776  15.508  0.0227 -0.0259 -0.1373
 8264W        W24738   4.607   2.166  11.982  0.0665  0.1714  0.2420
 8265W        W24739  12.869   4.316  11.051 -0.2632  0.0026 -0.0551
 8266W        W24740   2.830  16.596  13.761  0.0457 -0.0790 -0.2421
 8267W        W24741  17.974   9.250   4.252 -0.4735  0.1793  0.2760
 8268W        W24742  14.624  13.705  13.102 -0.2304 -0.1757  0.2928
 8269W        W24743   6.458  15.498   5.038 -0.0653  0.2912 -0.0900
 8270W        W24744   8.970  10.505  10.753 -0.0804 -0.0734  0.3972
 8271W        W24745   6.852   2.361   3.273  0.1228  0.0594 -0.1881
 8272W        W24746  11.714  14.227   1.666  0.1626 -0.0435 -0.0376
 8273W        W24747  11.945  16.600   0.162 -0.2028  0.1029 -0.0472
 8274W        W24748  18.688  12.614  11.393 -0.3722 -0.1766 -0.1057
 8275W        W24749  16.015  11.853  12.108  0.0838  0.3164  0.0254
 8276W        W24750  18.026   1.663   3.812 -0.2729 -0.0668  0.2815
 8277W        W24751  10.450  15.502  14.657  0.0547  0.0275 -0.1977
 8278W        W24752  15.100   6.400   4.534 -0.0343  0.0451 -0.0156
 8279W        W24753   0.125   5.125  12.379  0.0403  0.0179  0.3529
 8280W        W24754  15.164   5.619   1.418 -0.0775 -0.1612 -0.1848
 8281W        W24755   8.276   2.122   0.526  0.0847  0.2698  0.2099
 8282W        W24756   7.363   9.256   2.154 -0.1730  0.0716 -0.0939
 8283W        W24757   4.210   2.594  14.527 -0.1770  0.3647 -0.0311
 8284W        W24758   2.948   4.774   0.893  0.1186 -0.0551 -0.1054
 8285W        W24759  10.896   4.713   4.577 -0.3285  0.1699  0.0215
 8286W        W24760   6.371   7.312   3.023  0.0590 -0.0495  0.0819
 8287W        W24761   0.369  15.211  11.189  0.0647 -0.0628 -0.1238
 8288W        W24762   4.251   3.810   4.455  0.0865  0.1260  0.0533
 8289W        W24763   3.730  18.564   3.594 -0.0563  0.2388  0.0382
 8290W        W24764  17.179   3.260   1.558  0.4783  0.0841  0.0724
 8291W        W24765   3.982  10.877  15.373  0.1542  0.0111 -0.0052
 8292W        W24766   2.894   0.279  14.149  0.1497  0.0890 -0.1326
 8293W        W24767  15.183   2.913  12.676 -0.2342 -0.1514  0.1938
 8294W        W24768   4.606   9.462  13.024 -0.1042 -0.1369  0.2870
 8295W        W24769  18.685  12.035  11.267  0.0880  0.1632  0.0205
 8296W        W24770  15.550  18.405  12.084 -0.0120  0.1735  0.0705
 8297W        W24771  12.337  14.763   1.178  0.1767  0.1020  0.0150
 8298W        W24772   8.054   5.298  14.023 -0.2159  0.4013 -0.2845
 8299W        W24773   1.871  17.176  15.525 -0.1158  0.0914  0.0334
 8300W        W24774   0.195   1.328  15.400  0.2842 -0.0176 -0.1653
 8301W        W24775  13.881   1.112   4.597  0.0117 -0.0647  0.3396
 8302W        W24776   0.987   8.497   4.883  0.0478 -0.0333  0.1619
 8303W        W24777  11.385  16.763  15.196  0.2680 -0.1631  0.1147
 8304W        W24778   9.517   6.670  13.602 -0.1008  0.0950 -0.1013
 8305W        W24779  10.281   5.299   6.182 -0.2284  0.1092 -0.1380
 8306W        W24780  14.065   7.445   3.605  0.2370 -0.0761  0.0979
 8307W        W24781  15.716   2.399  15.001 -0.5745  0.0413  0.2791
 8308W        W24782  13.583  12.891  14.924 -0.1263  0.2072 -0.4045
 8309W        W24783   3.483   3.419  11.438  0.2683 -0.0158 -0.0364
 8310W        W24784  10.157   4.209   3.825 -0.0497 -0.0066  0.3043
 8311W        W24785  18.652   5.608  11.511  0.2688  0.1673 -0.0696
 8312W        W24786  10.562   3.297   4.263 -0.3506 -0.0327  0.0915
 8313W        W24787   9.985  11.379  11.483 -0.0607  0.2528 -0.2109
 8314W        W24788  10.034   4.220   4.429  0.0353  0.1019  0.0607
 8315W        W24789   3.442   5.204   9.998  0.1952 -0.0353 -0.3120
 8316W        W24790   6.646   4.059  12.877 -0.2807 -0.0158 -0.2960
 8317W        W24791   1.250  16.441  10.890 -0.0274  0.0982 -0.0056
 8318W        W24792   7.622   9.867   4.607 -0.0194  0.3169  0.3968
 8319W        W24793   2.477   0.608  13.436  0.0474 -0.0641 -0.0857
 8320W        W24794   5.051   6.183   4.080 -0.1671  0.1432  0.2157
 8321W        W24795   2.665   0.295   5.261  0.1895  0.0920 -0.2348
 8322W        W24796   1.306   9.948  11.686  0.0900  0.0616 -0.1164
 8323W        W24797  14.346  10.581  12.661 -0.1585  0.0460 -0.0724
 8324W        W24798  18.325  15.864  12.302 -0.0195 -0.1352  0.0934
 8325W        W24799   8.276   8.821   4.041  0.0137  0.1137  0.1228
 8326W        W24800  10.220   8.745  15.240 -0.0446 -0.2363 -0.0466
 8327W        W24801  11.549   5.818  12.338  0.1205 -0.2210 -0.0580
 8328W        W24802   3.784  16.207   4.530 -0.3403  0.0369  0.0076
 8329W        W24803  12.208   5.557  14.332  0.1803  0.1790 -0.1420
 8330W        W24804  10.452   6.334  13.942 -0.1268  0.1409  0.1277
 8331W        W24805   9.387  13.115  14.557  0.2631 -0.0827  0.2187
 8332W        W24806   2.261  12.092  13.692  0.0098 -0.2196 -0.0948
 8333W        W24807  12.442  16.928   2.465 -0.0671 -0.0448  0.0235
 8334W        W24808  16.499  10.202   5.402 -0.0818  0.0753 -0.1248
 8335W        W24809  15.273  16.969  15.029  0.1492 -0.0703  0.1236
 8336W        W24810  15.296   1.053  14.815 -0.1677 -0.1760  0.0207
 8337W        W24811  11.215   4.192   1.232 -0.0582 -0.0030 -0.0155
 8338W        W24812   8.149   6.765  12.277  0.1334 -0.1511 -0.0363
 8339W        W24813  12.172  17.795  15.076  0.0770  0.1978  0.0402
 8340W        W24814   5.171   0.864  11.096 -0.2418  0.0206 -0.1317
 8341W        W24815   9.808  11.483   5.823 -0.0630  0.0733 -0.0230
 8342W        W24816   7.517   6.294  12.049  0.1476 -0.0981 -0.2965
 8343W        W24817  16.887  16.610   1.751 -0.0845 -0.0657  0.2250
 8344W        W24818   1.075   2.160  11.941  0.1618 -0.0664 -0.2601
 8345W        W24819  15.676   8.464   2.704 -0.0482  0.0979 -0.1063
 8346W        W24820  15.025  13.541  13.368  0.3336 -0.2014  0.1137
 8347W        W24821  10.355  11.487  11.133 -0.0760 -0.1224 -0.0495
 8348W        W24822  12.134  17.000   0.545 -0.2043 -0.1932 -0.3734
 8349W        W24823   8.104   9.351  11.111  0.1355  0.0899  0.1483
 8350W        W24824  11.545   7.061   1.678 -0.2771 -0.1725  0.0439
 8351W        W24825  12.791   4.810   2.762 -0.0962  0.0039 -0.1482
 8352W        W24826  14.756   1.286   4.693 -0.2160 -0.0398  0.0621
 8353W        W24827   5.099   7.802  15.103 -0.1701 -0.0248 -0.2581
 8354W        W24828   7.232   1.413  13.949  0.2031 -0.1516  0.0109
 8355W        W24829  17.148  15.065   1.188 -0.3016  0.0538 -0.0278
 8356W        W24830  14.718   2.819   0.445  0.1759 -0.5204 -0.0718
 8357W        W24831   9.538  13.979  13.278  0.4577  0.0749  0.1048
 8358W        W24832  16.825   7.347   3.319  0.3577  0.1938  0.2372
 8359W        W24833   5.168   4.354  11.950 -0.1346  0.1930 -0.3424
 8360W        W24834   8.666   9.280  12.071  0.1421  0.0292  0.1557
 8361W        W24835  16.764  10.458   5.048 -0.0274 -0.0165 -0.2204
 8362W        W24836  15.256   2.195   2.175 -0.4481  0.1278 -0.1082
 8363W        W24837   5.448   6.414   0.532  0.0244 -0.4095  0.1757
 8364W        W24838  16.074   8.872   3.401 -0.4653  0.0217 -0.0795
 8365W        W24839  12.403  17.741  13.249 -0.1789 -0.2836  0.2741
 8366W        W24840  14.438  15.435  13.949 -0.3193 -0.0037  0.1204
 8367W        W24841   3.071  14.781  12.754 -0.2225 -0.0280 -0.3120
 8368W        W24842  18.779   2.284   1.433 -0.1721  0.0211  0.1513
 8369W        W24843  14.190  18.052   1.928  0.3136 -0.0068 -0.0709
 8370W        W24844  17.693  14.433   5.562 -0.1552  0.0224 -0.1627
 8371W        W24845   3.869   7.139   2.567 -0.0953 -0.0067 -0.1469
 8372W        W24846   8.577  15.279   2.381 -0.0675  0.0571 -0.1884
 8373W        W24847  16.875  18.388   4.608  0.1897 -0.1082  0.0322
 8374W        W24848   0.389   7.003  13.065 -0.0410  0.0617 -0.0480
 8375W        W24849   2.200   8.819   0.153 -0.1943  0.0099 -0.1374
 8376W        W24850  12.334   8.746  12.609 -0.3639 -0.0871  0.3440
 8377W        W24851  14.089  14.221  13.269 -0.0975  0.0965  0.5111
 8378W        W24852   9.107   8.043  13.187 -0.4460  0.0911  0.2939
 8379W        W24853  10.394   8.754   2.263 -0.1467 -0.0985  0.0134
 8380W        W24854  12.176   6.312  13.734 -0.1755  0.2873 -0.1054
 8381W        W24855   0.280  16.015   2.063 -0.1518 -0.1939 -0.0801
 8382W        W24856   4.217   6.857   3.400  0.1552 -0.2016 -0.0914
 8383W        W24857   9.983   6.735   4.063  0.0400  0.0325 -0.1625
 8384W        W24858   7.276  11.789   4.945  0.4141 -0.1290 -0.1307
 8385W        W24859   1.139   2.048   2.721  0.0151 -0.0450 -0.0355
 8386W        W24860  13.988  14.610  14.566  0.2312  0.1357  0.0524
 8387W        W24861   0.741  15.797   1.782  0.1056 -0.0164  0.0289
 8388W        W24862   5.897  16.960  11.028 -0.2503 -0.0896 -0.0814
 8389W        W24863   2.580   5.417   1.730 -0.3772  0.0001  0.0295
 8390W        W24864  11.332   1.032   0.534 -0.1339 -0.2043  0.1645
 8391W        W24865   3.946  11.274   9.960 -0.0795  0.0005 -0.0252
 8392W        W24866  18.326   9.421   4.871 -0.2945  0.2283  0.0184
 8393W        W24867   3.795  13.393   2.376  0.1128  0.0967 -0.1305
 8394W        W24868  11.212  16.689  14.707  0.0372 -0.2584 -0.2783
 8395W        W24869   4.903   0.034  15.212  0.0100 -0.0884  0.1784
 8396W        W24870  18.230  12.342  11.616 -0.1809 -0.0178  0.1598
 8397W        W24871   1.975   2.729   0.763 -0.1036 -0.1515  0.0384
 8398W        W24872   0.434   4.755  11.608 -0.2596  0.1175  0.1505
 8399W        W24873   6.476   8.565  13.347  0.0076 -0.0065 -0.0057
 8400W        W24874  17.765   3.821   2.797 -0.2452 -0.1974  0.1964
 8401W        W24875  18.413   1.110  11.908  0.1801  0.1340 -0.0562
 8402W        W24876  12.069   9.476  13.817  0.0260  0.0241 -0.2641
 8403W        W24877  18.268  14.240   3.010 -0.1426 -0.0375  0.3491
 8404W        W24878   4.369  14.968   3.088  0.1390 -0.1370  0.3098
 8405W        W24879  11.740   1.670   3.004  0.1075 -0.1607 -0.0559
 8406W        W24880  17.947   4.566   1.151  0.0760 -0.2121 -0.1691
 8407W        W24881  11.889  13.164  14.878 -0.0324 -0.0767 -0.1954
 8408W        W24882  11.431  16.544  13.391  0.0850  0.1889 -0.1193
 8409W        W24883   1.782  18.647   4.253 -0.3206 -0.1416 -0.0781
 8410W        W24884   8.335   5.998  12.807  0.0421  0.3715  0.2921
 8411W        W24885  16.190  13.039   0.992  0.0942 -0.0141 -0.1900
 8412W        W24886  14.176  12.561   0.849  0.3030  0.1506  0.3217
 8413W        W24887  12.079  14.628   3.921 -0.0870  0.0245 -0.1103
 8414W        W24888   1.830   3.449   4.093 -0.2836  0.0568  0.1579
 8415W        W24889  11.455  17.171  14.863  0.1106  0.0230  0.1380
 8416W        W24890   4.136  14.194   0.454  0.2998 -0.0011 -0.0319
 8417W        W24891   4.326   2.226   0.002 -0.0822  0.0773 -0.3555
 8418W        W24892  16.823  18.460   3.790 -0.5433 -0.0767 -0.1527
 8419W        W24893  14.653   3.721   1.862 -0.1285  0.2873  0.1087
 8420W        W24894   3.140  15.628   4.532  0.2732 -0.1196 -0.0775
 8421W        W24895  18.451  13.602  12.581  0.1398 -0.3028 -0.2339
 8422W        W24896  17.895  17.917   1.733 -0.0201 -0.2229 -0.0246
 8423W        W24897   3.029   6.266   2.058  0.0613 -0.1025 -0.0459
 8424W        W24898  18.369  10.881   1.441  0.0553 -0.2702  0.0550
 8425W        W24899  18.228  13.920  13.282  0.2133  0.3243 -0.0367
 8426W        W24900  11.350  12.012  12.095  0.1446  0.0919 -0.1982
 8427W        W24901  16.771  16.279  12.239  0.0321 -0.0235 -0.1372
 8428W        W24902   7.669   4.544  10.772  0.0070 -0.1014 -0.1138
 8429W        W24903   1.991   0.917   0.508  0.1053  0.0534  0.0486
 8430W        W24904  10.805  13.983  14.345  0.5346  0.1005  0.0877
 8431W        W24905   0.824   9.239  12.334 -0.2239  0.2914 -0.0337
 8432W        W24906   3.000  17.830  12.990  0.2756 -0.1072 -0.3594
 8433W        W24907  15.748   8.109   3.148 -0.0341 -0.0591 -0.0231
 8434W        W24908  12.759  17.818   1.061 -0.0501 -0.3932 -0.0355
 8435W        W24909   9.522  15.881  12.425  0.1603 -0.1799 -0.0920
 8436W        W24910  10.683  10.532   3.921  0.1241 -0.2887  0.0097
 8437W        W24911  10.343  10.223   0.805 -0.2543  0.0596  0.1394
 8438W        W24912   2.934   0.475  14.606 -0.0429 -0.0317  0.3376
 8439W        W24913  13.305  15.894   1.331  0.0255 -0.0916  0.2758
 8440W        W24914  18.552  18.063   4.308  0.1477  0.0837  0.1723
 8441W        W24915   3.121  12.546  12.016  0.2070 -0.1633  0.0969
 8442W        W24916   6.457   4.997   1.134  0.3345 -0.0129  0.2184
 8443W        W24917  16.677   9.669  14.210 -0.2679 -0.0646 -0.2380
 8444W        W24918   3.506  17.185  13.993 -0.1378  0.1891 -0.2641
 8445W        W24919   8.208   7.346  13.481  0.3204 -0.1118 -0.0379
 8446W        W24920  14.159  13.876  11.216  0.0361  0.3406  0.0196
 8447W        W24921  16.818   6.778  14.926  0.0326  0.1567  0.4434
 8448W        W24922  18.531   5.999  14.207  0.0412 -0.1652  0.0724
 8449W        W24923  10.956  13.092  14.051  0.1512  0.0213  0.0266
 8450W        W24924  16.475   5.032  12.355  0.4456  0.2290 -0.0874
 8451W        W24925   8.583   4.204   0.121 -0.1769 -0.0468 -0.0999
 8452W        W24926   9.472  10.853  14.212  0.2473  0.0667 -0.1551
 8453W        W24927   9.764  16.852   0.197 -0.0647 -0.0544 -0.0450
 8454W        W24928  13.938   2.721   4.343  0.0671 -0.0095 -0.1076
 8455W        W24929  17.415  11.232   1.567 -0.1055  0.0263  0.0638
 8456W        W24930   2.830  16.461   1.429 -0.3503  0.0140  0.0200
 8457W        W24931  18.658   6.253  10.544  0.0084 -0.1864 -0.1432
 8458W        W24932   5.373   9.434  11.583  0.2973 -0.1540 -0.1499
 8459W        W24933   7.205   8.171   1.251 -0.0040 -0.1548  0.0153
 8460W        W24934   8.277   7.858   5.017  0.4203 -0.0279 -0.0122
 8461W        W24935  12.678  18.544  12.952 -0.0807 -0.2593 -0.0816
 8462W        W24936  15.003   8.279  11.845 -0.0011 -0.1339  0.0777
 8463W        W24937   8.958   0.243   4.048  0.1169  0.0064  0.2357
 8464W        W24938   9.174   0.426   0.539 -0.0648 -0.1263 -0.0804
 8465W        W24939   5.002   4.552  11.182 -0.1976 -0.2137  0.0860
 8466W        W24940  10.993  16.975   1.275 -0.0827 -0.3296 -0.1016
 8467W        W24941   6.852   4.386   4.007 -0.0365 -0.3719 -0.2603
 8468W        W24942   9.745  13.726   2.745  0.1337  0.0205  0.3193
 8469W        W24943  16.728   9.473  12.822 -0.0632 -0.1700 -0.0320
 8470W        W24944   2.242  11.619   3.784 -0.1602 -0.2498 -0.0044
 8471W        W24945  13.431  15.578  11.509 -0.1175 -0.2534  0.0230
 8472W        W24946   0.827  11.450   0.895  0.4951  0.0893 -0.1618
 8473W        W24947   6.127   5.744   0.336  0.1910 -0.1371  0.3081
 8474W        W24948  12.978  15.549  11.246  0.0188 -0.1067  0.0303
 8475W        W24949   4.094  10.542  14.007 -0.0930 -0.0213 -0.2117
 8476W        W24950  15.794   6.383   4.505  0.0135  0.1164 -0.2326
 8477W        W24951  13.231  12.075   0.623  0.2358 -0.4459 -0.0687
 8478W        W24952  11.756   1.805  12.432 -0.2976 -0.2053 -0.0571
 8479W        W24953   4.102  10.503  15.004  0.0713 -0.0040  0.0987
 8480W        W24954   1.951   0.971   4.844  0.0176  0.1480 -0.0316
 8481W        W24955   6.897  18.142  12.406 -0.0528  0.0470 -0.1347
 8482W        W24956   9.139   5.277   1.208 -0.2200 -0.0353 -0.1155
 8483W        W24957  15.686   7.529  14.333  0.0627 -0.3337 -0.1334
 8484W        W24958  15.955  13.783  12.780  0.0329  0.0075  0.1785
 8485W        W24959  18.511   6.556  11.160  0.0600 -0.1119  0.1781
 8486W        W24960   6.265   9.772  11.060  0.3663  0.3190  0.0691
 8487W        W24961   2.998  11.337   1.587  0.1400  0.2131  0.2494
 8488W        W24962  17.476   6.548   2.783  0.0192 -0.0230  0.1534
 8489W        W24963   3.999  14.631  15.158 -0.2443  0.0008  0.3748
 8490W        W24964  16.818   8.799  11.214  0.2726  0.2872 -0.0887
 8491W        W24965  16.870  14.888   2.066 -0.1329  0.3273  0.1947
 8492W        W24966   3.268  15.969  11.521 -0.0866  0.1369 -0.0608
 8493W        W24967   3.299  13.625  13.654 -0.0766 -0.0637 -0.2260
 8494W        W24968   1.120  10.045   5.619  0.1094  0.2363  0.1438
 8495W        W24969  15.288  12.271  13.458 -0.0354 -0.0639 -0.0793
 8496W        W24970  17.639   1.157  14.367  0.1240  0.1878 -0.1981
 8497W        W24971   9.699   4.520  15.019  0.4557 -0.0247 -0.1940
 8498W        W24972  17.460  10.172  13.426  0.1954 -0.1460 -0.2896
 8499W        W24973   3.662   9.420  11.010 -0.1040  0.1028 -0.0080
 8500W        W24974   0.382   8.215  13.599  0.0177  0.0241  0.0681
 8501W        W24975   6.111   5.664   1.557 -0.0999 -0.3693  0.2984
 8502W        W24976   5.372   2.014  14.017  0.1203  0.3348 -0.1690
 8503W        W24977  18.713   4.640  11.445 -0.2874  0.1361 -0.0552
 8504W        W24978  14.883   5.787  11.200  0.0333  0.0444  0.0413
 8505W        W24979   6.846   8.619  12.222 -0.0671  0.0029 -0.2636
 8506W        W24980   3.164   8.468   4.041 -0.1609  0.0452  0.2100
 8507W        W24981  18.177   6.478  15.492  0.0621 -0.0701  0.1707
 8508W        W24982  11.403   0.259  12.469 -0.4845 -0.0032  0.1146
 8509W        W24983  18.727  14.215   4.625  0.0110 -0.2354  0.0362
 8510W        W24984  10.334   9.108   1.833  0.1560  0.2719  0.2086
 8511W        W24985   3.030   6.923   1.460 -0.0891 -0.2678 -0.1274
 8512W        W24986   6.374  14.676  15.454 -0.3226 -0.0625 -0.0976
 8513W        W24987  16.704  14.429  12.335 -0.2008 -0.0008  0.0046
 8514W        W24988  15.119   3.983  11.100 -0.3479  0.1314 -0.0103
 8515W        W24989  13.939  14.255  13.829 -0.0065  0.2125  0.1407
 8516W        W24990   9.120   6.262   0.040  0.3365 -0.0455 -0.2663
 8517W        W24991  17.296   7.433   2.382 -0.1758  0.3689  0.0864
 8518W        W24992   1.138  14.422   5.434 -0.1699 -0.0299  0.0721
 8519W        W24993  17.211  12.361  14.532 -0.0966 -0.2694  0.1427
 8520W        W24994   1.456   2.127  11.651 -0.0299  0.0084 -0.2461
 8521W        W24995   3.238   6.233  10.528 -0.1209 -0.2006 -0.1650
 8522W        W24996   6.241   0.107   4.908 -0.1005 -0.0610  0.3172
 8523W        W24997  10.324  13.248  10.851 -0.3458  0.0177  0.1551
 8524W        W24998   4.265  10.735  10.012  0.3475  0.3261  0.1020
 8525W        W24999   9.334  15.561   1.851 -0.3987 -0.0453 -0.1492
 8526W        W25000  11.922  14.704   0.821 -0.1910 -0.1982  0.0385
 8527W        W25001  11.138   7.559   3.860  0.0630  0.2731  0.1874
 8528W        W25002   6.945  13.547   1.897  0.0403 -0.0974 -0.0264
 8529W        W25003  16.119  10.538  13.378 -0.0711 -0.1404  0.0068
 8530W        W25004  11.209  12.386   2.053 -0.2984 -0.2556  0.5172
 8531W        W25005   0.377  17.487   2.946  0.0336 -0.0448  0.1948
 8532W        W25006  15.204   2.688  14.313  0.2056  0.0391  0.1818
 8533W        W25007  11.184  10.396  14.906  0.3202 -0.3902 -0.2411
 8534W        W25008   9.007  15.850   4.891  0.3264  0.1489  0.2522
 8535W        W25009  15.583   7.176   3.305 -0.0158 -0.1946 -0.4281
 8536W        W25010  13.891   9.990  14.449 -0.1336  0.0049  0.0870
 8537W        W25011   5.075  10.774  11.293  0.0565 -0.1421 -0.2043
 8538W        W25012   8.675   7.260   3.931  0.5193  0.0125 -0.0889
 8539W        W25013  14.611   6.497   1.963 -0.0417 -0.1164  0.2880
 8540W        W25014   0.168   1.022  13.964  0.1400  0.3709 -0.0070
 8541W        W25015   6.714  16.468   0.274 -0.0316 -0.2616  0.1077
 8542W        W25016   3.306   7.552  14.843 -0.1816  0.0172 -0.2446
 8543W        W25017  16.154   9.135   1.637  0.0442  0.1881  0.1531
 8544W        W25018  13.750   6.130  11.336  0.0086  0.0176 -0.0248
 8545W        W25019   0.711  17.576   1.551  0.3184  0.0925 -0.0873
 8546W        W25020  14.262   8.260  11.332 -0.1015  0.0110  0.3834
 8547W        W25021   7.921  12.708   5.362 -0.1461 -0.2197 -0.0106
 8548W        W25022   5.565   4.532  14.167 -0.0072 -0.1235  0.1805
 8549W        W25023  10.070   8.195  11.262  0.0353 -0.0176 -0.1162
 8550W        W25024  16.592  11.829  10.994  0.1278 -0.2241 -0.2496
 8551W        W25025   2.755  13.612   4.629 -0.1634  0.0094 -0.0817
 8552W        W25026   7.345  17.552   1.050  0.0725  0.1088  0.0208
 8553W        W25027  11.544  13.157   1.659  0.0840  0.1730 -0.1180
 8554W        W25028   3.625   4.881   1.071  0.0105  0.1252 -0.1596
 8555W        W25029  11.680  17.731   0.873  0.2241  0.0602 -0.3467
 8556W        W25030  12.023   4.807  14.979  0.2066  0.3928 -0.2219
 8557W        W25031  13.231   9.327   1.228 -0.3049 -0.0003  0.0293
 8558W        W25032  14.102   9.595   3.972 -0.1420  0.0114 -0.2167
 8559W        W25033   3.780   5.631   0.347  0.2155 -0.0497  0.1792
 8560W        W25034   7.854   5.038   2.581  0.1005  0.2257  0.2159
 8561W        W25035   3.492  13.581  12.990  0.0537  0.0247 -0.2529
 8562W        W25036  18.014  12.185   2.904 -0.2239  0.1167 -0.0091
 8563W        W25037   5.779  15.274  12.619 -0.0197  0.1953  0.3920
 8564W        W25038   2.130   8.599  14.363 -0.1416 -0.0231  0.1766
 8565W        W25039  12.325   2.066   5.463  0.0023  0.1330 -0.0061
 8566W        W25040  17.223  15.107  12.708 -0.0761  0.0691  0.0825
 8567W        W25041  10.862   8.789   4.647 -0.0234  0.0577 -0.0991
 8568W        W25042   1.442   1.601   3.998  0.2480 -0.0809 -0.2449
 8569W        W25043  14.945   2.730   4.842  0.2670 -0.2722  0.0022
 8570W        W25044  18.378   1.393   2.307  0.0040  0.2211 -0.1692
 8571W        W25045  17.611  13.781   2.325 -0.0209  0.2079 -0.3309
 8572W        W25046   8.590   8.201  12.956 -0.0618 -0.4581 -0.2371
 8573W        W25047  14.548  16.751   3.646 -0.0539 -0.0720 -0.3135
 8574W        W25048   4.013  14.831  13.325  0.0458  0.0640 -0.1215
 8575W        W25049  12.944  13.679   2.368 -0.2562 -0.0054 -0.1865
 8576W        W25050   2.587  18.775  11.663 -0.1702  0.0954  0.3591
 8577W        W25051   8.254  13.643   3.245  0.1068  0.1383  0.0418
 8578W        W25052   9.380  14.792   4.989 -0.0944 -0.1080  0.2728
 8579W        W25053  12.942  18.261   2.568  0.1325  0.3321  0.3079
 8580W        W25054  14.954   8.709   1.050 -0.1882  0.0476  0.0188
 8581W        W25055  16.497   4.000  14.829  0.1295  0.0029 -0.0117
 8582W        W25056  14.446  10.861   0.155 -0.4924 -0.0017  0.2263
 8583W        W25057  14.211  11.806   4.966 -0.1893  0.1646  0.1913
 8584W        W25058  15.708  13.119   0.910 -0.0610  0.0348 -0.0645
 8585W        W25059   4.068   9.159  14.719  0.2050  0.1553 -0.0230
 8586W        W25060   8.153   5.135   0.929 -0.3965 -0.1215  0.0884
 8587W        W25061  17.375  14.705  15.224 -0.2175 -0.2989 -0.0031
 8588W        W25062  14.325  18.432   5.679  0.3767  0.2369  0.0012
 8589W        W25063   2.471  17.051   0.478  0.2432 -0.1524 -0.0759
 8590W        W25064   8.388   5.647   1.800 -0.1823  0.1084 -0.1803
 8591W        W25065  15.824  14.118  12.368  0.2003  0.2659  0.0039
 8592W        W25066   1.375  13.151   1.347 -0.0459 -0.3902 -0.0132
 8593W        W25067   4.098   4.268  10.535  0.0048 -0.0275 -0.1595
 8594W        W25068  16.552   1.032  15.260 -0.3247  0.1474  0.0891
 8595W        W25069   7.262   8.519  10.632 -0.2597 -0.0140  0.0690
 8596W        W25070   2.901   9.817   5.817  0.1899 -0.2406 -0.1675
 8597W        W25071  17.990  13.526   4.716 -0.1249 -0.0748  0.2659
 8598W        W25072  14.793  10.517   2.536  0.1734 -0.1231 -0.2975
 8599W        W25073  17.802   7.040   4.378  0.1907 -0.1185 -0.1592
 8600W        W25074   0.633  11.951   4.279 -0.0234  0.0059  0.1134
 8601W        W25075  11.257   5.678   1.656 -0.0629 -0.1251  0.3959
 8602W        W25076   4.371   8.106  12.283 -0.1793  0.1779  0.0145
 8603W        W25077   7.390  16.459  11.689 -0.2386 -0.1662  0.1925
 8604W        W25078   1.861  14.286  14.074  0.3459  0.2439  0.0340
 8605W        W25079  10.074  14.682   2.894 -0.3574 -0.0381 -0.0857
 8606W        W25080   9.894   5.368   1.587 -0.0760  0.0598  0.1257
 8607W        W25081   3.871   9.177  11.447  0.1529  0.0073 -0.2179
 8608W        W25082   2.414   1.117   0.165 -0.1381  0.0943  0.1117
 8609W        W25083   1.169  17.806  11.482  0.3133  0.2426  0.5226
 8610W        W25084   1.997   7.220   3.074  0.0847  0.2356  0.0363
 8611W        W25085   2.385   3.667   2.262  0.1856  0.0037  0.2593
 8612W        W25086   7.740  15.851   1.576  0.2764  0.0981  0.3069
 8613W        W25087   5.349   9.663   4.223 -0.1668  0.2409  0.2899
 8614W        W25088   4.029   5.570  14.953 -0.2729 -0.1561 -0.2591
 8615W        W25089   7.009  14.103  14.877  0.0649 -0.0348 -0.2733
 8616W        W25090   1.655   2.285   2.745 -0.2149 -0.2513 -0.0817
 8617W        W25091   7.073   8.193   2.797  0.2780 -0.1906 -0.2646
 8618W        W25092  10.795  18.685   4.897 -0.3211 -0.1018  0.0084
 8619W        W25093  17.271   8.389  12.685 -0.1868 -0.0368  0.0541
 8620W        W25094   5.498  18.618  12.567  0.0536  0.1447 -0.0749
 8621W        W25095  15.755   4.787   1.224  0.0158 -0.2100  0.0531
 8622W        W25096  11.415  12.755  14.340 -0.1110  0.1533  0.1593
 8623W        W25097   6.367   0.310   9.913 -0.1188 -0.0483 -0.1337
 8624W        W25098   3.746   6.911  15.253 -0.1259 -0.1485  0.3656
 8625W        W25099  12.890   5.439  13.016  0.0208 -0.0675  0.1319
 8626W        W25100  16.570   5.619   3.269 -0.4275 -0.1320  0.1976
 8627W        W25101   2.796  11.379   4.062  0.1221 -0.2639  0.3721
 8628W        W25102   6.026   9.703  15.419  0.0214  0.2846 -0.0543
 8629W        W25103  14.658   4.167   1.632 -0.1103  0.0227  0.0888
 8630W        W25104  15.077   6.360  14.916 -0.1473  0.0309  0.0037
 8631W        W25105   9.536  12.055   5.701  0.0225  0.0871  0.0117
 8632W        W25106  14.863   8.741   2.364  0.0787  0.0185 -0.2119
 8633W        W25107   1.145  17.384   0.687  0.0270 -0.0229 -0.2973
 8634W        W25108  15.757  11.380  13.293 -0.1877  0.1769 -0.2466
 8635W        W25109  15.997   8.059   1.387  0.0351 -0.2348 -0.1017
 8636W        W25110   2.181  13.783  13.205 -0.0169  0.2014  0.4822
 8637W        W25111   4.915   5.238  10.943  0.0030 -0.0395 -0.1450
 8638W        W25112  12.572   4.997  11.679  0.0636 -0.0670 -0.2191
 8639W        W25113  10.598  12.054   0.975 -0.0218  0.0217  0.1545
 8640W        W25114  15.809   3.026   4.310 -0.3371  0.0377  0.2520
 8641W        W25115   7.521  15.405  10.805  0.1533 -0.0443 -0.1139
 8642W        W25116   6.883   1.722  12.560  0.0715 -0.4219 -0.5329
 8643W        W25117  13.761   2.016   3.356  0.1132 -0.0613 -0.0598
 8644W        W25118   7.984  11.996  12.251 -0.3142 -0.4451 -0.1596
 8645W        W25119   5.553   4.388  13.047  0.0675  0.0429 -0.3107
 8646W        W25120   6.880   6.299   0.003 -0.3346  0.2433  0.1523
 8647W        W25121   1.233   5.640  15.117  0.0278  0.3412  0.0144
 8648W        W25122  16.932   8.924   3.398  0.0512  0.0365  0.7756
 8649W        W25123   0.035  17.273   1.089  0.0350  0.1709  0.1321
 8650W        W25124   2.174  12.110   3.906 -0.0648  0.1066 -0.0582
 8651W        W25125  12.836  13.828   5.029 -0.0886 -0.2668 -0.3080
 8652W        W25126  14.463   1.932  13.218 -0.2415  0.0165  0.1752
 8653W        W25127  15.572  15.718  12.098  0.0062  0.1255 -0.0531
 8654W        W25128   7.557   0.511  11.929 -0.0966 -0.0985  0.0559
 8655W        W25129  10.107  10.093   5.538 -0.1562 -0.1576  0.1370
 8656W        W25130  14.506  12.236   5.232 -0.1133  0.0847 -0.1556
 8657W        W25131   0.583  17.942  13.541 -0.0268  0.0852  0.0015
 8658W        W25132   3.884   2.682  13.221  0.0263 -0.2023 -0.2040
 8659W        W25133  12.746   1.107  11.243  0.2372 -0.2286 -0.0407
 8660W        W25134   1.761  11.228   5.009 -0.3524  0.0469  0.1478
 8661W        W25135  14.498   4.543   3.359 -0.1117  0.0530  0.1106
 8662W        W25136   2.432   8.020  12.696  0.1921 -0.4057 -0.0948
 8663W        W25137   1.344   3.714   4.153  0.0507  0.3273 -0.3835
 8664W        W25138   0.031   5.162  11.403 -0.3208  0.2840 -0.1389
 8665W        W25139  16.362   0.029  11.876 -0.1330 -0.2769 -0.1995
 8666W        W25140   9.893  13.419   1.509  0.0735 -0.1937 -0.1531
 8667W        W25141  18.300  13.048  10.598 -0.1236 -0.2065 -0.1499
 8668W        W25142  18.004   9.859  12.471  0.1435  0.0445 -0.1246
 8669W        W25143   4.739  14.911   1.582  0.1003 -0.0795  0.1023
 8670W        W25144  14.084   2.911  13.214 -0.2331  0.0444 -0.0889
 8671W        W25145   2.073  11.029  12.534 -0.2583 -0.3857  0.2694
 8672W        W25146  14.758   9.884   1.462  0.2295 -0.0588 -0.3076
 8673W        W25147  17.291  17.628  14.953  0.1665 -0.2251 -0.0895
 8674W        W25148  14.163   7.754   4.655  0.1439 -0.0874  0.1508
 8675W        W25149  14.339   8.155  13.052  0.2541  0.0288  0.0420
 8676W        W25150  14.585  14.817  12.446 -0.0404 -0.0060 -0.0487
 8677W        W25151  10.816   2.782   0.241  0.0864 -0.0163  0.3101
 8678W        W25152  14.427   3.492  13.905 -0.0779 -0.0441  0.0648
 8679W        W25153  15.993  15.457   0.979 -0.1731  0.2236  0.0338
 8680W        W25154   7.116  15.724   2.159 -0.0047 -0.0375  0.1969
 8681W        W25155  15.180   7.607   0.822  0.0321 -0.1845  0.0600
 8682W        W25156   2.573  13.430  12.506  0.1695  0.3005  0.2938
 8683W        W25157   1.669   1.691  14.129  0.0239 -0.1852 -0.0416
 8684W        W25158   1.316   3.758   3.614  0.3299 -0.2447  0.2737
 8685W        W25159  14.770  11.412  13.917  0.0951  0.0708 -0.0694
 8686W        W25160  17.562   6.119   3.917 -0.0398 -0.0603 -0.0182
 8687W        W25161   9.390   1.350  14.296  0.0352  0.1820  0.0712
 8688W        W25162   3.821   2.234  14.591  0.0029  0.0163 -0.1971
 8689W        W25163   6.188   9.258  10.973  0.2736 -0.1325 -0.0571
 8690W        W25164  13.704  16.201   5.988 -0.0095  0.3012  0.0472
 8691W        W25165   6.588   0.735   5.550 -0.1132  0.1694 -0.1985
 8692W        W25166  14.151  16.472   1.173  0.0706  0.0243  0.0352
 8693W        W25167  14.661   2.171   5.765  0.0561  0.2232  0.2941
 8694W        W25168  10.536   1.159  11.678 -0.0594  0.0577 -0.1212
 8695W        W25169   7.044  11.786   1.393 -0.1812  0.2182  0.2066
 8696W        W25170  17.118  16.661  12.987  0.1460  0.1236  0.0155
 8697W        W25171  17.371   5.121  12.534  0.0833 -0.1422 -0.3444
 8698W        W25172   5.975  11.839   2.985  0.2236  0.0486  0.0093
 8699W        W25173  16.443  11.841   3.400  0.1844 -0.2156  0.0726
 8700W        W25174   6.961   8.006  11.668 -0.0033  0.0183 -0.0085
 8701W        W25175  10.948  17.626   5.057  0.3947  0.3904 -0.2593
 8702W        W25176  16.801   3.317  13.520  0.2708 -0.0315  0.1755
 8703W        W25177   3.624  14.869  14.364  0.1834  0.0425  0.5479
 8704W        W25178   0.301   3.719  14.419 -0.0929 -0.3435  0.2247
 8705W        W25179  13.786   1.136   3.221 -0.4787 -0.1761  0.0948
 8706W        W25180  17.919  12.567   3.364  0.2174  0.0758  0.2038
 8707W        W25181  17.922   9.578   2.728 -0.0425 -0.1366 -0.2378
 8708W        W25182   2.294  17.734   4.431  0.2179  0.0684 -0.0077
 8709W        W25183   8.035  12.898  13.634 -0.0768  0.1266  0.0024
 8710W        W25184   8.139   5.856   0.469 -0.1792 -0.2278 -0.1068
 8711W        W25185  10.195  13.979   3.989 -0.0077  0.2427  0.2866
 8712W        W25186   6.298  11.304   1.831 -0.1284  0.0580 -0.1575
 8713W        W25187  16.198   1.366  15.107 -0.1592  0.0026  0.1130
 8714W        W25188   6.253  11.901  10.317 -0.2892 -0.0042  0.0267
 8715W        W25189   5.767  12.658   4.499  0.3389 -0.4212  0.1227
 8716W        W25190   1.258  10.393  13.240 -0.0458 -0.3109 -0.0901
 8717W        W25191  15.928   9.391   5.158 -0.0622 -0.1222 -0.2324
 8718W        W25192   2.931   7.667  10.242 -0.1212 -0.4809  0.2868
 8719W        W25193  14.564   5.535  14.937 -0.0031 -0.1983 -0.0177
 8720W        W25194  14.799  13.324  11.729  0.1471 -0.1000  0.0758
 8721W        W25195   7.011  11.072   3.820  0.2879  0.1024  0.2019
 8722W        W25196  15.331   2.445  12.933  0.0211 -0.1927  0.2861
 8723W        W25197   9.587  13.720  11.483 -0.2612 -0.1087  0.1103
 8724W        W25198   4.560   1.311  10.456 -0.0139 -0.1587 -0.0227
 8725W        W25199  14.804   9.764  12.157  0.0415  0.0175  0.2309
 8726W        W25200   3.647  10.557  10.772 -0.0789  0.0139  0.2538
 8727W        W25201   0.888  18.750  14.788  0.0255 -0.0164  0.1933
 8728W        W25202  16.907   0.961  14.800 -0.0509 -0.0781 -0.1802
 8729W        W25203  12.956   3.820  12.735  0.0989 -0.0021 -0.2678
 8730W        W25204  12.866   8.535   1.584 -0.0727  0.1122  0.1645
 8731W        W25205   3.281   9.957   2.772  0.0423  0.0849  0.0389
 8732W        W25206  11.140   5.706  15.026 -0.0870  0.1894 -0.0103
 8733W        W25207   4.425   9.178   1.300 -0.0496  0.2452  0.1220
 8734W        W25208  15.486  16.677   3.064  0.2435  0.2077  0.1298
 8735W        W25209   2.243  13.720  14.535  0.0281  0.2277 -0.1181
 8736W        W25210   0.506   9.537  11.012 -0.0187 -0.2585  0.2605
 8737W        W25211  17.676  16.030   2.618 -0.1368  0.2122  0.3465
 8738W        W25212  11.596   7.445  15.211  0.0021  0.0515  0.2130
 8739W        W25213   6.831  16.875  15.453  0.1912  0.0179 -0.3756
 8740W        W25214   5.940   1.092  12.651  0.0408 -0.2774 -0.0126
 8741W        W25215   1.231  18.556   3.820 -0.2011 -0.0389 -0.2616
 8742W        W25216  13.234   0.551  14.609 -0.0247  0.3565 -0.0229
 8743W        W25217   8.112   1.050  10.952  0.1696  0.1028  0.1933
 8744W        W25218   5.385   8.330   2.732  0.1883 -0.1783 -0.0907
 8745W        W25219   0.154  16.890   4.857  0.0274 -0.0056 -0.0001
 8746W        W25220  11.420   7.137  12.707 -0.1234  0.2091  0.0137
 8747W        W25221   5.897  16.188   6.082 -0.0474 -0.0843 -0.1185
 8748W        W25222  15.366   2.222  14.062 -0.0317 -0.0560  0.1318
 8749W        W25223  14.601  18.768   4.276 -0.0870  0.2962 -0.0450
 8750W        W25224   4.451  18.268  10.590 -0.2247 -0.1321  0.0832
 8751W        W25225   6.194   5.095   2.161 -0.2898  0.2799  0.0094
 8752W        W25226   8.768  18.310   1.777 -0.0065  0.0985 -0.0653
 8753W        W25227  14.947   8.809  12.555  0.0344 -0.2493  0.0908
 8754W        W25228  17.033   0.750  14.154  0.2577  0.0346 -0.3151
 8755W        W25229  17.177   4.286   2.330  0.1757 -0.1621  0.3328
 8756W        W25230  18.338   0.863  13.257 -0.0471  0.0084 -0.1589
 8757W        W25231   5.604   5.606  10.722 -0.2333 -0.1297  0.1919
 8758W        W25232  14.691  17.555   5.471 -0.1869  0.1500 -0.2007
 8759W        W25233  15.157   8.681  13.896  0.2258 -0.2310  0.1126
 8760W        W25234   7.444   6.517  15.017  0.0779  0.2131  0.2478
 8761W        W25235   5.148  11.594   0.592 -0.1277 -0.2360 -0.1801
 8762W        W25236  11.559  10.718  13.278 -0.0093 -0.0228  0.3026
 8763W        W25237  14.622   5.934   1.330 -0.1191 -0.0458 -0.5673
 8764W        W25238   3.615   2.209   2.818 -0.0648  0.3511 -0.0307
 8765W        W25239   6.871  17.062  10.615  0.0938  0.0354  0.1792
 8766W        W25240   7.439   2.915   4.558 -0.0414 -0.3456  0.0213
 8767W        W25241  15.095   3.115   0.733  0.0240  0.2794 -0.0542
 8768W        W25242  15.262   1.629  10.948 -0.1568  0.2663 -0.1133
 8769W        W25243  16.422   7.663   3.454  0.0292  0.0363  0.0884
 8770W        W25244  13.563  16.432   3.441 -0.0006  0.2485 -0.2089
 8771W        W25245  11.879  16.680   1.896  0.5281 -0.2196 -0.1433
 8772W        W25246   8.435   5.888   1.366 -0.0601  0.0322  0.1695
 8773W        W25247   9.253   8.658  14.084 -0.1139 -0.0593 -0.1521
 8774W        W25248  13.960  10.846   0.106  0.1867 -0.0764 -0.1342
 8775W        W25249   5.214  17.275  14.711 -0.4558 -0.1484  0.0493
 8776W        W25250   6.800   9.389   4.278 -0.1039  0.1512 -0.0986
 8777W        W25251  13.527   6.476  11.017 -0.0727  0.0416  0.2008
 8778W        W25252   4.363  12.147  11.555 -0.0523 -0.1824 -0.3913
 8779W        W25253  13.163  13.940  14.121 -0.3065 -0.1416  0.3731
 8780W        W25254   9.864  14.780   4.841 -0.2351  0.4213 -0.4443
 8781W        W25255   2.911   3.407   0.156 -0.1743 -0.0030 -0.1066
 8782W        W25256  17.290  10.423   3.051 -0.1590  0.3675 -0.0232
 8783W        W25257  15.450  15.587   5.113  0.2036 -0.0373  0.3394
 8784W        W25258   1.741   9.748   0.189 -0.3868 -0.1732  0.0409
 8785W        W25259  13.808  12.811  13.035 -0.3259  0.3750  0.1789
 8786W        W25260   5.911  13.025   3.224 -0.0729 -0.0919  0.0300
 8787W        W25261  18.093  10.914   4.334  0.1521 -0.2168 -0.2318
 8788W        W25262   4.073  10.094  11.494 -0.0038 -0.0666 -0.1924
 8789W        W25263  12.053   2.023  12.108  0.2338 -0.0955  0.3480
 8790W        W25264   8.511   4.203  13.100 -0.2520 -0.2101 -0.0125
 8791W        W25265  13.708  18.236   0.926  0.0387 -0.0335 -0.0091
 8792W        W25266  16.058  18.655  11.354 -0.4239  0.0151  0.1244
 8793W        W25267  17.958  18.398   3.141 -0.1201  0.0063 -0.0079
 8794W        W25268  16.344   5.165   5.541 -0.0516 -0.4395  0.2101
 8795W        W25269  15.186  12.786   4.423 -0.2584  0.0200 -0.0874
 8796W        W25270   9.570  16.203  10.860 -0.1283 -0.3823 -0.4097
 8797W        W25271  18.677  13.658   3.976 -0.0383  0.2105 -0.0678
 8798W        W25272  13.367   0.160  12.066 -0.0543 -0.0789 -0.1035
 8799W        W25273  18.263   2.866  12.798  0.1474 -0.0486 -0.1166
 8800W        W25274   6.836  18.070  11.583  0.3973 -0.0789  0.0586
 8801W        W25275  18.252  13.279   2.795 -0.2541 -0.1385 -0.1644
 8802W        W25276   2.238  16.750   2.098  0.3117  0.2170  0.0927
 8803W        W25277  13.569  10.018  14.981 -0.1856 -0.1392 -0.3693
 8804W        W25278   3.873  10.814   0.770 -0.1569  0.3486 -0.0186
 8805W        W25279  13.508  15.513   1.851  0.0894  0.6652  0.0120
 8806W        W25280  13.475   7.340   1.116  0.2388 -0.1054 -0.1536
 8807W        W25281  17.583   3.474   3.501  0.0399  0.0040 -0.1933
 8808W        W25282  17.020  15.933   3.168  0.2623 -0.0714  0.1031
 8809W        W25283   9.169  14.620  12.757  0.2178  0.0545  0.1241
 8810W        W25284  12.285  12.046   1.774  0.0266 -0.0270  0.1637
 8811W        W25285   0.627   9.453   4.184  0.3134 -0.1174  0.0195
 8812W        W25286  16.144  12.373   5.268 -0.1029  0.2884  0.0815
 8813W        W25287   2.750   9.206  13.965  0.2129  0.0111  0.2499
 8814W        W25288  10.505  11.456  11.684 -0.1085  0.2075  0.1386
 8815W        W25289  16.495   3.809   1.668  0.0101 -0.1275 -0.1984
 8816W        W25290  11.912   6.959   1.194  0.1272  0.1705 -0.1407
 8817W        W25291  10.508   8.215  12.855 -0.0926  0.1739  0.1986
 8818W        W25292   6.447  17.694   3.992 -0.1456  0.1442 -0.4383
 8819W        W25293   0.705   4.138   3.573 -0.1261 -0.2587 -0.1077
 8820W        W25294   2.235   4.357  14.631  0.1347 -0.4055  0.0887
 8821W        W25295  11.380  14.798  12.856  0.0249  0.1717  0.3148
 8822W        W25296   3.685  16.745   2.912 -0.5476  0.0479 -0.0643
 8823W        W25297   6.543  13.699  12.606 -0.0643 -0.2223  0.1004
 8824W        W25298  17.150  15.878  14.124  0.3344  0.0631 -0.2655
 8825W        W25299  18.311   0.349  11.012  0.3611 -0.0343  0.3878
 8826W        W25300  11.192   7.382  15.518  0.0907  0.0536  0.2317
 8827W        W25301  16.932   2.469   3.840 -0.0823 -0.0037  0.0251
 8828W        W25302  16.047   0.010   4.091  0.1427  0.0728  0.1350
 8829W        W25303  13.381   5.441   1.238 -0.1568  0.0299 -0.0651
 8830W        W25304  18.219   6.315  13.914 -0.2916  0.0736  0.1369
 8831W        W25305  16.945  17.433   1.743  0.0413 -0.2228 -0.0089
 8832W        W25306   9.079  13.066   3.044  0.3575 -0.0007  0.0564
 8833W        W25307   1.788  10.081   3.587 -0.0025  0.0794  0.0435
 8834W        W25308  15.501   7.067   2.752 -0.2261 -0.1196 -0.1871
 8835W        W25309  17.307  12.032  14.884  0.0862 -0.0909  0.0314
 8836W        W25310   3.272  16.477  15.539  0.4974 -0.4938  0.2045
 8837W        W25311  14.071   9.247  14.959  0.0916  0.1794 -0.1047
 8838W        W25312  13.403   8.829  15.409  0.1151 -0.2002  0.0827
 8839W        W25313  17.523  10.011   4.588  0.1875  0.3188  0.1927
 8840W        W25314   5.791   9.610  10.807  0.1170 -0.4859 -0.0585
 8841W        W25315  12.442   0.367  11.188  0.0607  0.0778 -0.0596
 8842W        W25316  17.017   3.070  14.962  0.0546  0.0771  0.1294
 8843W        W25317   6.003  10.206  13.765  0.2492 -0.2929 -0.0166
 8844W        W25318  12.797  10.832   3.452 -0.1574 -0.0342  0.0492
 8845W        W25319  10.782   0.807   5.212 -0.0448  0.3718 -0.0607
 8846W        W25320   3.766   6.194   0.909 -0.0576 -0.0539  0.1460
 8847W        W25321  13.716   2.644   2.670  0.1280  0.0484 -0.0462
 8848W        W25322  13.357  11.040  10.838  0.1176  0.1342 -0.0746
 8849W        W25323   0.937   9.113   4.329  0.1889 -0.1568 -0.0138
 8850W        W25324  12.045  18.298  11.504 -0.2384  0.1631 -0.2914
 8851W        W25325   2.951   4.339  10.613 -0.0529  0.2610 -0.0174
 8852W        W25326   9.559  12.650   3.629 -0.3037 -0.2074 -0.0151
 8853W        W25327  10.424  11.223  14.713  0.1341  0.1407  0.2092
 8854W        W25328   7.010  18.119   4.797 -0.0211  0.2810  0.0469
 8855W        W25329   6.176   1.320   3.945 -0.1172  0.2117  0.2783
 8856W        W25330  15.802   6.396  12.020  0.0488  0.0226 -0.0503
 8857W        W25331  11.687   5.561   9.928  0.3828  0.0320  0.0995
 8858W        W25332   7.443  10.888   4.579  0.0951  0.0073 -0.0595
 8859W        W25333   3.149   4.176  14.354 -0.1033  0.2446 -0.0852
 8860W        W25334   3.218  12.117   3.503  0.0584 -0.1781 -0.1793
 8861W        W25335   8.186  12.723  11.651 -0.4029 -0.1895 -0.0260
 8862W        W25336   2.963   7.578   2.300 -0.0978 -0.0228  0.0188
 8863W        W25337   0.769   6.114   1.938  0.0382  0.0295 -0.2273
 8864W        W25338   8.695   0.528   4.368  0.0239 -0.2044  0.1660
 8865W        W25339   5.500  11.617   4.325 -0.1338 -0.1563  0.0442
 8866W        W25340  13.060   3.041   2.058 -0.0459 -0.2137 -0.0430
 8867W        W25341   4.107  18.647  13.014  0.0388  0.0959 -0.2100
 8868W        W25342  11.959   8.230  14.969 -0.0754 -0.0875 -0.1014
 8869W        W25343   5.147  10.093   2.973 -0.0732  0.4055 -0.0728
 8870W        W25344   0.257   6.985  11.636 -0.0916  0.0407  0.1686
 8871W        W25345   0.193  13.773  12.043  0.2215 -0.0332  0.0528
 8872W        W25346   9.011   0.890   1.946  0.0484  0.0067 -0.0295
 8873W        W25347   8.513  13.994   3.543  0.0564  0.4526 -0.0387
 8874W        W25348   6.768   5.540   0.463  0.1053  0.0508  0.1972
 8875W        W25349  13.857  10.101   1.652 -0.0246 -0.0131 -0.0455
 8876W        W25350   8.912  17.180  13.762  0.0769 -0.1134 -0.1479
 8877W        W25351  16.733  16.412   0.760 -0.0836  0.0885  0.1710
 8878W        W25352  12.265   2.085  15.048 -0.1206 -0.1834  0.0321
 8879W        W25353   3.659  16.657   3.512  0.1070 -0.1948  0.2631
 8880W        W25354   9.330   6.891  14.014  0.1779  0.3993  0.2211
 8881W        W25355   0.853   1.915   4.367 -0.0142  0.1141 -0.0917
 8882W        W25356  11.723   9.059  12.121  0.0376 -0.0193  0.0963
 8883W        W25357   4.972   6.351   0.123 -0.0598  0.1971 -0.0746
 8884W        W25358  17.259  10.493  12.621  0.0623  0.0609  0.0416
 8885W        W25359   6.047   9.124  12.765  0.1588  0.2258 -0.2546
 8886W        W25360  17.778   6.715   4.786 -0.0473 -0.1458 -0.0650
 8887W        W25361   0.274   1.577  13.224 -0.0520 -0.1231  0.2025
 8888W        W25362  16.671   4.125  12.272 -0.2023  0.0995 -0.0349
 8889W        W25363  10.957  10.834   1.299 -0.3010  0.1945  0.2391
 8890W        W25364   2.041   3.280   3.535  0.2036  0.0191  0.0660
 8891W        W25365   9.729  16.656   3.392 -0.0471  0.1524 -0.3596
 8892W        W25366  17.556   6.073  12.835  0.3220 -0.1077  0.3038
 8893W        W25367   4.950  18.564  12.456 -0.3050 -0.0329  0.0977
 8894W        W25368   8.209  11.577  14.594 -0.1579 -0.1683  0.2343
 8895W        W25369   5.720   5.148   4.835 -0.0791 -0.0038 -0.0735
 8896W        W25370   4.122   2.339   2.013  0.1222  0.4946  0.1045
 8897W        W25371  16.593   9.594  11.526  0.0981 -0.1060  0.1146
 8898W        W25372  17.226   7.538  14.534  0.0946 -0.0789  0.0959
 8899W        W25373  13.213   6.611   0.871 -0.2357 -0.0037  0.1553
 8900W        W25374   7.342   0.222  14.327  0.0164  0.0980 -0.1361
 8901W        W25375  11.132  11.532   0.729  0.0772  0.0689 -0.0525
 8902W        W25376   2.047  13.617  12.297 -0.0392 -0.0053  0.1898
 8903W        W25377  17.833  17.740   3.615  0.3139  0.0040  0.5694
 8904W        W25378  13.066   2.800   0.462 -0.0467  0.3022  0.0571
 8905W        W25379   1.635  12.281  13.151  0.0819 -0.0129 -0.0879
 8906W        W25380   8.971  11.385  14.790  0.0895  0.4598  0.1111
 8907W        W25381  18.075  10.673   0.864 -0.0911  0.0585 -0.0127
 8908W        W25382  10.557  12.204  10.520  0.2943 -0.2254 -0.0856
 8909W        W25383   3.669   9.764  11.475  0.0371  0.1273  0.0528
 8910W        W25384  14.614  16.417  12.562 -0.0023 -0.3429  0.0048
 8911W        W25385   4.611  17.650  11.263  0.3637  0.3856 -0.0826
 8912W        W25386   8.502  13.476   1.351  0.1679  0.0530 -0.1052
 8913W        W25387   0.937   7.761  15.222 -0.0635 -0.0249 -0.0583
 8914W        W25388  14.037   0.794   2.654  0.2246 -0.2300 -0.2881
 8915W        W25389  13.522  11.411   3.465  0.1136  0.0871  0.1514
 8916W        W25390   0.291   6.774  12.092 -0.0614  0.3102 -0.0569
 8917W        W25391   6.689   9.137   4.717  0.2103 -0.2519 -0.1344
 8918W        W25392  14.417  13.222  12.010  0.3090 -0.2424 -0.1014
 8919W        W25393  18.083   7.817  13.575  0.0606 -0.0171  0.1522
 8920W        W25394  10.350  12.547   2.944  0.1692 -0.0448 -0.1808
 8921W        W25395  15.374   6.134   1.232  0.1899 -0.4087  0.0497
 8922W        W25396  11.128   8.107   1.638 -0.0031 -0.0040 -0.1618
 8923W        W25397  10.148  17.690   2.041  0.1756  0.1070 -0.0017
 8924W        W25398   5.436  16.097   2.662 -0.1618  0.2319  0.0379
 8925W        W25399  12.852   7.443   2.388 -0.3422 -0.0956  0.3790
 8926W        W25400  15.478   2.783   2.125  0.1768  0.1470 -0.0423
 8927W        W25401   9.353   3.775  15.401 -0.0382  0.1562 -0.1502
 8928W        W25402  14.898   4.948   3.439  0.1923  0.3134  0.0766
 8929W        W25403   2.087  16.830  14.638 -0.0515 -0.1612 -0.1815
 8930W        W25404  13.845   8.199   3.275 -0.0217 -0.1746 -0.1219
 8931W        W25405   9.417   8.913   2.449  0.0046  0.2868  0.3340
 8932W        W25406   0.667  17.677   4.635 -0.0324 -0.2356 -0.0796
 8933W        W25407   1.513  13.639  10.609 -0.0584  0.0429  0.1048
 8934W        W25408  14.980   0.927  12.670  0.1522 -0.1799  0.0879
 8935W        W25409  13.156  14.096   1.946  0.1105 -0.1900  0.1779
 8936W        W25410   7.811   6.963  10.983 -0.0933 -0.0963 -0.0533
 8937W        W25411   8.989  13.904   2.231 -0.1141 -0.2966 -0.2218
 8938W        W25412  13.738   5.512  12.209 -0.0370 -0.1875 -0.0052
 8939W        W25413   9.952   2.303  14.885  0.1121 -0.1096  0.3036
 8940W        W25414  12.412  10.887  11.716 -0.2183 -0.1458  0.0292
 8941W        W25415  13.298  14.614  11.612 -0.0163 -0.0801 -0.2873
 8942W        W25416   8.124  11.584   1.469  0.1399  0.1310 -0.0967
 8943W        W25417   2.232   0.332  15.336  0.2796  0.0475 -0.0942
 8944W        W25418  15.395  10.374  11.800  0.0121  0.2357 -0.1890
 8945W        W25419   1.042   7.339   1.397  0.0823 -0.1554  0.1893
 8946W        W25420  13.196  18.599  14.972  0.1127 -0.1139  0.0895
 8947W        W25421  13.329  10.305   1.533 -0.1867 -0.1452 -0.0157
 8948W        W25422  18.301  13.682  15.398 -0.2216  0.0503  0.0215
 8949W        W25423  11.027  15.946  14.765  0.1415  0.1964 -0.0199
 8950W        W25424   2.132  18.662  10.193 -0.1603  0.0604  0.2119
 8951W        W25425   9.663   6.741   5.805  0.2632 -0.1838  0.1893
 8952W        W25426   5.015   1.491   9.638  0.0916 -0.0864 -0.2384
 8953W        W25427  16.929   9.592  14.628  0.0031  0.0135  0.0818
 8954W        W25428  12.556  13.881  11.880  0.0197 -0.1106 -0.0477
 8955W        W25429   8.330   3.051  13.126  0.1860  0.2867  0.1975
 8956W        W25430   9.011  10.756   5.168 -0.0589 -0.0357 -0.0109
 8957W        W25431  11.810   4.634   2.481  0.3142  0.2991 -0.1393
 8958W        W25432   1.153  12.471  11.028 -0.1073  0.2710 -0.0637
 8959W        W25433  12.845   1.263   5.510 -0.2318  0.1642 -0.2941
 8960W        W25434   2.178  15.268  13.516 -0.1414  0.3044 -0.2637
 8961W        W25435  10.663   2.011   1.685  0.3476 -0.0279 -0.0398
 8962W        W25436   9.634   6.868   1.250  0.0658 -0.0056 -0.1239
 8963W        W25437   3.716  17.653   4.811 -0.0954 -0.2462  0.0673
 8964W        W25438  11.715   1.318  15.194 -0.3828 -0.2688 -0.0476
 8965W        W25439   0.997   3.022   1.789  0.2436  0.1818  0.1734
 8966W        W25440   2.313  17.864  14.863  0.2912 -0.0318  0.1390
 8967W        W25441   5.305  11.500  13.462  0.1090 -0.0432 -0.0308
 8968W        W25442   2.854  13.224   3.189  0.1024  0.0021 -0.3862
 8969W        W25443   6.934   0.777  12.129  0.2272 -0.0032 -0.3722
 8970W        W25444  17.908  18.439  12.845 -0.3051  0.5011  0.0286
 8971W        W25445  14.385   6.541   0.707  0.0358 -0.2518 -0.2962
 8972W        W25446  11.804   0.815  13.364  0.0785  0.1019  0.3232
 8973W        W25447   6.953  11.818   3.331  0.2585  0.2191  0.2408
 8974W        W25448   0.033   5.862   2.545  0.0469 -0.0468 -0.0942
 8975W        W25449   4.801   8.092  11.024 -0.0657  0.0273 -0.4807
 8976W        W25450   4.402   6.835   5.231 -0.1738  0.0718  0.0066
 8977W        W25451  12.502  18.784   3.170 -0.1836  0.3652 -0.0997
 8978W        W25452   4.559  12.616  13.457  0.1640 -0.1430 -0.0208
 8979W        W25453  12.699   6.250  12.124  0.2947  0.0515 -0.0480
 8980W        W25454  16.594   1.544  15.355 -0.2755 -0.0575 -0.3489
 8981W        W25455  17.303  16.594   3.018 -0.2054 -0.1883 -0.1350
 8982W        W25456  13.638   2.878   2.051 -0.1229 -0.1977  0.2567
 8983W        W25457   4.061   6.162   0.009  0.0579 -0.1973  0.1303
 8984W        W25458   9.939   8.588  10.158  0.0309 -0.1203  0.0380
 8985W        W25459   8.440   9.758  14.154  0.1604  0.1126  0.1411
 8986W        W25460   9.609   8.802  10.612  0.1458 -0.1655 -0.0484
 8987W        W25461  11.431   0.636  11.935 -0.0034  0.0970  0.0663
 8988W        W25462   8.562   5.950   2.721 -0.0609 -0.0368  0.1260
 8989W        W25463   1.985  15.174  13.045 -0.1686 -0.1241  0.1317
 8990W        W25464   8.228  14.187   5.104  0.0818 -0.1496  0.0674
 8991W        W25465  10.758   5.423  13.916 -0.2812  0.3061  0.0126
 8992W        W25466  13.010   0.500   3.516 -0.0581  0.1340  0.1467
 8993W        W25467   5.618   8.969  11.893 -0.1189 -0.0592 -0.0164
 8994W        W25468   8.601  13.427  11.348 -0.0508 -0.2188 -0.4926
 8995W        W25469   5.068   9.781   4.653  0.0704 -0.4271 -0.0006
 8996W        W25470   0.888   8.968   4.801  0.0605 -0.2569  0.0738
 8997W        W25471   2.391   7.229   4.914  0.0037 -0.0076 -0.2932
 8998W        W25472  12.317   2.519  13.775 -0.2710  0.1248  0.1408
 8999W        W25473  17.060   4.416   0.942 -0.3253  0.2077  0.2670
 9000W        W25474   8.085  11.147  14.391  0.2390  0.3103  0.2436
 9001W        W25475   6.216  17.646   1.792 -0.1572  0.1532 -0.1486
 9002W        W25476   3.797   0.442  14.434 -0.0556  0.1468 -0.4285
 9003W        W25477   1.287   4.931   4.654  0.3004  0.1326 -0.4234
 9004W        W25478  17.083   2.968   2.837 -0.3920  0.2883  0.3438
 9005W        W25479   5.180  11.973   1.088 -0.2596  0.2020 -0.1018
 9006W        W25480  15.689   9.041   1.436  0.2188  0.0082 -0.2296
 9007W        W25481  16.528  17.416  12.248  0.0334  0.3633  0.1301
 9008W        W25482   6.753  18.203   0.775 -0.1311 -0.2932 -0.4469
 9009W        W25483  15.195   8.187   3.201 -0.0043 -0.0436 -0.2756
 9010W        W25484  13.087   3.957   4.385 -0.0646 -0.2866 -0.1409
 9011W        W25485  17.032  18.090   4.985 -0.2036 -0.0469 -0.3645
 9012W        W25486  15.040  16.055  11.239 -0.2356  0.0912  0.4057
 9013W        W25487   7.270   0.071  13.219  0.1405 -0.0832 -0.0823
 9014W        W25488   4.573   8.381  11.341  0.0035 -0.1190 -0.0169
 9015W        W25489   4.424   4.208  13.663  0.0731  0.0161  0.0864
 9016W        W25490  12.133  13.053   3.836  0.1826 -0.0013 -0.2384
 9017W        W25491  10.641   4.688   5.144  0.1083  0.0897  0.5726
 9018W        W25492   3.073  13.555  12.754 -0.2553 -0.2970  0.1807
 9019W        W25493  16.700   8.878  14.025 -0.2787  0.2427  0.1811
 9020W        W25494  16.169   5.546  15.262  0.1752  0.0640 -0.0446
 9021W        W25495   8.332  11.231  13.208  0.2196  0.5497  0.1758
 9022W        W25496  16.772  12.139  13.927  0.3146  0.1272 -0.0742
 9023W        W25497   0.181   8.005  14.116  0.0896  0.1309  0.2603
 9024W        W25498  14.550   8.032  12.565 -0.0680  0.1486  0.0516
 9025W        W25499   1.844   6.321   0.937  0.2967 -0.2175 -0.2830
 9026W        W25500   3.250  12.759  11.385 -0.0839 -0.2157  0.1448
 9027W        W25501  11.092   5.591  12.262  0.2666  0.0100  0.0686
 9028W        W25502   0.101  12.328  12.877 -0.1277 -0.0491  0.0277
 9029W        W25503  12.555   5.763   2.452 -0.0823  0.2115 -0.0947
 9030W        W25504  18.008  11.069  15.477  0.0050  0.2034  0.0280
 9031W        W25505  15.304   5.186   3.262 -0.1089 -0.0800  0.1752
 9032W        W25506  17.184   9.725  11.682  0.0505 -0.0127  0.3144
 9033W        W25507  13.797  12.061   1.505  0.1848 -0.0045 -0.1133
 9034W        W25508  16.951   1.855   2.182  0.2288  0.0054  0.1915
 9035W        W25509  17.227   0.577   1.950 -0.0913 -0.0699 -0.3009
 9036W        W25510   8.273  13.759   5.340  0.1662 -0.2468 -0.0927
 9037W        W25511  17.992  14.008   4.685  0.0419  0.1834  0.1381
 9038W        W25512   8.366  12.359   0.285  0.0491  0.1770  0.0744
 9039W        W25513   7.416  10.041  14.272 -0.1697 -0.0635 -0.2290
 9040W        W25514  10.057  15.360   5.553 -0.1232 -0.1280 -0.0360
 9041W        W25515   4.210  12.290   4.339  0.0925  0.0969 -0.2592
 9042W        W25516   5.384   1.605   4.470 -0.1126  0.1383  0.0963
 9043W        W25517   4.055   4.774  15.379  0.0526  0.0379  0.1358
 9044W        W25518  15.565  13.087  13.949  0.0057 -0.0780  0.1442
 9045W        W25519  16.366   3.832   0.236 -0.0256 -0.3876 -0.1061
 9046W        W25520  17.701   3.644   1.170  0.1419  0.1040 -0.2758
 9047W        W25521  11.116   2.489   0.866 -0.0232 -0.0596  0.2826
 9048W        W25522   4.774  18.128  10.978 -0.0129  0.1454 -0.1438
 9049W        W25523  14.799   2.703   3.458  0.1372 -0.0319 -0.1995
 9050W        W25524   8.838  13.755   3.841  0.0732  0.1823  0.0339
 9051W        W25525   8.700  12.136   1.997 -0.0483 -0.1924 -0.0646
 9052W        W25526  15.765  14.381   1.779 -0.0349 -0.1551  0.4165
 9053W        W25527  12.098  10.205   3.074 -0.4588  0.1765  0.1982
 9054W        W25528   2.301  17.483   0.777  0.0640 -0.2591  0.0955
 9055W        W25529   1.237   6.971   1.724 -0.3154  0.0052 -0.2804
 9056W        W25530   7.449  11.017  14.266 -0.0131 -0.0127 -0.3753
 9057W        W25531   6.337  18.023  14.488  0.1068 -0.0837 -0.0096
 9058W        W25532  17.642   7.006  14.451 -0.0264 -0.2046  0.2728
 9059W        W25533  17.660   1.709  11.935 -0.1216 -0.1386 -0.3277
 9060W        W25534   0.143   4.152  14.772 -0.2569 -0.1387 -0.0607
 9061W        W25535   8.901   1.075   1.309 -0.4472 -0.0467 -0.2146
 9062W        W25536   7.786  17.081   1.140 -0.3512  0.1411 -0.1125
 9063W        W25537   3.077  15.489   0.922 -0.1380  0.0033 -0.1650
 9064W        W25538   4.684  17.584   2.030 -0.2517  0.1146  0.0049
 9065W        W25539   3.446  11.496   2.498  0.0068 -0.1205 -0.2628
 9066W        W25540   4.043  13.898  13.828 -0.0751 -0.0291  0.0534
 9067W        W25541  13.179   2.302  13.932  0.4077  0.2392 -0.1645
 9068W        W25542  16.698   3.570   3.303  0.2155 -0.0354  0.1585
 9069W        W25543  17.949  12.158   5.239 -0.2842  0.0648  0.2959
 9070W        W25544   2.712  11.543   0.488 -0.2494 -0.0754  0.2029
 9071W        W25545  12.945   0.155  15.545  0.1217  0.0499 -0.0393
 9072W        W25546   7.971   2.787   0.950 -0.0752 -0.2972 -0.2177
 9073W        W25547  13.960  14.633   5.248 -0.0694 -0.1143  0.0597
 9074W        W25548  13.806  17.735   2.712  0.2941  0.1146  0.1709
 9075W        W25549  12.288   1.761  12.491  0.0472 -0.0151  0.0787
 9076W        W25550   8.076  13.192   1.446  0.1326  0.0195  0.0405
 9077W        W25551   5.310   0.274  12.431  0.4223 -0.0505  0.3129
 9078W        W25552  15.712  17.714  13.781  0.1015 -0.0561  0.0203
 9079W        W25553  18.643  15.343  13.535 -0.0182 -0.1674  0.1222
 9080W        W25554   8.175   9.659   3.615 -0.0810  0.1521  0.1007
 9081W        W25555  10.885  16.576  11.558 -0.1990  0.2427 -0.2315
 9082W        W25556   7.502  16.453  13.603 -0.2261  0.1087 -0.0187
 9083W        W25557  16.447   2.381   3.426  0.1633  0.3976  0.0836
 9084W        W25558   4.252   4.660  10.775 -0.3095 -0.1562 -0.5110
 9085W        W25559  10.844   8.470  11.001  0.1512  0.0174 -0.0019
 9086W        W25560   5.627  10.569   1.566  0.3894 -0.1147  0.0132
 9087W        W25561  18.397   8.828   0.490  0.4012 -0.3471  0.1695
 9088W        W25562  14.200   3.826   1.973 -0.0566  0.1492 -0.0173
 9089W        W25563  15.680  14.408  15.567 -0.1572  0.0488 -0.2869
 9090W        W25564  11.496  16.791   3.325 -0.1930  0.1904  0.0923
 9091W        W25565   1.473   8.586  10.442  0.1098 -0.0370 -0.0099
 9092W        W25566   5.729  13.349   1.611 -0.2721 -0.2734  0.2310
 9093W        W25567  18.133  13.979  14.145  0.1595  0.0443 -0.0888
 9094W        W25568   3.755   0.349  11.332 -0.0846 -0.0781  0.0502
 9095W        W25569   8.058  17.770  11.359 -0.0432  0.0514  0.2548
 9096W        W25570  14.760  16.342  14.192 -0.4701  0.1853 -0.0024
 9097W        W25571   8.455  12.092  12.343  0.2883  0.0322  0.1153
 9098W        W25572   7.997   4.020   9.738 -0.0540 -0.0590  0.1183
 9099W        W25573  14.175  18.631   5.250 -0.0466  0.0527 -0.1834
 9100W        W25574  11.590  13.666   1.717  0.0401 -0.1182  0.0734
 9101W        W25575   5.374  11.816  15.075 -0.1156  0.0634 -0.0204
 9102W        W25576  10.381   2.114  10.656  0.4289 -0.1061  0.1331
 9103W        W25577  14.933   7.701   3.534  0.0068  0.0134  0.3507
 9104W        W25578  13.852  11.804  13.038 -0.1746  0.1006 -0.1486
 9105W        W25579  11.607   9.193   1.459  0.0525  0.0024 -0.1283
 9106W        W25580  17.797   6.492  12.671  0.0345 -0.2739  0.0413
 9107W        W25581  13.735  17.462  12.164 -0.0465 -0.0858 -0.1301
 9108W        W25582   4.702  11.928  14.858 -0.0698  0.1019  0.1025
 9109W        W25583  17.226  13.165   1.118  0.0452 -0.2086 -0.2380
 9110W        W25584  17.218  16.150   2.721 -0.0996  0.1792 -0.2909
 9111W        W25585  16.233  17.320  11.345  0.4964 -0.0070 -0.0666
 9112W        W25586   0.491   3.650  12.335  0.2232  0.2291  0.2017
 9113W        W25587   8.169   5.270   2.172  0.0629 -0.1230 -0.1636
 9114W        W25588  10.400   3.426  13.781 -0.2007  0.0066  0.1004
 9115W        W25589   7.115   0.823   5.506  0.3563 -0.2677 -0.1787
 9116W        W25590  14.914  17.294  14.267  0.0161  0.0814  0.1696
 9117W        W25591  14.262  18.077  12.433 -0.2123  0.1836  0.0389
 9118W        W25592  13.710  13.057   1.991  0.3025 -0.0033  0.0960
 9119W        W25593   4.305   8.609   1.298 -0.0482 -0.0294  0.3173
 9120W        W25594   5.346   9.163   3.390  0.0930 -0.1150 -0.0764
 9121W        W25595   7.183   4.692   3.228 -0.0436  0.0032 -0.0054
 9122W        W25596  10.892  12.460  14.298  0.2979 -0.2495 -0.2233
 9123W        W25597   3.471  12.963   2.526 -0.3410  0.0406 -0.2538
 9124W        W25598   7.766  17.067  12.132 -0.2762 -0.3040 -0.2302
 9125W        W25599   1.610  10.877  11.822 -0.0778 -0.1928  0.2187
 9126W        W25600   1.776  12.124  15.408  0.0352 -0.1507 -0.0687
 9127W        W25601   7.464   8.461  11.850  0.0970  0.0051 -0.1258
 9128W        W25602  11.570   2.493  14.008 -0.1143  0.0316 -0.0255
 9129W        W25603   8.292   5.751  10.875 -0.0450  0.0938 -0.1162
 9130W        W25604   1.035  17.648  10.280  0.0054 -0.0762 -0.0422
 9131W        W25605   9.103  10.551   3.107 -0.2234 -0.0737  0.0855
 9132W        W25606   6.255   4.799  12.804 -0.2153 -0.0321  0.1757
 9133W        W25607   0.762  15.851   2.301  0.0215  0.3822  0.3345
 9134W        W25608  16.358  18.656  14.179  0.0308  0.2202 -0.1606
 9135W        W25609  11.572  16.766  13.848 -0.0821  0.1028 -0.0951
 9136W        W25610  12.900   8.670   0.684  0.0356 -0.2312  0.1481
 9137W        W25611  18.301   2.345   0.997 -0.1371  0.1065 -0.0489
 9138W        W25612   7.824  16.872  11.556  0.3692 -0.1193 -0.2184
 9139W        W25613  17.579  17.347  14.222 -0.0865 -0.0122  0.1666
 9140W        W25614   5.219  13.718   2.027  0.0778  0.1924  0.0887
 9141W        W25615   1.891   2.757   4.944  0.0628 -0.0552  0.1505
 9142W        W25616  17.364   7.261  14.089  0.1958 -0.1313 -0.0842
 9143W        W25617  11.870   1.826   0.310  0.1375 -0.1267  0.1094
 9144W        W25618   6.592   9.003  13.432 -0.1052  0.3044  0.0292
 9145W        W25619   6.533   3.114   4.201 -0.2064  0.3214 -0.2224
 9146W        W25620   0.088  12.768  13.118  0.0065 -0.0156  0.0642
 9147W        W25621  15.331   9.234   4.069 -0.0287  0.3607  0.0820
 9148W        W25622   9.676   3.529  11.265 -0.1643  0.2133 -0.4134
 9149W        W25623  13.475  14.734  12.096  0.2012  0.0678 -0.0351
 9150W        W25624  15.427   2.446  13.439  0.0632  0.2981  0.1284
 9151W        W25625  10.065   6.381   1.496 -0.2831  0.0233 -0.1106
 9152W        W25626  12.404   5.451  12.537 -0.0272 -0.0046 -0.2306
 9153W        W25627   0.338  12.484  13.832  0.2905  0.3527 -0.0428
 9154W        W25628   1.510   5.357  13.537 -0.0110 -0.3054  0.1159
 9155W        W25629  10.188   0.604  12.187 -0.1014 -0.0295 -0.1130
 9156W        W25630   7.589  17.919   2.865 -0.0852 -0.0952  0.1178
 9157W        W25631  11.448   5.318   4.173  0.2903  0.0419  0.0250
 9158W        W25632   8.054   2.271  11.164 -0.1164 -0.1422 -0.0399
 9159W        W25633   9.127  11.038  13.203  0.4528  0.2298  0.2320
 9160W        W25634   1.801  13.329   0.337 -0.0672  0.0735  0.0400
 9161W        W25635   7.305   5.172  12.082  0.0088 -0.0051  0.0026
 9162W        W25636  18.341  11.585   3.661  0.1732 -0.1688  0.0159
 9163W        W25637   7.661   8.401  10.994 -0.2518  0.4010 -0.2732
 9164W        W25638   6.094   1.059  14.690  0.4458  0.1442 -0.0610
 9165W        W25639   2.289   4.610  13.692  0.3784  0.1991 -0.0513
 9166W        W25640  12.488   8.269   1.914  0.1040 -0.1504 -0.2684
 9167W        W25641   4.980   0.435  13.915  0.1706  0.3062  0.0968
 9168W        W25642  13.613   4.594   1.873 -0.1713 -0.1634 -0.2166
 9169W        W25643   2.033  11.084  15.346  0.3075 -0.2366 -0.2599
 9170W        W25644   3.007  14.277  10.628  0.0793  0.0896 -0.0708
 9171W        W25645   8.963  10.736   1.397 -0.1742 -0.2942 -0.0591
 9172W        W25646  15.460   0.281   1.934 -0.0423 -0.3163 -0.0551
 9173W        W25647   4.818   1.326  13.829  0.3004  0.0507  0.1365
 9174W        W25648   7.294  11.866  13.228  0.1413  0.3171 -0.1994
 9175W        W25649   5.030   9.004  10.934  0.3754 -0.1682  0.0724
 9176W        W25650  17.403  10.024  12.584  0.0011  0.0684 -0.4627
 9177W        W25651  12.373   6.224   2.347 -0.1836 -0.0316  0.0177
 9178W        W25652   6.940   7.448   1.047  0.2340  0.0702  0.2889
 9179W        W25653   5.682  17.141   2.177 -0.0750  0.4195  0.0820
 9180W        W25654  18.169   6.852   4.077  0.4690 -0.1682 -0.0697
 9181W        W25655  18.260   7.975  14.885  0.1845  0.0727 -0.0050
 9182W        W25656   7.353  18.249   5.109 -0.0894  0.1456 -0.1155
 9183W        W25657   0.624  14.675   1.175 -0.0515  0.1742  0.1181
 9184W        W25658  16.598  18.264   3.406  0.1686  0.2321 -0.1896
 9185W        W25659  11.431   0.669  14.727  0.3271 -0.0639 -0.1137
 9186W        W25660  10.941   0.702  11.769  0.1829 -0.0989  0.0119
 9187W        W25661  18.556   0.286   2.974 -0.0421  0.1253 -0.0159
 9188W        W25662  13.116   3.568  13.839 -0.1380 -0.1719  0.0786
 9189W        W25663  18.104  15.749  13.904 -0.2121  0.1187  0.3101
 9190W        W25664   5.408  15.080  11.687 -0.0215  0.0026 -0.1939
 9191W        W25665   1.988   7.298   1.011  0.2994 -0.2165  0.0480
 9192W        W25666   4.037   4.713   3.735  0.3273 -0.2681  0.1467
 9193W        W25667   4.574  18.629   1.160  0.0351 -0.1268 -0.3897
 9194W        W25668  10.153   4.105   1.289 -0.1633 -0.1194  0.0815
 9195W        W25669   5.142   0.425   2.794  0.4846  0.2191 -0.0810
 9196W        W25670   6.461   5.213   5.306  0.1871 -0.0020 -0.0902
 9197W        W25671  12.060   6.623   4.420 -0.1106 -0.0662 -0.1831
 9198W        W25672  17.099   8.133   0.554  0.0304  0.0676  0.0278
 9199W        W25673  18.639   9.734   1.766 -0.1831  0.2204 -0.3408
 9200W        W25674   4.456   2.076  11.121  0.0408  0.1508 -0.2286
 9201W        W25675  11.622   0.117   4.425 -0.1380 -0.1399 -0.4975
 9202W        W25676   3.310  13.205  14.939 -0.1969  0.0151  0.3421
 9203W        W25677   9.335   1.227   1.079  0.3096  0.3332 -0.1524
 9204W        W25678  17.632   0.611   0.593  0.1538 -0.0001  0.1374
 9205W        W25679   1.753   7.419  14.666 -0.0456  0.3253 -0.0116
 9206W        W25680   8.957  11.430   3.078 -0.0581 -0.2098 -0.2420
 9207W        W25681  11.897   5.558  13.651  0.1737 -0.2330  0.0406
 9208W        W25682  17.092  13.328  12.073 -0.1116 -0.2038  0.0139
 9209W        W25683  14.602   5.252  13.531  0.0533 -0.3164 -0.0492
 9210W        W25684   1.614  13.377  11.067 -0.2193 -0.2870 -0.0372
 9211W        W25685  16.720   0.604   3.616 -0.1138 -0.0097  0.2365
 9212W        W25686   2.392   4.014  13.672 -0.0268 -0.2074 -0.0436
 9213W        W25687  11.865  14.139   4.767 -0.0556  0.2172 -0.0772
 9214W        W25688   5.483  10.676   4.299  0.3287 -0.1932 -0.0540
 9215W        W25689  14.201   0.591   4.083 -0.1391 -0.2193 -0.0771
 9216W        W25690   6.084   0.080  10.297  0.3527  0.3844 -0.0597
 9217W        W25691  13.130  11.949   0.090  0.1940 -0.1476  0.2705
 9218W        W25692   6.335  18.113   1.572  0.1548  0.0015 -0.0316
 9219W        W25693  17.085   7.405  12.248  0.1766 -0.2696  0.1525
 9220W        W25694  10.883   4.564   4.120 -0.0074  0.0230  0.0696
 9221W        W25695  15.287   6.446  11.628 -0.0548  0.0487 -0.0980
 9222W        W25696  16.129   3.162   3.907 -0.0522 -0.0110  0.0124
 9223W        W25697   6.452   3.799   3.430 -0.1799  0.0122 -0.0809
 9224W        W25698   8.797   2.163   3.240 -0.1195 -0.2103  0.0383
 9225W        W25699   3.504  12.364  11.258 -0.0359 -0.1621 -0.1496
 9226W        W25700   2.078   2.913  14.367 -0.0104 -0.0142 -0.3064
 9227W        W25701  10.077   9.919   0.457 -0.2126  0.1037 -0.0368
 9228W        W25702  15.544  16.044  11.385  0.0542  0.0303  0.0142
 9229W        W25703   0.296   6.089  15.421  0.1898  0.4063  0.1525
 9230W        W25704   3.279   2.435  14.748  0.6757 -0.2710 -0.0230
 9231W        W25705  10.610   0.741   3.931  0.0743 -0.1210 -0.1608
 9232W        W25706  10.256   6.497  12.064 -0.4930 -0.0290 -0.0602
 9233W        W25707   5.423  13.561  13.296 -0.0447  0.1546 -0.1795
 9234W        W25708   8.622  12.068   2.503  0.0005 -0.0472  0.1886
 9235W        W25709  12.747   9.807   0.103  0.1937 -0.1490  0.1728
 9236W        W25710   5.440   3.104  11.970  0.3182  0.4378  0.0730
 9237W        W25711   2.500  13.152   4.051  0.0161  0.1940  0.1827
 9238W        W25712   9.691  10.642   0.741 -0.0799 -0.2734  0.1764
 9239W        W25713   8.002  14.428  12.219  0.1872  0.2572 -0.2270
 9240W        W25714   2.265   4.450  14.144  0.1360 -0.3566  0.1926
 9241W        W25715  15.714   4.753  13.848 -0.1862  0.1732  0.1479
 9242W        W25716   6.105   0.311   0.755 -0.0851 -0.0427  0.0667
 9243W        W25717   9.640  10.320  13.406  0.1403  0.0063 -0.3156
 9244W        W25718  16.119  13.547   0.882 -0.0218 -0.0162  0.0729
 9245W        W25719  14.076   8.701  11.418 -0.2487  0.0161  0.0436
 9246W        W25720  10.135  17.732   5.366 -0.0769 -0.0506 -0.2255
 9247W        W25721   7.354   6.994   3.354 -0.0393  0.0119 -0.0343
 9248W        W25722   2.040  13.353  11.309  0.3013 -0.0038 -0.2801
 9249W        W25723   9.720   0.861   1.240 -0.2302  0.3570  0.1891
 9250W        W25724   4.471   8.885   2.936 -0.3382 -0.1889 -0.0430
 9251W        W25725  15.441  15.615   4.574 -0.0398  0.2371 -0.1218
 9252W        W25726   0.322  11.976   1.884 -0.1334  0.0240 -0.4187
 9253W        W25727   7.983   4.414  11.901 -0.0020 -0.1321 -0.1647
 9254W        W25728   9.256  14.654  14.247 -0.1669  0.5189 -0.2313
 9255W        W25729   4.562  12.093   2.915  0.3414 -0.1588  0.0113
 9256W        W25730  11.842   8.863   0.773 -0.3044  0.4364 -0.3612
 9257W        W25731   3.064   1.499   3.139  0.0975 -0.1527  0.0362
 9258W        W25732   5.423   8.696   3.591 -0.0252 -0.0379  0.0606
 9259W        W25733  16.377  17.159   0.507  0.0095 -0.0199 -0.0213
 9260W        W25734   7.752   6.540  10.807  0.1091  0.4078  0.1969
 9261W        W25735  15.674   5.685  13.395  0.3006  0.0636  0.0679
 9262W        W25736   4.715   2.662  14.248  0.0192  0.3195  0.2679
 9263W        W25737  12.071  11.804   5.870 -0.0492 -0.0311 -0.2159
 9264W        W25738   7.364  13.779  11.546 -0.1387  0.0083 -0.0885
 9265W        W25739  10.315  15.476   3.989  0.0673 -0.2352 -0.1802
 9266W        W25740   1.526  18.130   2.022 -0.1277  0.1404 -0.1059
 9267W        W25741  11.617  16.770   5.198  0.2591  0.1593  0.3367
 9268W        W25742   8.479   5.370  12.669  0.0313 -0.2155 -0.0440
 9269W        W25743   5.156   0.590  13.479 -0.1340  0.1121  0.1385
 9270W        W25744   8.848  17.050   2.054 -0.3673  0.2621 -0.4528
 9271W        W25745  10.315  14.124  14.487  0.0740 -0.5172  0.0877
 9272W        W25746   7.718  12.127  14.006  0.0990  0.5385 -0.0056
 9273W        W25747  10.361   1.983   4.542 -0.0545  0.0865 -0.1712
 9274W        W25748  15.136   9.180   0.605  0.1146  0.0628 -0.0765
 9275W        W25749   5.752   6.472   3.662  0.0283  0.0653 -0.1236
 9276W        W25750   5.542  13.342   3.387  0.2963 -0.1595  0.1321
 9277W        W25751   5.546   6.892  12.808  0.0696 -0.0581 -0.1534
 9278W        W25752  15.280   7.521   2.736  0.1581 -0.2134 -0.2107
 9279W        W25753  10.396  10.974   2.874 -0.0394 -0.0318 -0.2289
 9280W        W25754   5.157   3.761  15.291 -0.0348 -0.1460  0.2592
 9281W        W25755   4.778   0.781   3.207  0.0638 -0.1003 -0.0851
 9282W        W25756  13.238  10.114  12.610 -0.3152 -0.1384 -0.0014
 9283W        W25757  17.224  13.996  14.104  0.1901  0.0118 -0.2145
 9284W        W25758  15.280   6.011   2.256 -0.1158  0.0539  0.2750
 9285W        W25759  11.298   9.883  14.858 -0.1726  0.0411  0.0226
 9286W        W25760   6.078  14.222  14.047 -0.0891 -0.2581 -0.0792
 9287W        W25761  14.329  14.583  14.901  0.2053  0.0881 -0.3458
 9288W        W25762  10.891   9.005   0.740 -0.0661 -0.0820 -0.2513
 9289W        W25763   7.833   2.375   0.720 -0.1708  0.0165 -0.1322
 9290W        W25764  15.276   5.537   4.633 -0.0967  0.0232 -0.2070
 9291W        W25765  12.736  16.223  13.709 -0.3834  0.0645 -0.3872
 9292W        W25766   5.992  16.372  15.405 -0.1021  0.3299  0.0062
 9293W        W25767  15.448   2.334   3.863  0.1406  0.1889 -0.0540
 9294W        W25768   3.589  16.011   0.843  0.5314  0.0158  0.1348
 9295W        W25769   0.634   9.117  14.514 -0.0030 -0.0488 -0.1229
 9296W        W25770  16.695  15.882  13.176  0.0952  0.0942  0.0455
 9297W        W25771   5.511   0.608  15.141  0.1158 -0.1334 -0.0599
 9298W        W25772  14.918   7.662  11.619  0.1420  0.0153 -0.2740
 9299W        W25773   9.716  17.115  10.800 -0.2755 -0.1673 -0.1657
 9300W        W25774   7.803   0.168  11.008 -0.1845  0.3869  0.0310
 9301W        W25775   5.489   3.798   3.458  0.0826  0.0233 -0.1503
 9302W        W25776  12.661  16.382  12.386  0.1707 -0.2141  0.1001
 9303W        W25777   5.062   7.561   0.996 -0.0288 -0.1219  0.3006
 9304W        W25778  15.214  10.948   0.613  0.2087  0.2918  0.0877
 9305W        W25779  14.327   0.198  11.339 -0.0123 -0.1398 -0.1811
 9306W        W25780   3.789   8.810  11.934 -0.0539  0.1300  0.0176
 9307W        W25781   0.983  16.204   1.550  0.1449 -0.0682  0.1203
 9308W        W25782   5.541   5.064  13.856  0.3947  0.0642  0.0399
 9309W        W25783   5.440   3.106   1.133 -0.0639  0.0020  0.1821
 9310W        W25784  18.710  11.989   2.232 -0.2773  0.0919 -0.2883
 9311W        W25785   4.618  10.912  13.405 -0.1490 -0.2137  0.1699
 9312W        W25786  15.083  10.905  12.822  0.2147  0.1713 -0.2827
 9313W        W25787  15.635  11.860  13.542  0.1101 -0.2391 -0.0916
 9314W        W25788  10.823   5.884   1.373 -0.2364 -0.0973 -0.0385
 9315W        W25789   4.455  10.809  15.229  0.2991 -0.1132  0.0872
 9316W        W25790   2.537   2.581   0.849  0.0353  0.1613  0.2877
 9317W        W25791   1.823  13.484  15.089 -0.2093 -0.3545  0.4259
 9318W        W25792  10.239  14.721   3.364 -0.1960  0.2911 -0.2871
 9319W        W25793   0.778   7.523  13.301  0.1973 -0.2316 -0.1151
 9320W        W25794   7.363   0.917   4.079  0.1743  0.0869 -0.1047
 9321W        W25795   6.404   5.248  11.074  0.0326  0.2584  0.1214
 9322W        W25796   1.089   4.686  14.661  0.1365 -0.0038 -0.1366
 9323W        W25797   3.311   2.813  13.918 -0.1378 -0.2554 -0.0034
 9324W        W25798  13.596   9.538   1.998  0.0414 -0.3575  0.0458
 9325W        W25799   3.351   1.225   9.747  0.0304  0.1414 -0.1492
 9326W        W25800   0.455   9.592  14.621  0.0132  0.0923  0.3958
 9327W        W25801  15.161   8.482  14.860 -0.1760  0.0342  0.0330
 9328W        W25802   9.377  12.953  13.588 -0.1202  0.1520 -0.0357
 9329W        W25803   0.101   0.005  11.832 -0.0114 -0.0885 -0.2338
 9330W        W25804  10.535  11.030   4.180 -0.0358  0.0141 -0.2509
 9331W        W25805   3.640   5.145  11.294  0.1410 -0.1559  0.0794
 9332W        W25806   2.609   2.402  12.598  0.0387  0.0281  0.2373
 9333W        W25807   8.915  17.299   0.451 -0.0761  0.3225 -0.0892
 9334W        W25808   5.395  10.588  13.502  0.0837 -0.0521  0.0109
 9335W        W25809  12.989   2.552   2.896  0.1963 -0.2354 -0.2126
 9336W        W25810   3.469   7.243   2.913 -0.2427  0.2879  0.0637
 9337W        W25811  16.844   1.409   2.472  0.0023 -0.5064  0.1010
 9338W        W25812   6.793   9.174  12.979 -0.2405  0.1384 -0.0967
 9339W        W25813  13.093  14.856  10.997  0.2491  0.1148  0.1580
 9340W        W25814  17.060  10.345   2.509  0.1329  0.0674 -0.1793
 9341W        W25815   6.650   3.549  14.435 -0.1951 -0.1178 -0.2306
 9342W        W25816   2.816  18.498   2.596  0.1460  0.0019 -0.2823
 9343W        W25817   3.433  18.566  12.075 -0.2234  0.1122  0.1296
 9344W        W25818   3.809   2.934  11.924  0.1309  0.3138 -0.0432
 9345W        W25819   6.126  15.487  13.920  0.2075  0.1429 -0.0681
 9346W        W25820   9.723   2.520   1.237 -0.0961 -0.0138  0.1687
 9347W        W25821  16.406   6.606  14.395 -0.1760  0.3993  0.0258
 9348W        W25822  18.632   4.474  13.874 -0.0369  0.0748 -0.2720
 9349W        W25823  18.097   4.991   5.227 -0.1841 -0.3102 -0.4370
 9350W        W25824   8.073   6.894   4.269  0.1487 -0.3092  0.1298
 9351W        W25825  14.226  14.917   3.649  0.3327 -0.0852 -0.0241
 9352W        W25826   1.997   1.490  10.616  0.0257 -0.1235 -0.1971
 9353W        W25827   6.264  12.823  13.981 -0.1613  0.0478  0.1639
 9354W        W25828  14.659   0.652  13.428 -0.0437  0.1394 -0.0933
 9355W        W25829  13.565   6.479   2.905 -0.1817 -0.0017  0.1445
 9356W        W25830  14.405   6.405   1.461  0.1080  0.2085 -0.1700
 9357W        W25831   6.365   3.549  10.501  0.1335  0.2049 -0.1285
 9358W        W25832  15.403  12.608   5.582  0.1121  0.1158  0.0336
 9359W        W25833   9.617  18.352  10.904  0.2735  0.1097 -0.1526
 9360W        W25834  12.615  18.777   4.918  0.4659 -0.4760 -0.0709
 9361W        W25835  11.056   8.267  12.860  0.0776 -0.0609 -0.1236
 9362W        W25836   1.291  13.882   2.736  0.0180 -0.0294  0.2345
 9363W        W25837  10.090   3.185   2.503 -0.1103  0.0060 -0.0125
 9364W        W25838   3.857  17.280  14.412 -0.1028 -0.0424  0.0844
 9365W        W25839   9.887  13.306  15.141 -0.0472  0.0229  0.0991
 9366W        W25840   1.865  13.295   5.215  0.1946  0.0060  0.1007
 9367W        W25841   8.027  14.159  12.787 -0.0656  0.1539 -0.1575
 9368W        W25842  14.839   3.154   3.077  0.2310 -0.0606  0.1343
 9369W        W25843  13.509   7.903  12.828  0.0904 -0.0133 -0.3121
 9370W        W25844  17.862  17.899   3.039  0.1772  0.0264 -0.0435
 9371W        W25845   0.705  10.493   2.214  0.0197  0.0082  0.0785
 9372W        W25846  10.768   2.660  14.396  0.1809 -0.0825  0.0094
 9373W        W25847  17.088   7.406  11.455  0.3653 -0.0258 -0.1313
 9374W        W25848  14.267  18.486  12.158  0.2492  0.1302  0.2566
 9375W        W25849   8.127  15.457   2.684 -0.2016  0.1789  0.1572
 9376W        W25850   5.926  15.807   0.585  0.0843  0.1135 -0.2223
 9377W        W25851  11.675   3.638   4.877  0.2006 -0.0137 -0.0239
 9378W        W25852   7.434  16.188   2.458 -0.2151  0.2152 -0.0826
 9379W        W25853  17.333  10.941   1.089 -0.0950  0.2229  0.1656
 9380W        W25854   4.746   9.962   0.019 -0.3411  0.0567 -0.2514
 9381W        W25855   2.706   2.588   5.201 -0.2633 -0.0263 -0.0196
 9382W        W25856   7.214   3.631   3.627 -0.3218  0.2666 -0.3892
 9383W        W25857   8.055  11.653  15.331  0.2750  0.0671 -0.0623
 9384W        W25858   0.906   6.427   2.355  0.1772  0.1505  0.1231
 9385W        W25859   4.257   7.394  11.453  0.1580  0.0702 -0.1189
 9386W        W25860   0.385   4.600  11.098  0.2046 -0.1261  0.2858
 9387W        W25861   6.266   6.699   0.534  0.0952 -0.1376 -0.0847
 9388W        W25862  12.835  16.534  11.005 -0.0652  0.0220 -0.0309
 9389W        W25863   0.626   6.824   3.755 -0.2265  0.1723  0.0535
 9390W        W25864  15.774   3.362   4.738 -0.0925  0.1992  0.0107
 9391W        W25865  15.184  16.735   2.216  0.0371  0.0898  0.0774
 9392W        W25866   8.545  18.013  14.585 -0.0239  0.0034 -0.1126
 9393W        W25867   1.946   2.888  15.399 -0.4245 -0.1059  0.4242
 9394W        W25868   2.684  15.415  13.558  0.1390  0.0402 -0.0218
 9395W        W25869   5.878  11.302   2.956  0.0879  0.0607 -0.0081
 9396W        W25870   5.680  15.066   3.691  0.2687  0.1550  0.0181
 9397W        W25871  15.276   1.104   2.603 -0.1103 -0.1093 -0.2146
 9398W        W25872   5.043   7.705  10.778  0.3930  0.1215 -0.1861
 9399W        W25873  12.071   5.216   4.771  0.0880  0.0841 -0.0085
 9400W        W25874   2.260  14.303  15.113  0.0442  0.1155 -0.0953
 9401W        W25875  17.349   7.224   4.197 -0.2256 -0.0150  0.0746
 9402W        W25876  16.731  12.641  14.035  0.3693  0.1971  0.3025
 9403W        W25877   0.245   4.685  14.244  0.1840  0.1066 -0.0061
 9404W        W25878   7.393  16.961   0.691  0.0589 -0.0487  0.1321
 9405W        W25879  10.774   3.088  13.510 -0.0244  0.2210 -0.0032
 9406W        W25880   2.797   3.397  12.670  0.1332  0.1014  0.1442
 9407W        W25881   3.710   4.708   2.924  0.0775  0.0468  0.1234
 9408W        W25882   7.113   5.747   3.857  0.2266  0.0907  0.1517
 9409W        W25883  15.683  13.006  12.090 -0.1645  0.0285 -0.3041
 9410W        W25884  15.413  12.617  14.157 -0.1491  0.0950 -0.1018
 9411W        W25885   6.545  12.258  10.435 -0.1145  0.1149  0.1477
 9412W        W25886   7.315   3.002  13.177  0.3658  0.2875  0.2345
 9413W        W25887   8.653  17.997  13.179  0.0326  0.0015 -0.4019
 9414W        W25888  15.644   6.289   0.010  0.0478 -0.1544 -0.0591
 9415W        W25889  17.248  17.268   3.043 -0.1561 -0.1343  0.0379
 9416W        W25890  16.049  13.204   1.466  0.0534  0.2544 -0.1237
 9417W        W25891  15.392  12.772   5.084  0.2254  0.1269  0.0374
 9418W        W25892  13.914   6.651   4.880  0.1450  0.1278 -0.1545
 9419W        W25893  16.776   6.764  13.634  0.1381  0.1897  0.0386
 9420W        W25894   7.841   9.774   0.946  0.1331 -0.1393  0.0562
 9421W        W25895  13.125  15.870  13.516 -0.1136 -0.0864  0.1202
 9422W        W25896   6.391   5.728  14.245  0.0305 -0.2486  0.0872
 9423W        W25897  13.134  10.834  14.541  0.2976 -0.1091 -0.1458
 9424W        W25898   7.850  12.840   0.206 -0.1522  0.1473 -0.1535
 9425W        W25899   5.003  16.249   1.536  0.0402  0.1742 -0.2288
 9426W        W25900   3.291   0.963   0.482  0.1296 -0.1274 -0.1326
 9427W        W25901   9.083   0.159   1.661 -0.1799 -0.0694  0.1813
 9428W        W25902   1.758   1.835  14.575 -0.0217 -0.4563  0.0013
 9429W        W25903  18.773  18.517   4.485 -0.1508  0.0075 -0.3148
 9430W        W25904  17.470  15.485   4.329  0.0457 -0.2324  0.0757
 9431W        W25905  11.954   8.919   1.709 -0.2367 -0.3368 -0.0152
 9432W        W25906   2.006   5.398  12.280 -0.3060 -0.0494  0.1038
 9433W        W25907   1.170   5.996   2.308  0.0635 -0.1874 -0.3342
 9434W        W25908   6.798   2.566   3.790  0.0991 -0.1516  0.1744
 9435W        W25909  12.923   8.558  15.262 -0.0468 -0.0578 -0.0472
 9436W        W25910   0.108   6.393   4.926  0.0670 -0.1462  0.0869
 9437W        W25911   5.870  17.806   0.219 -0.0815  0.0619  0.1939
 9438W        W25912   4.139  11.312  13.848 -0.2600 -0.0061 -0.0254
 9439W        W25913  10.042  13.579   4.796  0.4089  0.0462  0.0388
 9440W        W25914  18.107  10.342  13.796 -0.4851 -0.0685 -0.0875
 9441W        W25915  12.891  10.345   1.365  0.0345  0.2050  0.3039
 9442W        W25916   0.361   9.462   5.497  0.0465 -0.0481 -0.3054
 9443W        W25917  12.278  10.054   0.906  0.0974  0.1460  0.1081
 9444W        W25918   8.455  10.761   3.379  0.0010  0.0534 -0.1909
 9445W        W25919   8.868   3.979   4.188 -0.2639  0.4070 -0.1274
 9446W        W25920   3.838   1.517  13.240  0.4545 -0.0130 -0.0011
 9447W        W25921  11.268   5.749   4.467 -0.0212  0.0303  0.0446
 9448W        W25922  18.001  18.086  15.504  0.2253  0.2278  0.1761
 9449W        W25923   6.943  13.728   3.296 -0.0402 -0.1174  0.2010
 9450W        W25924  13.937   3.657   1.541  0.0520  0.1867 -0.0010
 9451W        W25925   7.707  15.542  15.472 -0.0427  0.1034 -0.2321
 9452W        W25926  17.431   8.821  14.563  0.2404 -0.0831 -0.0129
 9453W        W25927  14.453   2.730  15.021  0.0384 -0.0917  0.1597
 9454W        W25928  16.990   4.204  12.585  0.0193  0.0951 -0.1613
 9455W        W25929   3.486  12.983   2.998 -0.1739 -0.3458 -0.1294
 9456W        W25930  13.940  10.853  12.773  0.0381 -0.1956 -0.2206
 9457W        W25931   2.726   6.360   9.863  0.0603  0.0079  0.2754
 9458W        W25932  11.475   0.426  13.206  0.0068  0.1000 -0.4360
 9459W        W25933  16.736  12.903   2.701 -0.0050  0.1113  0.1071
 9460W        W25934  13.637   3.592   5.306  0.0749  0.2024 -0.3631
 9461W        W25935   1.762   8.686  15.492  0.1465  0.0784  0.0424
 9462W        W25936   9.657   3.231  12.848  0.2073  0.1723  0.0066
 9463W        W25937   2.110  14.917   3.234  0.2059 -0.0245 -0.0116
 9464W        W25938  12.301   8.182   4.548 -0.0925  0.1586  0.1322
 9465W        W25939   5.971   8.626   2.123 -0.1008 -0.4308  0.0637
 9466W        W25940  17.150   5.684  14.133 -0.1831  0.0866  0.1997
 9467W        W25941  17.099   2.536  14.366  0.0173  0.0701 -0.0287
 9468W        W25942   9.912  15.737  11.149  0.0730  0.2108  0.3025
 9469W        W25943   4.501   0.600  14.951  0.1712 -0.0474  0.1065
 9470W        W25944  16.944   2.531  12.093  0.0512 -0.1607  0.1095
 9471W        W25945  11.807  13.855   0.835 -0.5360  0.0397  0.1663
 9472W        W25946   0.484  14.013   4.661 -0.0008  0.0006  0.2575
 9473W        W25947  13.323  14.812   2.899  0.0088  0.0080 -0.4015
 9474W        W25948   2.703   8.054  10.536  0.3065  0.0304 -0.2945
 9475W        W25949   5.679  12.744   3.979  0.0709  0.0727  0.0461
 9476W        W25950  15.522   4.213  11.457  0.1230  0.0017  0.0497
 9477W        W25951  17.871  16.744   4.083 -0.1129 -0.0539 -0.1333
 9478W        W25952   7.462  12.872  15.430 -0.1613 -0.1338  0.0005
 9479W        W25953  12.787   0.899   5.127 -0.0996  0.2380  0.2886
 9480W        W25954   9.293   3.031  14.722  0.1096 -0.1451 -0.0528
 9481W        W25955  16.249   1.188  10.237 -0.1427  0.3317 -0.0690
 9482W        W25956   5.100  12.172   0.679  0.0035  0.0779 -0.0127
 9483W        W25957  13.461   2.622  11.929  0.0221 -0.2358  0.2495
 9484W        W25958   7.268  16.183   1.863  0.5421 -0.1769  0.1934
 9485W        W25959  13.333  13.907  15.464 -0.1553  0.0006 -0.4052
 9486W        W25960  14.941  18.284  12.828  0.1171  0.0308 -0.1441
 9487W        W25961   3.779  13.877   2.575 -0.1376  0.1124  0.3048
 9488W        W25962  12.078   3.381   0.026 -0.2353 -0.1006 -0.1862
 9489W        W25963   3.905  14.900   2.885 -0.1993  0.0864 -0.4287
 9490W        W25964   6.834  12.515   1.848  0.0081  0.0865  0.0916
 9491W        W25965  11.472  12.919   1.259  0.2627  0.1766  0.2130
 9492W        W25966  14.433  16.656   0.076  0.1530  0.0270  0.0997
 9493W        W25967   7.769  17.278   3.726 -0.2066  0.1489  0.1707
 9494W        W25968   4.622   1.161  14.792 -0.2854 -0.0809  0.1499
 9495W        W25969   7.322   0.029   2.675  0.1113  0.2730 -0.0609
 9496W        W25970   4.729   3.353   1.531 -0.0982  0.0328  0.0052
 9497W        W25971  16.133  12.441  13.313 -0.2214 -0.1470 -0.0996
 9498W        W25972   0.361  13.350  12.381  0.0858 -0.0191 -0.0741
 9499W        W25973  10.557   8.877  11.093  0.1390  0.3541 -0.2285
 9500W        W25974   9.728   1.872  14.796  0.1680  0.0511  0.1892
 9501W        W25975   7.961   2.224  15.544 -0.1347  0.0571 -0.2450
 9502W        W25976  18.589  10.972   1.903 -0.1028 -0.0996  0.0746
 9503W        W25977   3.577  12.538   0.059 -0.3042 -0.2680  0.0820
 9504W        W25978  12.891   1.039  14.836 -0.1406 -0.0019  0.2158
 9505W        W25979  11.147  12.922   1.989 -0.0247  0.3187 -0.2838
 9506W        W25980   4.930   4.248  14.435 -0.0312 -0.1004  0.2673
 9507W        W25981   0.087   6.970   3.856 -0.3658  0.1771 -0.2579
 9508W        W25982  15.474   1.555  11.684  0.0932 -0.2536  0.1728
 9509W        W25983  13.536  11.536  14.773  0.1974  0.3364  0.0062
 9510W        W25984  13.768   6.550  13.613  0.1326 -0.1879  0.0927
 9511W        W25985   7.326   7.076   2.801  0.0597  0.1645 -0.3157
 9512W        W25986  10.211  11.035   1.023  0.0356 -0.0208  0.3645
 9513W        W25987  14.827   6.021   1.948  0.1474 -0.0360  0.2371
 9514W        W25988   2.913  14.707   2.778 -0.2337  0.1699  0.0768
 9515W        W25989  17.759   6.096  15.485  0.1361 -0.0215 -0.1057
 9516W        W25990  16.977   7.006  11.862  0.2138 -0.2141 -0.1031
 9517W        W25991   8.835   0.002   4.450 -0.1231 -0.1398 -0.0817
 9518W        W25992  15.908  18.376  14.204 -0.0297  0.1219  0.0247
 9519W        W25993  14.275  10.852  15.229 -0.2638  0.3244  0.0357
 9520W        W25994  11.624   1.051  14.543 -0.1047  0.2788  0.0303
 9521W        W25995   9.203   2.333  14.173  0.0276  0.1111  0.0676
 9522W        W25996   7.119   8.781   3.592  0.0288  0.1958  0.1326
 9523W        W25997   2.982   4.070  13.802  0.0819  0.1240 -0.0538
 9524W        W25998  17.415   4.802  14.146 -0.0295  0.0367 -0.2844
 9525W        W25999   5.239   6.341  11.541 -0.0280 -0.1517  0.0153
 9526W        W26000   9.854   5.512  13.765  0.3134 -0.1892  0.1248
 9527W        W26001   6.486  12.538  13.227 -0.1952 -0.4349 -0.2216
 9528W        W26002   9.580  14.973  15.409 -0.1476 -0.0277  0.2456
 9529W        W26003  13.701   6.419  14.351 -0.1668  0.1638  0.2450
 9530W        W26004   1.191  15.447  13.484 -0.0984  0.2096  0.4569
 9531W        W26005  14.575  17.338   1.475  0.0746  0.1670 -0.0028
 9532W        W26006  12.209   6.898   3.968 -0.1629  0.0820 -0.3193
 9533W        W26007   8.153   4.278   1.296  0.0204  0.0798 -0.0388
 9534W        W26008   5.298   1.485  15.141 -0.2195 -0.2892  0.1709
 9535W        W26009  13.644  14.674  12.531  0.0819 -0.3485  0.3289
 9536W        W26010  10.836   9.319   5.510 -0.2260 -0.0697 -0.1359
 9537W        W26011   3.281   4.223  13.464 -0.3135 -0.1612  0.1856
 9538W        W26012   2.938  18.204  14.258 -0.2023  0.0995 -0.2886
 9539W        W26013  13.772  14.937   2.062  0.3514  0.5689 -0.0271
 9540W        W26014   8.432   7.008  15.423  0.0460  0.0159 -0.0171
 9541W        W26015   9.659   4.320  11.981 -0.1120 -0.0009  0.3682
 9542W        W26016   3.021   9.712  14.395  0.2113  0.0235 -0.2343
 9543W        W26017   3.303  17.615   1.820 -0.1208 -0.0011  0.0201
 9544W        W26018  16.344   7.197  10.925 -0.1704 -0.2133  0.3560
 9545W        W26019   0.903  13.382   3.389  0.0484 -0.1434  0.1352
 9546W        W26020   7.838   4.726  13.721  0.0703 -0.2118 -0.0124
 9547W        W26021   9.682  13.072  12.652  0.0054 -0.1283 -0.0416
 9548W        W26022   7.366   6.871  10.791  0.1438  0.0299  0.2192
 9549W        W26023   0.555  15.711  11.254 -0.1958  0.2962  0.0129
 9550W        W26024  13.075  11.279  10.363  0.0272  0.3124 -0.1247
 9551W        W26025   7.173   7.630  11.244 -0.0534 -0.0059  0.0968
 9552W        W26026  11.241  17.738  15.224 -0.0754 -0.0644  0.2538
 9553W        W26027  13.350   8.406  14.960 -0.0953 -0.0821 -0.2563
 9554W        W26028  13.692   4.975   0.827  0.0709 -0.1907 -0.0340
 9555W        W26029  13.286  17.395   2.651 -0.0785  0.0057 -0.3490
 9556W        W26030   9.055   7.255   0.897  0.1512  0.1330  0.0614
 9557W        W26031   2.242   9.529   0.095  0.4799  0.1394 -0.2617
 9558W        W26032  18.424  16.840   2.444  0.0467 -0.2591  0.0624
 9559W        W26033   7.721  10.433  13.081  0.1632 -0.1803  0.1764
 9560W        W26034  16.530   1.825  14.807  0.0392 -0.2063 -0.1131
 9561W        W26035  16.121   3.434  13.996 -0.0173  0.2880 -0.1810
 9562W        W26036   3.995  11.988   0.706 -0.1169  0.0395  0.0175
 9563W        W26037   2.287  11.945  10.741  0.1067  0.0458 -0.0271
 9564W        W26038   5.885   3.659  10.568  0.1473  0.2883 -0.0596
 9565W        W26039   1.617  18.177   3.976 -0.2127  0.2296 -0.1781
 9566W        W26040  10.991   7.965  13.784 -0.0130 -0.0375  0.1352
 9567W        W26041   5.242   3.453  12.384  0.0325  0.0770  0.3974
 9568W        W26042  16.523  13.380   4.123  0.0086 -0.0980 -0.3131
 9569W        W26043  17.202  15.106  11.531  0.0188  0.1417 -0.2134
 9570W        W26044   9.325   5.370  13.880  0.0687  0.0122  0.1384
 9571W        W26045  11.429   9.315   2.434 -0.1319  0.0524 -0.0911
 9572W        W26046  13.049  11.190   2.604  0.1317  0.3147 -0.0485
 9573W        W26047  12.930  18.424  11.705  0.1877 -0.0495  0.0527
 9574W        W26048  14.903  11.281   4.295  0.0285 -0.3906  0.2769
 9575W        W26049   0.494   5.369  11.517 -0.1796 -0.1722  0.1349
 9576W        W26050   7.460   6.566   5.078 -0.0840  0.4416 -0.0445
 9577W        W26051   0.151  10.605   2.184 -0.0068 -0.1411 -0.1318
 9578W        W26052  14.293   8.151   4.082  0.0732  0.1008  0.4905
 9579W        W26053   9.260   9.255   2.044  0.0218  0.1942  0.0635
 9580W        W26054   7.086  17.706   1.631 -0.0485  0.1900 -0.1454
 9581W        W26055  18.136   2.565  14.448 -0.1650  0.1247 -0.0356
 9582W        W26056  16.116   0.565   4.839 -0.0462  0.0970 -0.0215
 9583W        W26057   7.445  15.442   1.214 -0.1556 -0.0028 -0.0062
 9584W        W26058   8.821   7.113   2.410 -0.1676 -0.1370 -0.2723
 9585W        W26059   3.191   8.412   2.859 -0.2027  0.1350  0.1446
 9586W        W26060  13.550   4.241   3.564 -0.0120  0.0428  0.1410
 9587W        W26061   8.684   0.960   3.199 -0.0401  0.2357  0.1961
 9588W        W26062   5.939  16.797  15.140 -0.1554  0.3227  0.0570
 9589W        W26063  10.109  13.800  11.592 -0.0103 -0.3526  0.0500
 9590W        W26064  16.007   6.417  12.843 -0.4451  0.2649 -0.0511
 9591W        W26065   5.427  16.694  10.946  0.4664  0.2319 -0.1738
 9592W        W26066   4.792   2.744  13.307 -0.2234 -0.0370 -0.0525
 9593W        W26067  12.016  16.701   2.366 -0.0917 -0.0385  0.3187
 9594W        W26068   8.648  15.509  15.362 -0.0803  0.3122  0.0366
 9595W        W26069   8.152   0.018  12.936  0.0051  0.1707  0.2626
 9596W        W26070   4.631   2.328   1.910 -0.0652 -0.3186 -0.0662
 9597W        W26071  16.181   6.071  10.230 -0.1265 -0.2155  0.2361
 9598W        W26072   6.596   0.544   2.882  0.2913  0.1850 -0.1250
 9599W        W26073   3.303  16.544   2.584 -0.1388 -0.2387  0.2789
 9600W        W26074   5.748  13.853   3.309  0.0684  0.1076 -0.0557
 9601W        W26075   6.001   5.138   0.375 -0.5022  0.0303  0.0218
 9602W        W26076  14.289  12.956  15.456  0.4030  0.4290 -0.1319
 9603W        W26077  14.645  16.907  14.352 -0.2844 -0.0406  0.0610
 9604W        W26078   4.225  16.425  14.154  0.3358  0.0125  0.0538
 9605W        W26079  12.504  10.213   3.425  0.0508  0.1128  0.0746
 9606W        W26080   1.238   4.418   2.988  0.0263 -0.1095 -0.1941
 9607W        W26081  12.407   1.129   1.585 -0.2108 -0.2042 -0.0885
 9608W        W26082  15.601   0.965  15.446 -0.3521  0.1269 -0.2449
 9609W        W26083  13.666   1.360  12.780  0.2023  0.2061  0.2213
 9610W        W26084  13.459  11.874  11.739 -0.0053  0.0507  0.0957
 9611W        W26085  15.691   5.719  15.266  0.0002 -0.1509  0.0157
 9612W        W26086  14.528  14.042   1.933 -0.1718  0.2380 -0.0740
 9613W        W26087  15.847   0.063   0.342 -0.1230  0.1326 -0.0610
 9614W        W26088   2.138   0.125   2.958 -0.0574  0.0985 -0.0066
 9615W        W26089   5.030   7.302  14.421 -0.1339  0.0402  0.0220
 9616W        W26090   2.657   3.981   3.632  0.1713 -0.1888  0.2634
 9617W        W26091   2.267   2.507  11.881  0.1869  0.2387  0.1999
 9618W        W26092   3.331  12.580  10.675 -0.0716 -0.1763 -0.0693
 9619W        W26093   5.676   6.167   5.157 -0.2215  0.0084 -0.2131
 9620W        W26094  14.370   2.184   2.413  0.1179  0.0583 -0.0083
 9621W        W26095   2.400   3.181  12.429 -0.2367  0.2192 -0.0753
 9622W        W26096  12.172  12.256   0.173  0.2013 -0.0971 -0.2075
 9623W        W26097  17.368   9.811  13.051  0.0469 -0.0242 -0.5752
 9624W        W26098  10.344  12.081   0.561  0.1406 -0.1097 -0.2059
 9625W        W26099   1.113  17.915  14.372  0.1133  0.4284 -0.1478
 9626W        W26100  11.402  13.187  13.074 -0.3585  0.1109 -0.0718
 9627W        W26101   3.606   5.026  14.402 -0.3008  0.0135  0.2105
 9628W        W26102  12.855  13.114  14.299 -0.2006 -0.0171 -0.1683
 9629W        W26103  17.740   3.394   0.150  0.3558  0.1751 -0.1727
 9630W        W26104   4.617   6.587   3.855 -0.1749 -0.0891  0.2202
 9631W        W26105   9.722   8.061  14.912 -0.0485  0.0594  0.0118
 9632W        W26106   6.286   2.677   3.935  0.1176  0.1006  0.0811
 9633W        W26107   7.388  18.087   3.303  0.3284  0.1361 -0.3714
 9634W        W26108  10.248   0.077  12.292  0.0038 -0.0833  0.1877
 9635W        W26109  11.244  11.589  12.833  0.3457 -0.1051 -0.1189
 9636W        W26110   4.927   2.576   3.654 -0.0869 -0.2269 -0.1848
 9637W        W26111  18.383   0.783   4.706  0.0688  0.0727 -0.1554
 9638W        W26112  10.641  13.547  11.754  0.1359  0.2108  0.0613
 9639W        W26113  10.303  11.320   2.473 -0.2447 -0.0787  0.1275
 9640W        W26114   8.965  12.826  14.595  0.0381 -0.0884 -0.0372
 9641W        W26115   0.588  18.560  11.772  0.0009 -0.2214 -0.0573
 9642W        W26116  17.540  18.741   1.877  0.1270  0.1537 -0.2125
 9643W        W26117   2.208   6.892   1.278  0.1418  0.2265 -0.2397
 9644W        W26118   9.286   4.661   3.819  0.1914  0.2339  0.2319
 9645W        W26119   5.706   5.555  13.128  0.0862 -0.0870  0.1246
 9646W        W26120   5.096   7.954   2.831 -0.2108 -0.1175 -0.0109
 9647W        W26121   3.747  15.191  15.425 -0.0173 -0.0692 -0.1221
 9648W        W26122   7.325  11.222  10.553  0.0529  0.0531 -0.3756
 9649W        W26123   2.539  16.186  13.859  0.0452 -0.0478 -0.3521
 9650W        W26124   0.722   1.381   0.063 -0.1544 -0.1419 -0.0063
 9651W        W26125  13.271  12.218  12.058 -0.0176 -0.0175 -0.0229
 9652W        W26126   4.113  13.803  15.173 -0.1331 -0.0142  0.3263
 9653W        W26127   9.849   8.668  14.907  0.0797  0.1347  0.1089
 9654W        W26128   9.865   4.165  14.581  0.3631  0.2492 -0.0080
 9655W        W26129   3.047   8.204   2.408 -0.2183  0.3036 -0.0303
 9656W        W26130   9.929  18.190  13.167  0.0721 -0.0889  0.1691
 9657W        W26131   8.180  17.199   1.535 -0.1391 -0.0148 -0.2495
 9658W        W26132   3.509  11.997   2.564 -0.0244 -0.1726 -0.0090
 9659W        W26133   3.373   4.087   0.963  0.1659 -0.1234  0.1365
 9660W        W26134  10.328   0.744  14.700 -0.0444 -0.0008  0.2137
 9661W        W26135   4.981   5.809   2.967  0.1078  0.0229  0.0747
 9662W        W26136   7.285   2.807   3.573  0.0355 -0.1221  0.0059
 9663W        W26137   3.853   8.323   0.406 -0.0754  0.1459 -0.1082
 9664W        W26138   5.705   0.754  10.617 -0.1312  0.0704 -0.2234
 9665W        W26139   8.619  10.594  12.781 -0.0341  0.3507 -0.2455
 9666W        W26140   5.610  14.343  12.792  0.3088  0.1413  0.0320
 9667W        W26141   2.433  11.910  11.700  0.1125 -0.0367  0.1083
 9668W        W26142   5.464  18.471  11.133  0.2111  0.0771  0.0435
 9669W        W26143   5.769   9.871   0.285 -0.1252 -0.0197 -0.0386
 9670W        W26144   2.997   5.108   4.539 -0.0109  0.2264  0.3270
 9671W        W26145   0.892  11.824  10.712  0.2948  0.0133 -0.1745
 9672W        W26146   2.373  18.612  11.224 -0.1254  0.1581  0.0512
 9673W        W26147  18.532  17.922  10.885  0.0192 -0.0077  0.1732
 9674W        W26148   6.336   8.747   1.037 -0.0962  0.0468  0.1255
 9675W        W26149   8.207  14.096   4.548 -0.3704 -0.1719  0.1939
 9676W        W26150   4.231   5.903   4.959  0.1174  0.3629 -0.0538
 9677W        W26151  11.359   8.351  13.399  0.2454 -0.2103 -0.0077
 9678W        W26152   3.230  12.015  12.895  0.2306 -0.0389 -0.0876
 9679W        W26153   9.411   9.012   0.701 -0.2308 -0.1647 -0.1400
 9680W        W26154  14.360   9.479  11.041 -0.0627 -0.0225  0.0880
 9681W        W26155   9.862  13.381   5.242  0.0319  0.2098 -0.0588
 9682W        W26156   2.707  11.405   5.471 -0.1625  0.3172  0.1111
 9683W        W26157   9.423  14.909   2.195  0.2140  0.2652 -0.0002
 9684W        W26158   2.683   9.906   2.370 -0.1936 -0.0529 -0.0086
 9685W        W26159   6.924   6.502   5.021  0.0482 -0.0272  0.0714
 9686W        W26160   8.367  17.876  14.128 -0.1732  0.1314 -0.1222
 9687W        W26161  16.349  17.738   2.661  0.1679 -0.2154  0.0374
 9688W        W26162   3.469  17.810   4.285 -0.1044  0.0329 -0.3338
 9689W        W26163  12.369   8.064   0.875  0.0637  0.1265 -0.0403
 9690W        W26164  13.908  18.127  14.496  0.0468 -0.2709  0.0506
 9691W        W26165   3.033   9.685   1.572 -0.0815  0.2187  0.1829
 9692W        W26166   0.236  13.433   1.089 -0.1304  0.1935 -0.0250
 9693W        W26167  14.053   9.582   4.541 -0.1481  0.3411  0.0164
 9694W        W26168   2.643   2.095   0.637 -0.0747  0.1723 -0.1165
 9695W        W26169  17.532  14.495  11.806 -0.0380  0.1849 -0.1788
 9696W        W26170   4.923  13.052  11.885 -0.0528  0.2291 -0.3979
 9697W        W26171  17.526   3.031   1.905 -0.2632  0.1766  0.0308
 9698W        W26172   8.308  14.761   4.411 -0.1781 -0.0974  0.2402
 9699W        W26173  17.963  16.668   0.109  0.2158  0.1045  0.3191
 9700W        W26174  17.128   1.371   4.138 -0.0142 -0.1847  0.2731
 9701W        W26175  12.731   6.834   3.215  0.2462  0.0788  0.0538
 9702W        W26176  15.602   6.197  12.710  0.0501 -0.1663 -0.3618
 9703W        W26177   8.535  10.753  15.545 -0.3288 -0.3239 -0.0443
 9704W        W26178   6.961   1.506   0.614  0.0939 -0.0046 -0.2533
 9705W        W26179   3.027   9.960  15.483  0.0391  0.1773 -0.0192
 9706W        W26180   7.162  11.215   0.027 -0.2083 -0.1666  0.0618
 9707W        W26181   4.583   1.919  14.723  0.0618 -0.1428  0.2222
 9708W        W26182   7.682  12.054  10.716  0.1401  0.0856  0.0217
 9709W        W26183   3.611   7.657   1.703 -0.2968  0.2895 -0.1220
 9710W        W26184   7.648   4.714   4.635  0.1345 -0.1412  0.0215
 9711W        W26185   6.919  10.936   1.422 -0.0057 -0.0052 -0.1736
 9712W        W26186   6.484  17.139   2.523 -0.1471 -0.2481  0.3349
 9713W        W26187   6.214   9.938   1.679  0.0925  0.2367  0.2350
 9714W        W26188   3.751   1.860  10.783 -0.0380 -0.2316 -0.0631
 9715W        W26189  14.511   5.050   1.594 -0.0928 -0.0542 -0.2519
 9716W        W26190  16.437   6.819   4.918 -0.1448 -0.0934  0.1359
 9717W        W26191   7.224  17.304  14.627  0.3207  0.2497  0.1987
 9718W        W26192   0.354  15.517   4.926  0.2186 -0.3665 -0.3214
 9719W        W26193   8.910   9.174   3.810 -0.0820 -0.1923  0.1981
 9720W        W26194  15.733  17.672   1.641 -0.1933 -0.1307 -0.3473
 9721W        W26195   4.382  16.117  13.049  0.1231  0.1092  0.0947
 9722W        W26196  13.029   9.268  12.018  0.1026  0.0943 -0.3611
 9723W        W26197   5.982  17.874   4.198 -0.1781 -0.2354  0.2199
 9724W        W26198   8.242  11.374   1.908  0.1594 -0.1212  0.0511
 9725W        W26199  16.509   3.887  14.294 -0.1611 -0.1647  0.1870
 9726W        W26200  10.047   8.739  11.163 -0.0203  0.0591  0.2593
 9727W        W26201   9.254  11.861  12.489  0.0537 -0.1034 -0.0647
 9728W        W26202   0.976   0.625  10.535  0.1603  0.0776 -0.0135
 9729W        W26203   1.297  12.185   1.586 -0.0744  0.0956  0.0442
 9730W        W26204  17.701   9.524  12.668  0.1076 -0.0813  0.2419
 9731W        W26205  16.969  13.625   1.926 -0.4749  0.4490 -0.2417
 9732W        W26206   7.297  18.345   0.610  0.0168 -0.1282 -0.1249
 9733W        W26207   4.040   0.939  10.476  0.0923  0.3518 -0.1100
 9734W        W26208   4.044  17.671   0.911 -0.0223  0.2215 -0.0175
 9735W        W26209  14.851   1.543  13.252 -0.0824 -0.1015 -0.1910
 9736W        W26210   2.824  13.140  12.811 -0.3608  0.0194 -0.0282
 9737W        W26211   1.842  12.861  13.383 -0.1846 -0.1288  0.1403
 9738W        W26212   0.036   4.385   1.047 -0.3550  0.2238 -0.0288
 9739W        W26213  10.288   0.667  11.170 -0.0099 -0.0646  0.0746
 9740W        W26214  10.362   5.016  11.595  0.1762  0.4139  0.0453
 9741W        W26215  11.231  10.898   3.808  0.0770 -0.4907 -0.1317
 9742W        W26216  16.601   4.932  11.827 -0.3122  0.2125 -0.1546
 9743W        W26217   2.424   9.743   2.773  0.2043  0.0700  0.1529
 9744W        W26218   8.581   5.286   4.995 -0.1196  0.0586 -0.5508
 9745W        W26219  14.405  16.787  12.912 -0.0839 -0.0258  0.0271
 9746W        W26220   7.562  16.853   1.571  0.0824  0.0470  0.0510
 9747W        W26221   6.201  14.902   5.184 -0.1009  0.1679  0.0455
 9748W        W26222   9.565  18.144  12.169  0.1964  0.0710 -0.5825
 9749W        W26223  12.887   6.189   2.281  0.1644  0.2343  0.0789
 9750W        W26224  12.565   8.070  12.572  0.2122  0.1231  0.1693
 9751W        W26225   4.895  15.483  14.595 -0.1519  0.2621  0.0634
 9752W        W26226   7.180   5.286  10.445  0.2067  0.2045 -0.1804
 9753W        W26227   6.323   5.617   9.520  0.1016  0.3174  0.1929
 9754W        W26228  18.683  12.750  15.335 -0.2261  0.1427  0.2361
 9755W        W26229  13.143  14.116   5.396 -0.1377 -0.3579  0.1344
 9756W        W26230  16.870   4.117   1.468 -0.2121 -0.1548  0.1665
 9757W        W26231   1.788   7.590   3.268 -0.2631 -0.1887  0.0483
 9758W        W26232  17.265  17.332   1.337  0.1052  0.1308 -0.2664
 9759W        W26233  16.450   2.667  11.880 -0.0485 -0.2103 -0.2968
 9760W        W26234   1.481   9.875   2.540 -0.2008 -0.1342  0.1538
 9761W        W26235   2.000   2.092   3.024 -0.0695  0.1613  0.1563
 9762W        W26236  15.750  18.672   1.859  0.1583  0.0600 -0.1855
 9763W        W26237  12.981  15.775  12.544 -0.0767  0.0748  0.3897
 9764W        W26238   2.787  15.027   1.396  0.1684  0.2277  0.0116
 9765W        W26239  16.424  11.515  15.288 -0.0246  0.0720  0.1535
 9766W        W26240   0.713   8.937   3.087  0.0879 -0.0334 -0.3168
 9767W        W26241  12.446  14.786  11.660  0.2094 -0.0805 -0.1051
 9768W        W26242   3.267   0.238  12.328  0.1485 -0.1574 -0.1853
 9769W        W26243  16.283  17.067  12.550 -0.0539  0.0372 -0.1964
 9770W        W26244   3.496   7.499   0.783  0.0809 -0.1086  0.0268
 9771W        W26245   6.229  14.019  11.329 -0.0760  0.1407 -0.0392
 9772W        W26246  10.729   6.467   3.378  0.2695  0.1440  0.1639
 9773W        W26247  13.333  18.677  13.329 -0.0498 -0.1588 -0.2358
 9774W        W26248   2.521  10.504   4.377  0.1199 -0.3544 -0.1936
 9775W        W26249   3.578  10.159   3.819 -0.1955  0.1070  0.2594
 9776W        W26250  18.777  11.138  12.903  0.6094 -0.1076  0.2512
 9777W        W26251  13.154   8.746   1.995  0.2090 -0.1173  0.0825
 9778W        W26252  10.674   9.432   1.021  0.1352 -0.0092 -0.1464
 9779W        W26253  13.531  11.118   2.482 -0.1245 -0.0418 -0.0112
 9780W        W26254  14.718   8.155   3.428  0.1267 -0.0154 -0.0693
 9781W        W26255   2.474  16.614  14.241 -0.0549  0.0760  0.2325
 9782W        W26256   8.990  16.898   1.606  0.0223 -0.1654  0.1229
 9783W        W26257   2.707  12.685  11.326 -0.0561 -0.2686  0.1896
 9784W        W26258  18.372   6.521   4.866  0.1074 -0.1538  0.1802
 9785W        W26259   8.075  10.113  13.250  0.2287  0.3573  0.2545
 9786W        W26260  15.251  18.513   3.428  0.1417 -0.1039  0.4264
 9787W        W26261   4.798  16.759   1.596  0.2149 -0.4914  0.2494
 9788W        W26262  11.668   8.952  13.067 -0.1589 -0.1605  0.3202
 9789W        W26263   8.419  18.653   3.297 -0.3022 -0.0358  0.0387
 9790W        W26264   0.363  17.824   3.407  0.1624 -0.3499  0.1311
 9791W        W26265   9.989   4.790   4.447  0.0771  0.4698  0.3749
 9792W        W26266  16.766   4.327   4.347 -0.2930 -0.0667 -0.3671
 9793W        W26267  16.474   7.884  10.867  0.0006 -0.1632  0.1246
 9794W        W26268   9.421  14.680   4.437  0.0777  0.1982  0.3637
 9795W        W26269  17.612   0.586   4.664 -0.1414 -0.1251 -0.0391
 9796W        W26270   1.188   8.361  11.386  0.4665 -0.4772  0.0472
 9797W        W26271  14.835   8.789   0.583 -0.0741 -0.2873  0.1739
 9798W        W26272   0.181  11.528   3.067 -0.0130 -0.2486 -0.2109
 9799W        W26273   2.927  16.259   3.612  0.3738 -0.0778  0.2267
 9800W        W26274  16.909  13.073   4.984  0.3063 -0.2567  0.0545
 9801W        W26275  14.016   6.397  11.738  0.1925 -0.0273  0.0640
 9802W        W26276  16.401   4.000  13.824 -0.2104 -0.0217 -0.2232
 9803W        W26277  13.663   7.735   3.426  0.2264  0.1487 -0.1430
 9804W        W26278  17.713   9.200   1.350  0.1711 -0.1739 -0.2865
 9805W        W26279   8.307   8.196   2.830  0.2722  0.0863 -0.0223
 9806W        W26280   0.624  11.566   1.993 -0.1340  0.2769 -0.1162
 9807W        W26281  12.536  18.240  13.344 -0.0823  0.0829 -0.1035
 9808W        W26282  18.666  11.886   4.815 -0.0892 -0.1379 -0.2410
 9809W        W26283   5.448   4.612   3.798  0.2715  0.2350 -0.0490
 9810W        W26284   7.890  16.303   5.860  0.1542  0.1291 -0.0763
 9811W        W26285  12.849   3.996  13.697 -0.0493  0.0958  0.1347
 9812W        W26286   7.039  18.602  14.617 -0.1524 -0.0981 -0.1431
 9813W        W26287   5.704  18.167   9.937 -0.2079  0.1865 -0.1325
 9814W        W26288   0.801  13.910   0.516 -0.1451 -0.2508  0.1290
 9815W        W26289  10.330  16.786   1.643 -0.3224  0.2343 -0.0848
 9816W        W26290   5.156   7.728   5.122 -0.1310 -0.1656 -0.0818
 9817W        W26291   9.891  11.184  14.911 -0.0450 -0.0853  0.2175
 9818W        W26292  17.841  14.279  13.321  0.0475 -0.0991  0.3118
 9819W        W26293  13.844  18.312   5.050  0.2619 -0.0890 -0.5089
 9820W        W26294   9.800   3.207  12.328 -0.0937  0.0389  0.1979
 9821W        W26295   9.680   7.190  11.329 -0.0991 -0.2626  0.0779
 9822W        W26296   8.057  11.266  10.864 -0.1004  0.0255 -0.1493
 9823W        W26297   4.734   8.354   1.568  0.0973 -0.0286  0.2407
 9824W        W26298   8.059  14.683   2.236 -0.2036 -0.1824  0.2209
 9825W        W26299  17.815   9.988  12.897  0.2189 -0.1680 -0.2041
 9826W        W26300   4.948   4.868   5.030 -0.2845 -0.1497 -0.1259
 9827W        W26301   7.804   6.165   4.824  0.2291  0.1306  0.2223
 9828W        W26302   3.078  18.784   1.487 -0.1350 -0.0021 -0.1840
 9829W        W26303  11.593  11.270   3.775 -0.3224 -0.0114  0.2001
 9830W        W26304   3.410  14.793  13.908  0.0350  0.0198  0.1917
 9831W        W26305  13.052   1.812   4.687 -0.0941  0.0496  0.1854
 9832W        W26306  11.786  16.811  12.083  0.2670 -0.0705 -0.2738
 9833W        W26307   8.654  17.742  13.701 -0.0517  0.0536  0.0097
 9834W        W26308  11.473   1.765  13.440  0.3292  0.0060 -0.0296
 9835W        W26309  10.813   7.823  12.667  0.2628  0.1145  0.1621
 9836W        W26310   3.328   8.551  15.016  0.3252 -0.3703  0.2982
 9837W        W26311   4.665   1.479   4.266  0.1912 -0.0289 -0.1033
 9838W        W26312   9.478   2.720   1.615  0.1412  0.0406  0.0221
 9839W        W26313  13.430  16.351   3.970  0.0991  0.3085 -0.0652
 9840W        W26314   9.151   2.764   0.527 -0.4470  0.0543  0.1299
 9841W        W26315  10.771   9.181  14.995 -0.2411 -0.2113 -0.0607
 9842W        W26316  18.752  14.199   1.150 -0.1086 -0.0273  0.3391
 9843W        W26317   2.780  10.761   5.184  0.0808  0.1015  0.1543
 9844W        W26318   5.436   7.682  12.131  0.0866 -0.0501 -0.4856
 9845W        W26319  16.078   7.647  11.124  0.3763 -0.0077 -0.0444
 9846W        W26320   1.672   5.076  12.548 -0.0543  0.0830  0.1778
 9847W        W26321   4.142   8.487  12.120  0.2376 -0.2572 -0.2587
 9848W        W26322  15.306   4.332  14.828 -0.1277  0.0659 -0.1745
 9849W        W26323   9.465  12.517   5.086 -0.1769 -0.0469 -0.0601
 9850W        W26324  18.610  14.559   3.688 -0.1290 -0.1287  0.0666
 9851W        W26325  12.227   1.066   4.948 -0.0215 -0.0715  0.0206
 9852W        W26326   5.896  15.893   0.105  0.0930 -0.0844  0.1237
 9853W        W26327  13.852   4.887   2.314  0.1739  0.3014  0.0096
 9854W        W26328  13.184  16.732  10.719  0.0494 -0.0908  0.1190
 9855W        W26329  16.561   2.474  12.377  0.0191  0.0413 -0.2473
 9856W        W26330  11.449   1.744   3.480 -0.2373 -0.2184  0.1691
 9857W        W26331  15.924   3.998  14.069 -0.0119 -0.0217  0.0797
 9858W        W26332  17.799  14.938   5.541  0.1304  0.1722  0.0603
 9859W        W26333   8.793  15.140   3.343  0.2226 -0.2006  0.3345
 9860W        W26334   8.164  15.353  15.548 -0.0617  0.1555 -0.2296
 9861W        W26335   0.412   3.338  13.282 -0.0258  0.0458  0.1928
 9862W        W26336   9.786   4.786  12.400  0.1084 -0.0771 -0.0360
 9863W        W26337   2.877   6.455  13.430 -0.0454 -0.0100 -0.0370
 9864W        W26338   1.461  16.173   0.702  0.2505 -0.1454 -0.0014
 9865W        W26339   2.085  17.489  12.991  0.0004  0.0627 -0.0509
 9866W        W26340  11.673   9.121  13.556 -0.0494 -0.3114  0.0725
 9867W        W26341  13.988   8.561  13.820 -0.2391  0.1004  0.2173
 9868W        W26342   5.205  16.734   4.003 -0.3285  0.1999  0.0218
 9869W        W26343  11.181   2.574   2.222  0.2616  0.2744  0.1284
 9870W        W26344  16.825   2.008  12.387  0.0332  0.1671  0.1188
 9871W        W26345  18.323  17.522  13.425  0.2524  0.1545 -0.4297
 9872W        W26346   9.264  12.833   0.304  0.3872  0.1732  0.1316
 9873W        W26347  12.922   9.387  14.090  0.2177  0.0655  0.0743
 9874W        W26348   0.380   2.384   9.682 -0.1046  0.0950 -0.3140
 9875W        W26349   2.019  13.160  10.847  0.3219 -0.1530 -0.2129
 9876W        W26350   9.283  15.200  13.467  0.0380 -0.0642  0.0874
 9877W        W26351  16.096  13.875   2.325 -0.0578  0.0148  0.1977
 9878W        W26352   5.290  13.006  11.433 -0.0819 -0.2913  0.3367
 9879W        W26353  14.184   5.569  13.450  0.0250 -0.2427 -0.1548
 9880W        W26354   0.290  12.954   2.608  0.0013 -0.0956 -0.0748
 9881W        W26355   8.617  17.832   0.327  0.0334  0.1186 -0.0322
 9882W        W26356   9.197  13.567   4.663  0.2006  0.2996 -0.0387
 9883W        W26357  12.054   6.103   1.426  0.0634  0.1669  0.3449
 9884W        W26358   6.008   9.994  14.999 -0.4376  0.0057  0.2368
 9885W        W26359   6.855   4.667   2.505  0.1619  0.1773 -0.1425
 9886W        W26360  16.097  17.046   3.884 -0.1358 -0.0262  0.0131
 9887W        W26361   6.185  10.419   2.933 -0.0774 -0.0120  0.0086
 9888W        W26362   3.681   4.119  14.187  0.0728 -0.0831  0.1136
 9889W        W26363  12.484  14.760  14.685  0.0778 -0.0210  0.0614
 9890W        W26364   9.155   0.676   2.992 -0.1281 -0.0870 -0.1556
 9891W        W26365  16.480   8.253   1.419  0.0986  0.1873  0.0972
 9892W        W26366  11.014   3.097   4.507  0.0873  0.0156  0.0672
 9893W        W26367   0.144  14.801  15.525  0.0434 -0.0304  0.1371
 9894W        W26368   4.146   9.292  15.206  0.3530  0.2619 -0.0757
 9895W        W26369   0.258  13.841   0.495  0.1035 -0.0748 -0.0729
 9896W        W26370   7.349   1.333   0.250 -0.3332 -0.2358 -0.0538
 9897W        W26371  12.156  17.949   2.228 -0.1713  0.2495  0.0424
 9898W        W26372  11.059  10.739   0.227 -0.0385 -0.3480 -0.2227
 9899W        W26373   3.623  14.356   3.167 -0.1123  0.0499 -0.1457
 9900W        W26374   7.262   6.856   4.711 -0.0645  0.1482  0.0938
 9901W        W26375   3.807  16.391  10.480 -0.0110 -0.1320  0.1551
 9902W        W26376   8.709   8.737  12.846  0.2256 -0.1376  0.3788
 9903W        W26377   1.283   3.640  14.918 -0.4411 -0.0008 -0.0439
 9904W        W26378  15.216   9.385  13.831 -0.0232  0.1413 -0.2015
 9905W        W26379   0.961   4.800  13.673 -0.0320  0.0550  0.1289
 9906W        W26380   3.021  15.720  13.259  0.0701  0.0130  0.0298
 9907W        W26381  11.326  16.771   0.910  0.1431 -0.1464  0.0276
 9908W        W26382   2.789   8.079  13.187 -0.1309  0.0913 -0.0821
 9909W        W26383   7.346   4.323   4.104 -0.0537  0.0004  0.2515
 9910W        W26384   1.727   5.048  13.080  0.1237  0.2123 -0.2528
 9911W        W26385  14.003  11.959  14.020  0.0205  0.0014  0.0554
 9912W        W26386   1.959   8.668  11.375 -0.1084  0.2873  0.0921
 9913W        W26387   7.748  14.785  13.872  0.2612  0.0715 -0.2311
 9914W        W26388   3.292  17.008  13.070  0.0403  0.3014 -0.2881
 9915W        W26389   3.788  10.055   2.214 -0.1661  0.1529 -0.2077
 9916W        W26390   5.008   3.936   3.355  0.0808  0.2152 -0.0826
 9917W        W26391  17.791   7.046   1.781  0.0446 -0.1826  0.0630
 9918W        W26392   5.354  14.432   4.332  0.0578 -0.2028  0.1763
 9919W        W26393  10.718   4.841   3.721  0.0237 -0.0893  0.3114
 9920W        W26394   8.442  12.971   3.708 -0.1849  0.0097  0.1326
 9921W        W26395   8.890   7.728  12.780  0.0141 -0.3644  0.0278
 9922W        W26396  10.327   2.474   2.579  0.3156  0.0036  0.1727
 9923W        W26397   5.001  10.637   1.291 -0.1208  0.1620 -0.3339
 9924W        W26398   2.553   2.326  15.058  0.0340  0.0282  0.0720
 9925W        W26399   2.189  17.323   1.334  0.0143 -0.3813 -0.2394
 9926W        W26400   6.760   6.932  13.922  0.1485 -0.0806  0.4885
 9927W        W26401  16.818  16.223   4.952  0.4660  0.1939  0.0799
 9928W        W26402  16.082  14.458   4.811  0.1447  0.0763 -0.1268
 9929W        W26403   5.114   6.019  13.869 -0.0154 -0.3654  0.0391
 9930W        W26404   2.387   3.698   4.826 -0.2130 -0.1076  0.1319
 9931W        W26405   9.471   9.715   4.464  0.2228 -0.1059 -0.3234
 9932W        W26406  12.773   6.449  15.474 -0.2256  0.3020  0.0025
 9933W        W26407   1.853   8.496   4.023  0.0549 -0.2399 -0.1425
 9934W        W26408   7.675   4.325   1.906 -0.0173  0.2550 -0.0055
 9935W        W26409   2.623   0.706  14.252 -0.1237  0.2429  0.0098
 9936W        W26410  14.280   7.146   2.553 -0.3594  0.2424  0.3348
 9937W        W26411  12.229  14.908  10.562 -0.0481  0.0302  0.2144
 9938W        W26412  13.500  11.246  12.199  0.1323 -0.2683 -0.0571
 9939W        W26413  12.766  15.112   3.520  0.1722 -0.0882  0.1752
 9940W        W26414   3.943   9.307  12.352 -0.4785  0.1555 -0.0178
 9941W        W26415   5.968   5.907  11.006 -0.0577  0.3432 -0.2878
 9942W        W26416   9.004   7.872  10.900 -0.0923  0.4122 -0.0529
 9943W        W26417   5.228   0.916   2.763  0.0439 -0.0466 -0.0446
 9944W        W26418  15.375   9.981  12.180  0.0587  0.2044  0.1885
 9945W        W26419   6.389  15.819  14.736  0.1552 -0.0264 -0.3234
 9946W        W26420   2.154   2.275   0.757  0.0251  0.0777  0.0208
 9947W        W26421  13.507   3.665  12.512  0.0404  0.0463 -0.2643
 9948W        W26422   9.199   1.378   5.388  0.0223  0.0842  0.0084
 9949W        W26423  13.016  14.778   4.808 -0.0411 -0.2503  0.2012
 9950W        W26424  10.539   2.933   4.626  0.2450 -0.2036  0.0865
 9951W        W26425  18.354   2.286  14.038 -0.4240 -0.1086  0.0557
 9952W        W26426   1.808   8.356  11.757  0.0339 -0.2328 -0.1505
 9953W        W26427   1.805   1.901   0.940 -0.1907 -0.1550  0.1989
 9954W        W26428   5.598  18.054   2.216  0.3892  0.0142 -0.0089
 9955W        W26429   8.968   4.936  12.913  0.3104  0.0253 -0.0722
 9956W        W26430  12.738  18.402   3.971 -0.0622 -0.0692  0.1943
 9957W        W26431   0.807   4.639  14.299 -0.0049 -0.1265 -0.0410
 9958W        W26432   7.184  14.554   5.221 -0.0641 -0.6252  0.1652
 9959W        W26433   3.256   5.165  15.194 -0.1118  0.3216  0.1927
 9960W        W26434   9.509   8.200  15.348 -0.0295 -0.0398  0.1483
 9961W        W26435   3.485  13.771   5.907 -0.2155 -0.0630  0.0591
 9962W        W26436   3.514  18.610  12.559 -0.2257  0.0509  0.2308
 9963W        W26437   2.397   6.046  10.080 -0.1027  0.1191  0.1280
 9964W        W26438  10.454  16.935   2.155 -0.2391 -0.5077  0.1060
 9965W        W26439  13.990   0.506  13.462  0.2761 -0.0253  0.3144
 9966W        W26440   9.321  12.780  11.057  0.2905 -0.1257  0.3131
 9967W        W26441   1.603   8.441  12.683  0.0002 -0.0258  0.0901
 9968W        W26442   8.331   3.087   5.047 -0.0087 -0.1279 -0.1290
 9969W        W26443   3.873  13.193   4.671  0.0265  0.1083 -0.1747
 9970W        W26444   7.924  13.141  14.065 -0.2691 -0.0419 -0.2089
 9971W        W26445  17.765   5.937  10.698  0.0161  0.0642  0.1043
 9972W        W26446   6.233  15.792   5.408  0.1488 -0.2999  0.3105
 9973W        W26447  12.223   0.022   5.756  0.0987 -0.0917  0.0672
 9974W        W26448  12.376  12.742  11.371 -0.0597 -0.1316 -0.0369
 9975W        W26449   4.097   8.103   1.164  0.2358  0.0722  0.2980
 9976W        W26450   3.192   0.466  15.114  0.1141  0.1513  0.2005
 9977W        W26451  14.271   6.731  12.196  0.0879  0.0796 -0.0759
 9978W        W26452   8.290  18.103   2.119  0.2247  0.1668 -0.4169
 9979W        W26453   8.957  12.542   2.751 -0.2087 -0.1673 -0.0085
 9980W        W26454  18.194   3.378  13.638 -0.1025 -0.2374 -0.6030
 9981W        W26455  13.591  18.704  12.531  0.1432  0.0407  0.1684
 9982W        W26456   3.355   4.137   4.192 -0.3590 -0.3524 -0.3646
 9983W        W26457  10.085   7.543   1.981 -0.3757 -0.0079 -0.4433
 9984W        W26458  10.942   7.207  11.467  0.1402 -0.1676  0.1247
 9985W        W26459   6.583  14.543   2.509 -0.0649 -0.0050  0.2844
 9986W        W26460   6.599   1.275   4.389  0.1461  0.3037 -0.0331
 9987W        W26461  17.929   2.528  15.506  0.0708 -0.1504 -0.1422
 9988W        W26462  17.467   5.017  10.937 -0.0060  0.0339  0.2012
 9989W        W26463   3.467  15.379  11.189 -0.2552 -0.1784 -0.0852
 9990W        W26464   8.131  13.290  11.524 -0.1623  0.0103  0.0906
 9991W        W26465   5.594  18.629   2.001  0.0138 -0.1141 -0.0153
 9992W        W26466  10.732   7.204   2.784 -0.0376 -0.1909  0.1221
 9993W        W26467   8.177  10.893   2.320  0.0934 -0.2058  0.0145
 9994W        W26468  13.700   3.869   4.386  0.2252 -0.1342  0.2140
 9995W        W26469   5.131  15.186   1.830 -0.2649 -0.0868 -0.0880
 9996W        W26470   2.852  13.752  14.767 -0.1626  0.1294  0.2543
 9997W        W26471   6.440  10.771  13.972  0.3988 -0.1180 -0.1071
 9998W        W26472  14.261   2.910   1.949 -0.0202 -0.0629  0.1253
 9999W        W26473  13.658  16.124  14.862 -0.0116 -0.1564 -0.3022
10000W        W26474   3.523   3.351   4.389 -0.3562  0.1625  0.3980
10001W        W26475   3.858   5.398  13.794  0.0372  0.1725  0.2452
10002W        W26476  15.160   1.449   5.007 -0.1901 -0.3090 -0.5439
10003W        W26477  17.154  10.704   5.274  0.1426 -0.1538 -0.1136
10004W        W26478  12.384   7.445  14.648 -0.0173  0.0493 -0.0542
10005W        W26479  11.715  17.520  15.002 -0.2347 -0.1892 -0.4270
10006W        W26480   6.211  10.574   4.678 -0.1653  0.0026  0.0541
10007W        W26481   4.980   8.407  11.730 -0.0243  0.0057 -0.0738
10008W        W26482   8.495  14.142  14.559 -0.1589 -0.2409  0.4439
10009W        W26483   5.260   6.275   2.114  0.1491 -0.1129 -0.1473
10010W        W26484   9.426   9.897  11.816 -0.0708 -0.2127  0.1388
10011W        W26485  14.612   4.963  15.175  0.0979 -0.0723  0.2679
10012W        W26486   5.363  18.470   2.541  0.1261 -0.1138 -0.1951
10013W        W26487  12.623  18.514  12.260  0.1829  0.1817 -0.0330
10014W        W26488   8.545   4.327   4.899  0.1189 -0.3297 -0.0629
10015W        W26489  11.420  10.564  12.175  0.0239  0.2311 -0.1131
10016W        W26490   2.806   5.259  15.400 -0.1634  0.1156  0.0593
10017W        W26491  12.329   3.770   3.335 -0.1498  0.0610 -0.2315
10018W        W26492  17.633   8.978  11.048  0.1857 -0.2785 -0.2070
10019W        W26493   4.080   1.226   1.267 -0.0964 -0.0629  0.0095
10020W        W26494  16.017  14.911   2.159  0.0056  0.1234 -0.0195
10021W        W26495  14.918   6.763   1.582 -0.1223  0.2140 -0.0628
10022W        W26496  18.682   9.307  10.912  0.1579 -0.0837  0.2493
10023W        W26497  14.045   3.917   0.299 -0.2935  0.1026  0.0395
10024W        W26498   1.991   4.329  12.063  0.1082  0.0014 -0.0566
10025W        W26499   5.623   7.874   2.988  0.0826 -0.0894 -0.1862
10026W        W26500   8.540   9.793  13.266 -0.4411  0.3615  0.0134
10027W        W26501   6.816  13.983  13.565 -0.3742 -0.1369 -0.1841
10028W        W26502  10.863  12.474  12.562  0.1647  0.1571 -0.2329
10029W        W26503  16.821  10.001  14.899 -0.1648  0.2131 -0.0280
10030W        W26504  12.811   5.800  14.513  0.1180 -0.2540  0.3684
10031W        W26505  10.387   7.970   0.106 -0.0036 -0.2388  0.1059
10032W        W26506   2.606   9.211   2.803  0.1214  0.1241 -0.1936
10033W        W26507   3.523   5.445  14.734  0.2349  0.2406 -0.0924
10034W        W26508  16.977   9.796  15.514  0.2277 -0.2090 -0.1915
10035W        W26509  14.831   4.522  14.234 -0.4125 -0.1468 -0.3449
10036W        W26510   5.166   4.239   2.693 -0.0377 -0.1924  0.0310
10037W        W26511   7.262   8.917  12.122 -0.0978  0.1165 -0.0564
10038W        W26512   9.423   8.848   0.210 -0.3996  0.0420 -0.0737
10039W        W26513  12.057  17.013  12.975 -0.0547 -0.0300  0.1126
10040W        W26514   9.189   1.096  12.598  0.2589 -0.0537  0.0718
10041W        W26515  10.363   7.285  14.365  0.2265  0.1014  0.0284
10042W        W26516  13.820   7.197  15.102 -0.0070  0.2952  0.3033
10043W        W26517  15.002   4.078   0.096 -0.0837 -0.2291  0.1976
10044W        W26518   1.439   4.031   4.611  0.2572  0.2131 -0.0436
10045W        W26519   7.320   4.658   1.737  0.1767 -0.2826  0.1682
10046W        W26520   2.060   8.832  10.908 -0.0020 -0.1008 -0.0986
10047W        W26521  12.104   5.451  12.008 -0.4865  0.0786 -0.3446
10048W        W26522  16.448   8.534  11.483  0.0875  0.2027  0.0460
10049W        W26523  17.589   2.435   4.554 -0.0987  0.0926  0.1354
10050W        W26524  15.431  14.485   5.402 -0.2283 -0.1327 -0.2394
10051W        W26525   4.340  14.942   0.224  0.4222 -0.2085  0.0293
10052W        W26526  12.778  15.038  11.408  0.0697 -0.2181  0.0032
10053W        W26527   8.325   7.634   3.783 -0.0134 -0.0834  0.0316
10054W        W26528  15.643  14.891  14.739 -0.1438  0.0929 -0.0041
10055W        W26529  14.197  17.883   2.422  0.2630 -0.2043  0.4237
10056W        W26530  11.096   0.205  14.056 -0.1162 -0.0888 -0.2567
10057W        W26531   5.240  13.596   4.803  0.2170  0.1659 -0.1214
10058W        W26532   3.128   1.919   4.651  0.0990 -0.1971 -0.0118
10059W        W26533   7.484  15.213  12.994  0.0277 -0.0938 -0.0257
10060W        W26534  10.747   1.668   5.164  0.2031  0.5880  0.2995
10061W        W26535  15.216   7.152  11.686  0.1458  0.2350 -0.1395
10062W        W26536  17.681  10.440   1.077  0.1220 -0.1726  0.0437
10063W        W26537   0.444   9.344  10.527  0.0028  0.2942 -0.1229
10064W        W26538  12.634  10.192   5.109 -0.1073  0.0522 -0.0925
10065W        W26539   7.595  14.700   5.573  0.2016  0.1805  0.2312
10066W        W26540  15.138   6.461   1.963 -0.1737  0.2604 -0.3505
10067W        W26541   3.870  18.091   2.259 -0.0878  0.0468 -0.0278
10068W        W26542   5.001   5.638  14.508 -0.1355  0.2649  0.1269
10069W        W26543   2.563  16.020   0.468 -0.4295  0.2906  0.0155
10070W        W26544   8.888  12.639  12.016  0.0275  0.1657  0.0337
10071W        W26545   9.466  14.501   0.982  0.0064 -0.1085  0.0755
10072W        W26546  18.563  13.087  13.307 -0.1340  0.0459 -0.1175
10073W        W26547   9.942   9.127  14.552 -0.3011  0.1053  0.2208
10074W        W26548  17.729   5.501   3.705  0.2642 -0.2557  0.2102
10075W        W26549   3.406   7.773  10.978 -0.0255  0.0482  0.2035
10076W        W26550   7.290  17.855   4.462  0.1305  0.1732  0.0554
10077W        W26551  12.704   0.219   5.339  0.2331 -0.2085  0.1492
10078W        W26552  10.041   8.632  14.403 -0.1419 -0.2329  0.0760
10079W        W26553  17.434  16.258  13.725 -0.0526  0.0137  0.0795
10080W        W26554  13.248   6.070   3.509 -0.3474  0.1305 -0.1662
10081W        W26555   5.667   5.120   2.200 -0.2785 -0.0598  0.2316
10082W        W26556  12.889  17.065  11.315  0.1041 -0.2267  0.0591
10083W        W26557  14.871  13.304   4.320 -0.0550 -0.1941  0.3014
10084W        W26558  16.552   7.704   4.002  0.2555  0.1946 -0.0760
10085W        W26559   2.087   1.475   4.819 -0.0492 -0.2029 -0.0797
10086W        W26560  13.615  16.403   1.118 -0.1814 -0.1822  0.4369
10087W        W26561  10.566  18.099   4.218  0.0780  0.1512 -0.0076
10088W        W26562  12.889   4.760   5.111  0.2248  0.1552  0.0739
10089W        W26563   4.498   4.244   4.511  0.1920 -0.0353 -0.0851
10090W        W26564  16.262  17.097   4.913  0.2759  0.4930 -0.0279
10091W        W26565  16.083  11.454  14.219 -0.0028 -0.0994  0.3032
10092W        W26566   0.417   5.333  13.697  0.1898  0.0326  0.0363
10093W        W26567   6.993   8.071   3.282  0.2285  0.0090 -0.0048
10094W        W26568   0.932   4.241  13.950  0.1112  0.0210 -0.1066
10095W        W26569  14.028   4.402  13.494  0.0916 -0.4247 -0.0620
10096W        W26570  15.001  12.205   4.442  0.0385 -0.1059 -0.0754
10097W        W26571   0.519  10.652   0.560  0.2052 -0.3501  0.2287
10098W        W26572   3.995  13.611  14.331  0.0307 -0.1779  0.0092
10099W        W26573  15.430  10.312  14.838  0.0403  0.3362  0.1209
10100W        W26574  10.433   9.996  13.872 -0.0944 -0.2285  0.1891
10101W        W26575   9.901   7.600  12.710  0.0248 -0.0914  0.1567
10102W        W26576   2.034   8.598   2.681  0.2391 -0.0541  0.1655
10103W        W26577  15.398  18.160   1.633  0.0792 -0.1338 -0.2548
10104W        W26578   6.968   6.009  11.203 -0.0662  0.1282 -0.0039
10105W        W26579  12.690  16.520   4.514 -0.0102  0.2824 -0.4313
10106W        W26580   2.847  10.635  13.540  0.0791  0.0363  0.0482
10107W        W26581   9.074  10.104   0.900 -0.0306  0.2050  0.0300
10108W        W26582   3.764  12.906  15.299 -0.1551 -0.1813  0.2849
10109W        W26583  18.463   8.788   1.526  0.0681  0.0562 -0.1033
10110W        W26584   5.113   5.269   3.353 -0.0001  0.0442 -0.1022
10111W        W26585   0.048   3.404  12.279  0.2201  0.2509  0.0907
10112W        W26586   6.109  12.128  10.767 -0.1254  0.0042  0.1195
10113W        W26587   1.412  15.947   3.561 -0.2534 -0.0396  0.1373
10114W        W26588  17.446  10.310  14.195 -0.2243  0.1663  0.2136
10115W        W26589   2.746   7.252   0.477  0.0826  0.0735 -0.2537
10116W        W26590  15.161  16.847   0.082  0.1731 -0.0226 -0.1209
10117W        W26591  10.792  10.446   2.293  0.4211 -0.1718  0.0345
10118W        W26592   1.352  11.537   2.493 -0.2999  0.0147 -0.1619
10119W        W26593   4.724   6.766  15.114  0.2214 -0.2823 -0.0192
10120W        W26594   3.618  17.238  13.513 -0.2907  0.0041  0.0731
10121W        W26595   2.388   1.170  12.254 -0.1263 -0.0345  0.0544
10122W        W26596   9.610  13.273   4.750  0.2572  0.1381  0.1323
10123W        W26597   0.913   5.751  13.123 -0.0089  0.4941  0.0654
10124W        W26598  16.905  16.151  14.512  0.2610  0.0873 -0.2373
10125W        W26599   7.849   5.290  14.504  0.0631 -0.0892  0.0607
10126W        W26600  13.359  18.395   4.835 -0.0434  0.0531 -0.2049
10127W        W26601  15.458  11.754   5.028 -0.0847 -0.0881 -0.0643
10128W        W26602  16.467   4.859   0.935  0.1240 -0.1412  0.2172
10129W        W26603  11.816  13.261  11.359  0.0400  0.2166  0.0817
10130W        W26604   0.643  10.196   2.846  0.5240 -0.4655  0.0177
10131W        W26605   0.787   5.816   3.753 -0.0526  0.1494 -0.0324
10132W        W26606  18.515  10.021   1.372 -0.2638 -0.1139 -0.0509
10133W        W26607   8.736  14.245   5.076  0.0294 -0.3411 -0.1761
10134W        W26608   7.328   4.645  11.510  0.0067  0.3664  0.2719
10135W        W26609  14.088  16.527   3.365  0.1588 -0.3652 -0.1939
10136W        W26610   7.433   1.895   4.414  0.1831 -0.1538  0.1930
10137W        W26611   6.190  13.450   3.977 -0.1502 -0.1574 -0.1982
10138W        W26612  12.781   7.058  15.382 -0.0495 -0.0015  0.2812
10139W        W26613   6.041  12.293  14.834 -0.2181 -0.3477  0.0892
10140W        W26614   4.426   3.459   2.471  0.3981  0.0099 -0.1891
10141W        W26615   7.510  17.920  12.358  0.3161  0.3083  0.2585
10142W        W26616  12.266  12.855   0.798  0.0585  0.2361 -0.0586
10143W        W26617   3.719   2.837  11.106 -0.0063 -0.3565 -0.0480
10144W        W26618   3.909   1.924   0.018  0.0801  0.3593 -0.1891
10145W        W26619   2.536   6.024   3.891 -0.1222  0.3465  0.1963
10146W        W26620   1.256  15.897   5.067  0.1163  0.0890  0.1759
10147W        W26621   4.160  17.672  12.763  0.1322 -0.6538 -0.3607
10148W        W26622  11.715   9.511   2.095  0.3694 -0.4163  0.3422
10149W        W26623   2.186  11.436  10.835 -0.1525 -0.2566  0.1424
10150W        W26624   5.275   6.196   1.180 -0.0274  0.1648  0.1031
10151W        W26625  16.955   3.191   0.276 -0.0488 -0.1936 -0.3774
10152W        W26626  12.288  15.240  14.640 -0.0106  0.0068 -0.1938
10153W        W26627  11.902   0.289   1.908 -0.0105 -0.0181 -0.4072
10154W        W26628  17.858  12.633  11.848  0.3056  0.0780  0.0891
10155W        W26629   0.354   1.188   0.372 -0.2034 -0.2724 -0.1598
10156W        W26630  11.559   7.902  14.881  0.0883  0.2109  0.0441
10157W        W26631  10.392  13.448   4.516 -0.1919 -0.2045 -0.0937
10158W        W26632   4.602   6.616  13.193  0.2472  0.1189  0.0644
10159W        W26633   2.380  17.876  10.825  0.2418  0.2258 -0.1748
10160W        W26634   3.956  14.183  15.454 -0.3021 -0.1463 -0.1478
10161W        W26635   0.884  17.834  11.951 -0.1407 -0.0444  0.0781
10162W        W26636   0.544  10.203  12.242 -0.2135 -0.1926 -0.2302
10163W        W26637   8.533  12.271  14.999  0.0977 -0.2456  0.2016
10164W        W26638  11.768   4.259   0.417  0.2069 -0.1954  0.1217
10165W        W26639  15.247  10.552   0.090 -0.0575 -0.1450  0.1425
10166W        W26640   5.802  10.903  11.349 -0.1624 -0.3082 -0.3037
10167W        W26641  12.770  11.181  13.816  0.2740  0.1516 -0.0615
10168W        W26642   9.026  14.043  11.781  0.1923  0.0337  0.0759
10169W        W26643   2.470  14.981  15.125  0.1404  0.0901  0.1615
10170W        W26644  16.606   8.007   9.913  0.0729  0.2007  0.2387
10171W        W26645   5.308  10.867   0.166 -0.2762  0.0607  0.0108
10172W        W26646   8.293  12.071  13.408 -0.0149 -0.1055  0.0686
10173W        W26647  17.565  10.580   3.827 -0.0247  0.1837 -0.2035
10174W        W26648  17.562   2.404   1.722 -0.0420  0.1912 -0.1812
10175W        W26649   5.205  13.144  10.916  0.0919  0.3580  0.1202
10176W        W26650   9.025   8.719   1.564  0.0918  0.0703  0.2007
10177W        W26651  12.190   5.117   5.348 -0.1799 -0.4265 -0.0571
10178W        W26652   3.496   8.323   5.403 -0.1513 -0.2027  0.0614
10179W        W26653  11.898  17.804   5.487 -0.0110 -0.0950  0.0181
10180W        W26654  11.681   9.732  13.589  0.1998  0.0450 -0.0052
10181W        W26655  15.145   0.715  11.482 -0.0237  0.2739 -0.2063
10182W        W26656  10.491  17.335   2.476 -0.0893  0.1580 -0.1774
10183W        W26657   8.761   3.339   1.364  0.1554 -0.3088  0.0770
10184W        W26658   9.119  10.818   5.704  0.1379 -0.2340  0.0197
10185W        W26659  17.949   6.007   3.479  0.2288  0.0765  0.2707
10186W        W26660  14.532  15.401   2.023 -0.1710 -0.1417 -0.0956
10187W        W26661  16.393   9.460   4.895  0.0807  0.1673 -0.0049
10188W        W26662   5.609   4.303   2.532 -0.1089  0.2206  0.0041
10189W        W26663   0.028   2.360   4.668  0.2381  0.2001  0.0636
10190W        W26664  18.767  18.723  12.589  0.2382 -0.0927  0.1179
10191W        W26665   3.859  14.311   4.651 -0.0317  0.2745  0.0074
10192W        W26666   1.440  13.191   3.435  0.0050 -0.2025 -0.0447
10193W        W26667   1.738   9.558  13.601  0.2637  0.3190  0.1496
10194W        W26668  15.557   8.431  15.222 -0.1497  0.0122  0.4264
10195W        W26669  14.987  13.084   2.271  0.1240  0.3794 -0.2356
10196W        W26670   7.506  17.435   0.350 -0.0748 -0.2841 -0.2609
10197W        W26671   1.775   4.505   0.186 -0.1719 -0.2013  0.0486
10198W        W26672   6.604  16.916   1.913 -0.2350  0.3133 -0.1180
10199W        W26673  16.281   7.871  15.452 -0.1438  0.1396 -0.1360
10200W        W26674   8.300   6.037  13.401 -0.0399  0.3837  0.1189
10201W        W26675  11.993   0.222  12.415  0.0405 -0.1276 -0.2215
10202W        W26676   5.106  17.765  14.012  0.0049  0.0063  0.1899
10203W        W26677   7.627  17.689  10.525  0.1420 -0.0352 -0.1933
10204W        W26678  11.224  10.057   1.232  0.2784 -0.2842  0.0908
10205W        W26679   2.574   8.557  15.454 -0.0650  0.0313  0.1991
10206W        W26680   9.620   8.631  12.531  0.0280 -0.3488  0.0097
10207W        W26681  14.869   4.716   2.473  0.1096 -0.1563  0.3557
10208W        W26682   5.638   3.553  15.138 -0.1596 -0.0756  0.2519
10209W        W26683   0.149  16.193  13.754 -0.2133  0.2729  0.1539
10210W        W26684   0.271  15.956   4.279  0.2143  0.2381  0.1749
10211W        W26685   7.070   5.767  10.795 -0.0355  0.0637  0.1159
10212W        W26686   5.910   5.269  10.994 -0.4241  0.0983  0.1091
10213W        W26687  17.798   2.554   3.293  0.0590  0.1291  0.3844
10214W        W26688   4.611  11.948   1.347  0.3106  0.0666 -0.0295
10215W        W26689  13.898  16.213   0.750  0.3480  0.4451 -0.1308
10216W        W26690   3.243   4.119  15.098  0.0345  0.0620  0.1466
10217W        W26691   2.234   5.009  13.278  0.0676 -0.0043 -0.0506
10218W        W26692   8.282   3.820   0.186  0.0072  0.1072  0.0729
10219W        W26693  10.820  10.731   5.127 -0.1195 -0.1552 -0.0280
10220W        W26694  16.878   9.916  12.580  0.0799 -0.2983 -0.0776
10221W        W26695  10.883  18.343  11.530  0.0797  0.0068  0.0325
10222W        W26696   8.114   2.548  10.379 -0.2616 -0.1419 -0.1868
10223W        W26697   6.068   8.393   1.644 -0.1846 -0.0162 -0.1468
10224W        W26698   6.718  17.356  15.361  0.0955 -0.1197  0.0058
10225W        W26699  11.986   6.960  10.948  0.1008 -0.0208  0.1364
10226W        W26700  15.727   1.316   1.670  0.0076  0.0305  0.2609
10227W        W26701   0.199   5.394  10.546  0.0544 -0.1014  0.0684
10228W        W26702  15.723  12.780  11.624  0.0198  0.1310 -0.0428
10229W        W26703   1.493  10.692  12.865 -0.2266 -0.1472 -0.0871
10230W        W26704   8.246   9.792   0.242 -0.2979  0.0351  0.1396
10231W        W26705  13.025   9.774   5.279  0.2541  0.4557 -0.1846
10232W        W26706  18.472   0.470   1.417  0.1070 -0.0656  0.1349
10233W        W26707  17.878  16.960  14.032 -0.2712 -0.0792  0.1307
10234W        W26708  15.311   0.970   4.135  0.0523  0.1624 -0.1154
10235W        W26709   8.115   8.098  12.952 -0.0608 -0.0179  0.0217
10236W        W26710   4.883  10.466   2.739  0.0423  0.2070  0.1941
10237W        W26711  15.887  15.550  13.523 -0.1257  0.0205  0.0597
10238W        W26712   2.884   0.416  11.654  0.1264 -0.0247 -0.0187
10239W        W26713   6.772   4.222  13.324 -0.1705  0.0601  0.2723
10240W        W26714  15.584   7.817   1.604  0.2426 -0.0425  0.1663
10241W        W26715  10.737   5.966   3.313  0.0320 -0.2112  0.1595
10242W        W26716  10.983   9.177   3.875  0.1921 -0.2025 -0.1095
10243W        W26717   1.456  13.252   4.204 -0.1877  0.0297 -0.0005
10244W        W26718  13.431  12.430  15.174  0.0611  0.1476  0.1017
10245W        W26719  11.585  10.833  12.731  0.1905 -0.1040 -0.0653
10246W        W26720   1.522  12.598   2.726 -0.0303 -0.0096  0.0623
10247W        W26721   4.674  15.465  10.358 -0.0629 -0.0221 -0.1750
10248W        W26722   6.435  16.058  15.377 -0.2770 -0.0083  0.0360
10249W        W26723  10.325   0.920  15.198 -0.0282  0.1900  0.6553
10250W        W26724  10.533   8.344   3.557 -0.0217  0.0235 -0.2946
10251W        W26725   7.144  12.343  12.260  0.1471  0.2823 -0.2514
10252W        W26726  11.821   1.327  13.439 -0.1055  0.0094 -0.1644
10253W        W26727  17.447   0.890  11.954  0.0283  0.0061  0.0014
10254W        W26728   3.749   8.254  15.168 -0.0356 -0.1357  0.0980
10255W        W26729  15.282   0.108  13.811  0.0851  0.3408  0.1422
10256W        W26730  17.903   3.171   4.468 -0.0448  0.0391  0.3801
10257W        W26731  12.831   4.134  14.431  0.1158 -0.2282 -0.1520
10258W        W26732   6.974   6.103   0.606 -0.0613  0.0362  0.3547
10259W        W26733   4.628   7.534  13.401  0.0918  0.0009 -0.3311
10260W        W26734   3.413   3.221  12.778 -0.0625  0.0706  0.0571
10261W        W26735   7.780  11.746   4.915 -0.1585 -0.3556 -0.2156
10262W        W26736   4.828   9.034  12.169 -0.0749 -0.1347  0.0326
10263W        W26737   0.128   7.419  11.990 -0.3006  0.1521 -0.3324
10264W        W26738  16.609   7.031  12.261  0.1989 -0.1251  0.1369
10265W        W26739  17.095   4.276   2.813  0.1967 -0.0502  0.1279
10266W        W26740   1.139   1.677   0.121 -0.0404  0.0096 -0.2738
10267W        W26741  12.956   5.753   4.461  0.2035  0.2007  0.2251
10268W        W26742   9.977   0.873   5.200  0.1600 -0.2513  0.2107
10269W        W26743  16.061   0.684   2.275 -0.0698  0.1033  0.0381
10270W        W26744   3.119  12.031   4.744  0.2240 -0.0461 -0.0709
10271W        W26745  17.445   7.734  12.173  0.1730  0.0299 -0.0434
10272W        W26746  10.993   5.963   4.038  0.3046  0.0088 -0.2161
10273W        W26747   8.622  11.324   2.370  0.0718 -0.1496  0.0698
10274W        W26748  13.785   8.163   1.437 -0.2253  0.3424  0.0038
10275W        W26749   2.190  11.868  15.303 -0.2093 -0.0610  0.2685
10276W        W26750  10.294   9.651   5.736 -0.1467 -0.0568  0.4265
10277W        W26751   1.896  13.557  14.113  0.1311  0.0360 -0.0676
10278W        W26752   9.503   6.249   4.314 -0.0211 -0.1869  0.0349
10279W        W26753   9.400   0.765   2.297  0.1390 -0.0751 -0.0200
10280W        W26754  14.348  10.299  14.109  0.0669  0.0320  0.0041
10281W        W26755  13.080   2.145  15.458 -0.2234  0.1652 -0.1660
10282W        W26756   4.048  15.995  14.181  0.1274  0.3265  0.5442
10283W        W26757   1.590   3.496   4.663 -0.2995  0.0811  0.1221
10284W        W26758  16.635   6.987   2.795  0.1668  0.0516  0.1697
10285W        W26759  18.172  18.111   1.343 -0.0591 -0.1372  0.1597
10286W        W26760   5.934   8.567   3.941  0.0335  0.0535  0.0974
10287W        W26761   6.324   0.580  12.902 -0.0281 -0.1453  0.4553
10288W        W26762   8.398   6.654   1.996  0.1910 -0.1560 -0.0156
10289W        W26763  11.237   5.928   2.173  0.1656  0.2501 -0.0715
10290W        W26764   4.532  17.804   1.532 -0.1948  0.3857  0.0357
10291W        W26765  11.196  15.559   2.766 -0.0614 -0.2069  0.0135
10292W        W26766  12.229  13.835   0.571 -0.0945  0.0839 -0.1114
10293W        W26767  10.233   0.621   1.125 -0.0050  0.2326  0.3350
10294W        W26768  12.321  12.054   3.259 -0.3558  0.0751 -0.1934
10295W        W26769  17.820  16.371   1.318  0.0737  0.1251  0.0286
10296W        W26770   6.117   0.775   0.542  0.2394 -0.0691  0.0790
10297W        W26771  10.745  16.864  11.983  0.0560 -0.0799 -0.0998
10298W        W26772   7.719   0.603  14.121  0.0925  0.0119 -0.0219
10299W        W26773   0.342   8.652  12.964 -0.0090  0.0215 -0.2221
10300W        W26774   7.841  17.046  13.450  0.1124 -0.0646 -0.3892
10301W        W26775  12.018  13.284   3.259  0.0189  0.0183  0.3044
10302W        W26776   9.941  17.866  14.054 -0.1943  0.0331  0.1998
10303W        W26777  12.309  16.110  13.349  0.0469 -0.2860 -0.1273
10304W        W26778  11.090   4.462  11.687  0.3437  0.4441  0.1016
10305W        W26779   0.166  14.638   0.946 -0.1759  0.0080  0.3327
10306W        W26780   9.286   9.492   4.887 -0.0025  0.0987 -0.1758
10307W        W26781  14.791  16.958  12.595  0.0781  0.1467  0.2799
10308W        W26782   7.819   1.819   4.082 -0.0850  0.0225  0.2016
10309W        W26783   3.522  14.584  10.643  0.2635  0.2316  0.0981
10310W        W26784  13.073  11.321   0.514 -0.3446 -0.0744 -0.2202
10311W        W26785  14.169  17.481   4.132 -0.2665 -0.0729 -0.1612
10312W        W26786  11.177   9.540   2.080  0.0907 -0.0208 -0.1479
10313W        W26787  10.111   1.087  12.442  0.0438  0.0605 -0.0380
10314W        W26788   3.336   5.586   0.651 -0.0269  0.1509 -0.1714
10315W        W26789  13.015   3.641   3.900 -0.1652  0.1188 -0.0909
10316W        W26790   1.242   8.260   2.310 -0.4562  0.0026 -0.1498
10317W        W26791   9.383  17.763  11.403 -0.2770 -0.0464 -0.1585
10318W        W26792  17.720   3.534   2.311 -0.1790  0.0553 -0.0132
10319W        W26793  13.531  13.693  13.217  0.2487  0.0966  0.0049
10320W        W26794   9.737  17.940   5.131 -0.2720 -0.0270  0.1186
10321W        W26795   3.379   8.632   0.309 -0.3296  0.0873  0.0059
10322W        W26796  12.126  11.390  12.777  0.4158  0.0423  0.2990
10323W        W26797   4.700  16.229  14.196  0.1048 -0.1187  0.2284
10324W        W26798  15.241  16.363   1.101 -0.1291  0.1382  0.0691
10325W        W26799  17.127  18.497  11.588 -0.0187  0.0650 -0.0735
10326W        W26800  12.170   9.190  12.354  0.1052  0.1198 -0.2668
10327W        W26801   0.664   0.581  10.953 -0.1511  0.0821  0.1663
10328W        W26802  13.558   3.682  14.254  0.0185  0.0925 -0.2493
10329W        W26803   5.634   0.446  14.201  0.0719 -0.0121 -0.1231
10330W        W26804   2.540   6.148  13.625  0.0821 -0.0006  0.2176
10331W        W26805  18.154   9.979  12.025  0.0448  0.1763 -0.0339
10332W        W26806   2.886   1.524  14.612  0.0338  0.0734  0.1516
10333W        W26807  14.956   0.319   2.938  0.2455  0.0952  0.3965
10334W        W26808  12.362  16.177   5.370 -0.1138 -0.1581  0.1611
10335W        W26809   3.379  12.527   2.724 -0.1269  0.0507 -0.1236
10336W        W26810  17.279   6.383   2.347  0.2038  0.1144  0.1006
10337W        W26811   2.968  15.645   5.062 -0.0644  0.3818  0.1303
10338W        W26812   4.914  12.539  12.059 -0.0609  0.1061 -0.0957
10339W        W26813  11.236   1.804  12.474  0.0502 -0.0309  0.2621
10340W        W26814   9.905   2.033   4.262 -0.0735  0.0263 -0.1510
10341W        W26815   4.019  15.299   4.216  0.0617  0.0793 -0.0392
10342W        W26816  12.147   6.619  14.864  0.0665 -0.4159  0.0488
10343W        W26817   3.058   9.329   4.536  0.2241 -0.1220  0.0709
10344W        W26818  12.369  18.069   5.226  0.1613  0.1471  0.1990
10345W        W26819   4.735  13.213   0.598  0.5225  0.1622  0.1327
10346W        W26820   5.000  10.905   3.121 -0.0262 -0.1102  0.1512
10347W        W26821  10.261   4.538   1.594  0.0433  0.3371  0.1302
10348W        W26822   7.229  12.604  13.609 -0.0754  0.0798 -0.0750
10349W        W26823   3.776   6.968   0.435 -0.0435 -0.1190 -0.0927
10350W        W26824  17.054  13.294  13.080 -0.0139  0.1065 -0.0214
10351W        W26825   2.424   0.336   2.028 -0.0439 -0.0699 -0.2058
10352W        W26826   7.770   7.097  12.547 -0.0433 -0.0175  0.1230
10353W        W26827   1.617   8.172   4.500 -0.0497  0.1678  0.3509
10354W        W26828  12.471  12.424   5.446  0.0434  0.0805 -0.0009
10355W        W26829   0.475  11.853   0.987  0.2162 -0.0049  0.1660
10356W        W26830  10.105  10.910  12.963 -0.0486 -0.4055 -0.2437
10357W        W26831  14.726   3.782   2.392  0.1882 -0.0651  0.2208
10358W        W26832  17.053   6.882   3.131  0.0717  0.0281  0.4258
10359W        W26833   6.797   8.069  10.917  0.3003  0.0317  0.2703
10360W        W26834  10.809   5.708   1.900  0.2401  0.1543  0.0536
10361W        W26835  16.518  17.635   0.324 -0.0977  0.0234 -0.2247
10362W        W26836  10.030   1.051  11.911  0.0325  0.0098 -0.1028
10363W        W26837  16.474   1.909  13.233  0.0250  0.0114  0.2337
10364W        W26838  14.111  15.309  12.137 -0.0163  0.1744  0.2347
10365W        W26839   5.722   0.307   4.765 -0.1291  0.2383  0.1328
10366W        W26840   2.116  11.045   1.059 -0.1678 -0.1666  0.4169
10367W        W26841  11.658   8.173   5.229 -0.0090 -0.2578 -0.3426
10368W        W26842   2.492  18.019   3.591  0.1307 -0.1034 -0.0927
10369W        W26843  13.139  12.008   1.301 -0.3627  0.0593 -0.4860
10370W        W26844  16.141   2.155  12.368  0.0922  0.0600  0.1880
10371W        W26845  14.784  10.549   0.882 -0.1712  0.1211  0.0579
10372W        W26846  10.545   7.218  11.175  0.4006  0.3854  0.1582
10373W        W26847  11.126  16.716   5.192  0.2246  0.1567 -0.1250
10374W        W26848   1.476  16.263  15.542  0.1196  0.1884 -0.0566
10375W        W26849  14.754  15.766   1.654  0.0301  0.6124 -0.2124
10376W        W26850  16.453   3.949   2.154 -0.2980  0.0724  0.2261
10377W        W26851  18.324   9.073  13.707  0.0032  0.0605 -0.0974
10378W        W26852   7.829   2.859  11.328 -0.2431 -0.1673  0.1066
10379W        W26853   6.543  13.385   5.325 -0.1250 -0.0881  0.2336
10380W        W26854  18.741  17.882  12.082  0.1250  0.1005  0.0927
10381W        W26855  12.757  15.539   0.302  0.1426  0.2163  0.3116
10382W        W26856   2.197   5.814  13.900  0.1855 -0.1801  0.0427
10383W        W26857  12.930   1.576  13.339  0.2682  0.0144 -0.0526
10384W        W26858  12.631   0.599  14.783 -0.2928  0.0876  0.2681
10385W        W26859  12.511  10.918  14.683  0.3420 -0.0313 -0.1489
10386W        W26860   0.404   6.725   5.092  0.1740 -0.2411 -0.2452
10387W        W26861  18.437   0.464   4.174 -0.1187 -0.2094 -0.1158
10388W        W26862  18.341  15.369   2.671  0.1748  0.0607 -0.1032
10389W        W26863   9.956  15.344   0.233  0.0564 -0.4439  0.2832
10390W        W26864   4.373   5.567   3.953 -0.0972  0.0442  0.1790
10391W        W26865  10.336   1.172  13.304 -0.3257 -0.1723  0.4064
10392W        W26866  17.124  17.151  13.532 -0.0125 -0.1244  0.0417
10393W        W26867   0.189   5.533   3.307 -0.0059 -0.2077 -0.1784
10394W        W26868  12.423  13.897  11.360 -0.2806 -0.2087 -0.3423
10395W        W26869  16.936   4.086  13.585  0.0513 -0.1111 -0.2383
10396W        W26870  18.301   8.333  14.492  0.5313  0.0902  0.0571
10397W        W26871   8.845  11.513  13.902  0.4945 -0.3960  0.1236
10398W        W26872   1.329  12.073  14.546  0.1489 -0.1396  0.0976
10399W        W26873   2.177   8.944   4.903  0.4562  0.0610 -0.0426
10400W        W26874  12.361  14.680   0.697 -0.3135 -0.2127  0.3335
10401W        W26875  17.262   4.710   2.008  0.0595  0.0418  0.1954
10402W        W26876   7.350   6.449   3.290  0.0806  0.1579 -0.2507
10403W        W26877   5.242   8.406   4.673  0.1836  0.2169 -0.1598
10404W        W26878  10.201  17.696  11.141  0.0240 -0.0424  0.0269
10405W        W26879  17.124   7.650  13.059 -0.2532 -0.1535  0.2494
10406W        W26880   0.919   9.278  13.307 -0.5211 -0.3530  0.2417
10407W        W26881   4.998  16.851  14.894  0.1786 -0.2590 -0.0318
10408W        W26882  11.435   0.299  15.489 -0.0670 -0.0586  0.3061
10409W        W26883  11.044  15.559  12.313 -0.7019 -0.2215  0.3117
10410W        W26884  12.197   8.079  11.310  0.0279 -0.0161 -0.3043
10411W        W26885  13.430  11.466   2.090  0.2043 -0.2278 -0.1741
10412W        W26886   2.439  17.146   1.833 -0.1936 -0.0275 -0.0506
10413W        W26887   6.442   7.438  12.513 -0.1381  0.1556  0.0020
10414W        W26888   0.876  15.060  13.314  0.1297  0.0138  0.0476
10415W        W26889  14.003   8.162  13.495 -0.0797 -0.2136  0.0992
10416W        W26890  14.712   1.182  10.424 -0.0543  0.1017 -0.0557
10417W        W26891  11.221  14.268   1.667  0.1287 -0.3981  0.0572
10418W        W26892  15.362  13.182   5.629  0.3520  0.1433 -0.0626
10419W        W26893  17.166   8.862   4.121  0.1031 -0.2093  0.1047
10420W        W26894  14.370  17.460   0.555  0.1838  0.0297 -0.0739
10421W        W26895   9.784   5.530  15.448 -0.3654 -0.1541  0.2478
10422W        W26896   8.190   2.604   4.781 -0.0243 -0.1352 -0.0989
10423W        W26897   1.863  18.470  11.266 -0.0161 -0.1196 -0.0444
10424W        W26898   0.903   4.573   3.263  0.0399  0.0619 -0.1313
10425W        W26899   2.369  14.020  10.701  0.0367 -0.1319 -0.2387
10426W        W26900  16.990   9.967  13.480  0.1845  0.2154  0.1299
10427W        W26901  15.992   6.135  12.432  0.1872 -0.1364 -0.0437
10428W        W26902  10.331  14.841  10.768 -0.1445 -0.1868  0.3067
10429W        W26903   3.606   9.861  12.151 -0.1144  0.1221  0.0945
10430W        W26904  12.531  10.842  15.307  0.0730 -0.2021 -0.1952
10431W        W26905  15.891  17.379   0.773 -0.0030 -0.1974 -0.2023
10432W        W26906  14.186  15.731  11.455  0.0054  0.0469  0.1747
10433W        W26907   7.038  17.070  14.187  0.0081  0.0857  0.0899
10434W        W26908  18.730  17.617  11.282 -0.0298  0.0001 -0.3023
10435W        W26909  13.362   8.475   5.491 -0.2511  0.3822 -0.2218
10436W        W26910   0.494   1.640   1.894 -0.1019 -0.0188  0.0207
10437W        W26911   3.157  16.642   0.747  0.1212 -0.0130  0.2307
10438W        W26912   5.219  17.746  13.040  0.0046  0.1136 -0.2088
10439W        W26913   1.336  12.083  12.334  0.2060  0.1761 -0.2171
10440W        W26914  10.145  11.585   5.288  0.0268  0.1794  0.0276
10441W        W26915  11.251   5.423  10.255  0.0150  0.0776  0.0906
10442W        W26916   2.328   5.919   3.434  0.1599  0.0410  0.2135
10443W        W26917  17.266   3.024   4.537  0.2180 -0.2689  0.3126
10444W        W26918   1.529  17.072   0.589 -0.0372  0.1148 -0.0650
10445W        W26919   7.681   6.192   1.797  0.0604  0.2011 -0.0067
10446W        W26920   8.403   4.233   4.428  0.1820 -0.1008  0.1265
10447W        W26921  17.494   9.161  12.440  0.0285 -0.0754  0.0092
10448W        W26922  16.481   0.870  12.375 -0.1323  0.0580  0.0377
10449W        W26923   3.112   3.250   3.373 -0.1909  0.0208 -0.1368
10450W        W26924   4.679   5.708   4.364  0.2645  0.0325  0.1346
10451W        W26925   3.634   8.586   3.150  0.0820  0.1681 -0.0530
10452W        W26926   0.136   8.722   2.699  0.0018  0.0227 -0.2111
10453W        W26927   8.220  15.598   0.708 -0.1222 -0.2296  0.0714
10454W        W26928   3.558  12.787   4.408 -0.0384 -0.1788  0.2906
10455W        W26929   7.792   4.145  12.695  0.4276  0.2628  0.0461
10456W        W26930  11.741   9.961  12.495  0.4410 -0.0854 -0.2157
10457W        W26931  11.504  11.068  15.421 -0.1895  0.2410 -0.3555
10458W        W26932  14.978  14.333   5.550  0.4762 -0.2643  0.0156
10459W        W26933  10.212   9.342   4.993  0.3264 -0.1061  0.2956
10460W        W26934   1.338  12.935  13.504 -0.0999 -0.1657  0.0234
10461W        W26935   6.663  14.185  12.734 -0.0551 -0.1498 -0.2577
10462W        W26936  18.588   2.873  10.880 -0.1017 -0.0806  0.0116
10463W        W26937   6.284   6.609  13.811 -0.1515  0.2187 -0.1497
10464W        W26938   0.555   7.710  13.792 -0.2535 -0.1827  0.2383
10465W        W26939  15.068   5.947  13.587 -0.2216  0.1583 -0.2129
10466W        W26940   4.361  18.401   4.285 -0.0752  0.1328 -0.0756
10467W        W26941   8.910  15.194   2.020  0.2512 -0.2165  0.2450
10468W        W26942   2.219  14.679  14.829  0.3134  0.1828 -0.0623
10469W        W26943  18.103  11.746  12.909 -0.0557 -0.0636  0.1667
10470W        W26944  18.134   7.317   0.052 -0.0548 -0.3267  0.3703
10471W        W26945  17.954  15.054   2.486  0.0169 -0.2485  0.1303
10472W        W26946  16.685  16.944  12.843  0.5083 -0.0316 -0.2100
10473W        W26947  14.366  13.672   3.372 -0.1987  0.0580 -0.0250
10474W        W26948   3.910   8.727  10.604  0.0566 -0.3027 -0.2319
10475W        W26949  16.247  11.459   6.233 -0.1554  0.1118 -0.0626
10476W        W26950  16.384   6.270   1.018 -0.1121 -0.0433 -0.0254
10477W        W26951  10.286  14.035  13.014 -0.0148 -0.0748 -0.1919
10478W        W26952  11.094   2.027   2.015  0.0200  0.0831 -0.0892
10479W        W26953  15.254   3.854  12.278  0.0974  0.0656 -0.0444
10480W        W26954  18.356  10.296   0.639 -0.0726 -0.1041 -0.5458
10481W        W26955   5.881   5.419  12.294 -0.2027  0.0201 -0.0667
10482W        W26956  13.570   0.117  13.864 -0.1616 -0.1075  0.0131
10483W        W26957  18.354  17.429   2.311  0.4136 -0.1925  0.2726
10484W        W26958  11.148  13.275   5.341  0.0276  0.1211  0.1822
10485W        W26959   1.954   0.303  12.149 -0.0250  0.1140 -0.2014
10486W        W26960   6.815  11.442   4.074  0.0574  0.0919  0.0427
10487W        W26961   6.105   3.056  12.402  0.0188  0.0127  0.4037
10488W        W26962  13.246   0.063   4.145  0.3459 -0.0534 -0.2094
10489W        W26963   1.991  12.071  12.559  0.0788  0.0436  0.1020
10490W        W26964   5.901  11.472   1.584  0.1502 -0.3005 -0.2208
10491W        W26965  11.103   5.329   0.636 -0.2253 -0.0805 -0.1470
10492W        W26966   3.233  11.295  12.452 -0.0445 -0.2163  0.0839
10493W        W26967   9.208  10.172   2.728 -0.2431 -0.1173  0.1336
10494W        W26968  11.716   7.490  12.809 -0.0662  0.0781  0.0559
10495W        W26969   9.607   8.036   5.047 -0.2434 -0.2901  0.2066
10496W        W26970  17.603   3.569   1.750 -0.0625 -0.2383  0.0925
10497W        W26971  17.252   3.054  14.488 -0.1873 -0.1491  0.3118
10498W        W26972   2.366  15.643  11.457 -0.2190 -0.4279 -0.0108
10499W        W26973   2.117  11.521  12.321  0.4694 -0.2495 -0.1852
10500W        W26974  14.303  16.089  14.061  0.2604  0.0348 -0.1214
10501W        W26975   3.850   7.227  13.151  0.1114 -0.2635 -0.0890
10502W        W26976  18.125  12.806   2.879 -0.0288 -0.0843  0.3187
10503W        W26977   7.964   3.476   3.018  0.2268  0.1804 -0.1091
10504W        W26978   1.342   7.963   1.637 -0.1069  0.2099 -0.0078
10505W        W26979   1.442   1.375  11.753  0.0623  0.2998  0.1347
10506W        W26980  15.733   8.878   1.953 -0.1396 -0.0542 -0.3674
10507W        W26981  10.888   1.054   6.320  0.2432 -0.0945  0.1695
10508W        W26982  10.799   5.957  12.425 -0.0722  0.1663  0.1506
10509W        W26983   1.750   1.333   3.644  0.1503  0.1356 -0.4698
10510W        W26984  16.244  15.146   4.274  0.0033 -0.2987  0.2252
10511W        W26985  10.721   6.195   2.155 -0.3093  0.0472  0.0559
10512W        W26986   3.664   6.018  14.136 -0.1100  0.0822 -0.0234
10513W        W26987   0.462  18.338   5.169  0.0866 -0.1389  0.2877
10514W        W26988  14.711  10.254   4.520 -0.0631  0.3202  0.1858
10515W        W26989  17.470   1.189  13.930  0.0908 -0.0234  0.0612
10516W        W26990   9.824   8.523   2.178  0.0467 -0.3539  0.1161
10517W        W26991   4.631   5.354  14.855  0.0683  0.0400  0.0147
10518W        W26992  15.670   9.369  14.449 -0.0919  0.0528 -0.1660
10519W        W26993  13.124   9.582   1.769 -0.1490  0.0217  0.2316
10520W        W26994   2.599   2.850  11.679  0.1728  0.2006 -0.0906
10521W        W26995   3.054  15.807  13.820  0.2368 -0.0919 -0.4871
10522W        W26996   6.753  14.468  13.994  0.2284 -0.2391  0.1083
10523W        W26997   4.740  12.142  13.277 -0.2017 -0.1171 -0.3287
10524W        W26998  11.634  15.206  11.615 -0.1376 -0.1747  0.0977
10525W        W26999   1.903  10.184   1.751 -0.2072  0.0077  0.0934
10526W        W27000  12.132  17.033  11.820  0.3504 -0.1734 -0.0112
10527W        W27001   0.996   9.188  15.422  0.2874 -0.0619  0.1892
10528W        W27002   8.585  10.185   4.559 -0.1235  0.0892 -0.1042
10529W        W27003   3.833   1.141  12.310  0.1194 -0.2143 -0.0764
10530W        W27004  16.110   3.042  12.731 -0.4431 -0.0188 -0.2378
10531W        W27005   9.570   9.839  13.595 -0.2474 -0.0636 -0.1012
10532W        W27006   0.816   1.173   4.205 -0.0589 -0.0101 -0.0118
10533W        W27007   9.339  14.957  14.935  0.0512  0.0639  0.2085
10534W        W27008   5.057  17.582   4.398  0.1788  0.0098 -0.0007
10535W        W27009   4.305  18.142  13.088 -0.0214  0.2106 -0.1349
10536W        W27010   8.904   2.055   2.349  0.1444 -0.2013  0.1029
10537W        W27011  16.457   3.337   0.239  0.1979 -0.1693 -0.1415
10538W        W27012   8.048  13.650  12.736 -0.2249 -0.0150 -0.3058
10539W        W27013  15.374  11.256   1.980  0.0433 -0.0403 -0.1139
10540W        W27014  14.845   5.608  13.870  0.0128  0.0319  0.1488
10541W        W27015   3.533  13.165  11.362 -0.0070  0.1016 -0.1765
10542W        W27016   0.563  15.719   3.825  0.2416  0.2851  0.0043
10543W        W27017  16.097   6.260   2.185 -0.0183  0.0199  0.0762
10544W        W27018   8.375  17.517   4.196 -0.0034  0.2530 -0.1053
10545W        W27019  17.700   7.108   0.860 -0.2073  0.0023  0.1632
10546W        W27020  18.281   3.675  14.865  0.0954  0.1843  0.1073
10547W        W27021  15.779  14.483  15.044  0.1971  0.0614 -0.0166
10548W        W27022   9.039   0.899  11.565 -0.0806  0.1144  0.0106
10549W        W27023   7.288  15.661   1.720 -0.1336  0.1362 -0.2168
10550W        W27024   2.777  12.412   1.773  0.1622 -0.0312 -0.0305
10551W        W27025  17.429   5.754   0.236 -0.3243 -0.4428  0.1409
10552W        W27026   1.092  10.069  10.667 -0.2175  0.1952  0.1662
10553W        W27027  18.462  18.392  11.219 -0.1120 -0.0555  0.1726
10554W        W27028  18.232   8.551  12.603  0.0105 -0.0917 -0.2369
10555W        W27029  12.068   1.543  14.821 -0.0891 -0.0435 -0.4048
10556W        W27030  17.179  17.480   0.915 -0.2048 -0.3166  0.0072
10557W        W27031  10.123   5.080  14.605  0.0630 -0.2011 -0.1974
10558W        W27032   6.379  11.729   1.614  0.0290  0.0323  0.2885
10559W        W27033   7.879  18.258   3.148  0.1258 -0.0675 -0.0081
10560W        W27034   4.201  16.562   4.668  0.2331 -0.3173  0.1838
10561W        W27035  17.340   7.467  11.030 -0.1967 -0.1900 -0.3379
10562W        W27036  17.350   2.716  13.982 -0.2073  0.4156  0.2828
10563W        W27037   5.774  10.216  11.794  0.1619 -0.1724  0.1603
10564W        W27038   0.581   9.689   2.638 -0.2151  0.3090 -0.0128
10565W        W27039   6.713   7.743  15.133  0.1383  0.0499  0.2452
10566W        W27040   4.587   3.864  13.995 -0.1727 -0.1223  0.1493
10567W        W27041  12.189  14.777   2.164  0.0461  0.0789  0.2329
10568W        W27042  18.198   6.522   1.147  0.0437  0.2946  0.3646
10569W        W27043   0.474   9.355  12.778  0.0754  0.1144 -0.0195
10570W        W27044  13.383   6.705   2.370  0.0342  0.3056  0.4008
10571W        W27045  17.973  13.311   0.844 -0.0569 -0.1162 -0.1758
10572W        W27046  13.420  17.017   5.416  0.2461  0.1110  0.2484
10573W        W27047  15.243   1.162   0.722  0.0956  0.2145  0.2832
10574W        W27048  12.956  13.673   4.574  0.0970  0.0250 -0.2692
10575W        W27049   5.555  10.193   0.686 -0.1018 -0.0901  0.0094
10576W        W27050   9.523   7.435  12.070 -0.0118 -0.2432  0.0934
10577W        W27051  13.335  11.612   4.473  0.3402 -0.1705 -0.1013
10578W        W27052  16.411  15.452  13.613  0.2485 -0.0250 -0.2736
10579W        W27053  16.203   6.509   3.213  0.1432 -0.2281 -0.3599
10580W        W27054   5.334  10.047   5.010 -0.1942 -0.2956 -0.0040
10581W        W27055   3.237  15.880   2.218 -0.0263  0.0783 -0.1343
10582W        W27056   3.490  16.453  14.810  0.1637  0.0459 -0.1996
10583W        W27057   1.416   7.873   3.633  0.1962  0.1535  0.1827
10584W        W27058   8.508   2.235   4.714 -0.1937 -0.0980 -0.0380
10585W        W27059   3.687  13.973   1.201  0.0934  0.0986  0.0895
10586W        W27060   0.156  18.519  14.631  0.2376  0.3280 -0.1029
10587W        W27061   5.700  10.703   0.515  0.0678  0.0656 -0.4535
10588W        W27062   8.818   3.767  12.802  0.3963  0.2172  0.3008
10589W        W27063   6.513   4.186   4.842 -0.0690 -0.1952  0.1240
10590W        W27064  11.261   5.023  11.625 -0.3809  0.0770  0.2540
10591W        W27065  11.143   7.098   4.698 -0.2287 -0.0133 -0.1496
10592W        W27066  12.366   2.969  14.844  0.1816  0.1688 -0.0478
10593W        W27067   8.706   9.741  12.346  0.0150  0.2163  0.0708
10594W        W27068   5.629  15.010  15.127  0.2090  0.1491 -0.0345
10595W        W27069  14.792   7.687   1.401 -0.2033  0.1375  0.1285
10596W        W27070  13.134   8.015  15.176 -0.0176  0.0114 -0.0670
10597W        W27071   8.207  16.569   4.140  0.0393 -0.0960  0.2188
10598W        W27072   5.904  12.757   5.048  0.2279 -0.4406  0.1980
10599W        W27073   4.549  10.728   2.981 -0.0841  0.0506 -0.1795
10600W        W27074   8.781   4.732  13.361  0.0380 -0.2064  0.2130
10601W        W27075  10.928   1.475  15.555  0.1564  0.1410  0.2767
10602W        W27076  12.477  14.326   0.370  0.2767  0.1836  0.3751
10603W        W27077  10.280  16.550  14.599 -0.1518 -0.0940  0.0600
10604W        W27078   3.474   7.393  15.327 -0.2517  0.1113 -0.0753
10605W        W27079   8.234  14.406  10.637 -0.0518  0.0310  0.0868
10606W        W27080  15.489   9.775  14.740  0.1933  0.2775  0.0603
10607W        W27081  11.523   6.632  11.872  0.1055  0.0840 -0.1151
10608W        W27082   2.659   7.379  11.751  0.3296 -0.1515  0.1599
10609W        W27083   9.057   7.003  14.398 -0.1650 -0.4851 -0.1536
10610W        W27084  15.999  11.550   3.530 -0.0338 -0.0158  0.3338
10611W        W27085  13.352   9.895  13.710  0.0996 -0.3489 -0.0569
10612W        W27086  18.336   6.466  14.605 -0.1412 -0.0420  0.0074
10613W        W27087  11.270  17.842   1.150 -0.2999  0.3583 -0.0953
10614W        W27088   5.187  17.010   0.729 -0.3902  0.2354  0.1500
10615W        W27089  10.321  18.261   3.499 -0.5104  0.5260 -0.0736
10616W        W27090   1.871   8.043   1.203 -0.0266  0.0133  0.1765
10617W        W27091  12.745   2.976   3.107  0.0668  0.0311 -0.1859
10618W        W27092   8.499  13.461  12.848  0.1201  0.3439  0.0483
10619W        W27093   4.639  16.600   3.960  0.0683 -0.0103 -0.0872
10620W        W27094  18.438  12.142  14.900 -0.0438 -0.0672  0.1420
10621W        W27095  10.758  14.270   0.206 -0.0155  0.0397  0.1122
10622W        W27096   8.211  11.362   2.682 -0.0461 -0.1688  0.1770
10623W        W27097  14.756  13.905   0.924 -0.1957 -0.3825 -0.1991
10624W        W27098   1.816  11.368   3.319  0.3036 -0.1488 -0.1272
10625W        W27099  12.967   6.179  12.566 -0.0151  0.0742  0.1342
10626W        W27100   1.752  16.915   1.206  0.0906 -0.0304 -0.2572
10627W        W27101   8.864   5.824   1.725 -0.1712  0.1280  0.4150
10628W        W27102  10.288   4.828  15.156 -0.0684 -0.1555  0.1094
10629W        W27103   5.830  17.721  14.293 -0.3175 -0.2004 -0.2657
10630W        W27104   0.777   7.402   0.990  0.0988 -0.0176  0.0297
10631W        W27105  16.200  16.534   4.099  0.0570  0.1375  0.0898
10632W        W27106   7.797  11.963   4.377 -0.0816  0.1773 -0.2947
10633W        W27107   3.987   8.615  14.701 -0.2611 -0.3863  0.3351
10634W        W27108   8.002  11.743  13.881 -0.2020 -0.0062 -0.1519
10635W        W27109  12.420  17.630   4.441 -0.3181  0.2621  0.2287
10636W        W27110  16.393   7.244  12.951  0.2033 -0.1501  0.0731
10637W        W27111  11.158   0.138   2.632 -0.1503 -0.0445  0.1029
10638W        W27112   9.321   9.500   1.593  0.1228 -0.0447 -0.0091
10639W        W27113   1.436  13.211  12.011 -0.0957  0.1904 -0.2789
10640W        W27114  10.779  10.354   4.715 -0.1911  0.0880 -0.0230
10641W        W27115   4.242  17.443  11.913  0.0575  0.0205  0.0902
10642W        W27116   3.160  10.068  11.320 -0.2399  0.2733  0.0656
10643W        W27117   0.988   7.404  14.260 -0.1399  0.0119 -0.2156
10644W        W27118   8.098  17.964  15.344  0.5326  0.1467 -0.0664
10645W        W27119  17.636   4.727  11.828  0.2008 -0.0094 -0.0678
10646W        W27120  15.838   9.550   6.229 -0.5454 -0.1704  0.0970
10647W        W27121  10.471   9.042  12.173 -0.1951  0.1151  0.3738
10648W        W27122  15.931  17.949   5.112 -0.2632  0.0075  0.3274
10649W        W27123   1.334   6.081  14.826  0.2746  0.1558  0.1027
10650W        W27124  11.898   3.318  14.165 -0.1686 -0.2344  0.0392
10651W        W27125  13.887  13.314   4.664 -0.3470 -0.0811  0.1396
10652W        W27126  17.549  16.401  11.694 -0.1012  0.0393  0.1830
10653W        W27127  12.706   5.167   3.138  0.0995 -0.0761  0.0758
10654W        W27128   1.820   0.441   3.592 -0.1146  0.2058  0.1397
10655W        W27129   8.948   4.692  15.358 -0.0880 -0.0019 -0.0022
10656W        W27130   8.950   9.223   1.351  0.1879  0.1781  0.2743
10657W        W27131  12.988   9.916  13.350  0.0004  0.2378 -0.1543
10658W        W27132   6.071   2.256   4.083  0.2838  0.1968  0.1868
10659W        W27133  16.798   3.112  14.035  0.0853 -0.3397  0.5419
10660W        W27134  18.615   9.379   2.135 -0.0762 -0.0955 -0.1538
10661W        W27135  10.328   8.466  13.355  0.4265 -0.0838  0.1267
10662W        W27136  13.638   6.858   0.969  0.1537 -0.3146  0.2840
10663W        W27137   8.412  12.532  13.567  0.0657 -0.2067 -0.2217
10664W        W27138  15.003  11.870  13.617 -0.1230 -0.1071 -0.1343
10665W        W27139  18.129   2.690   9.915 -0.1165  0.1868 -0.1106
10666W        W27140  14.163  10.566   5.180  0.0479  0.1107  0.1620
10667W        W27141   7.688   2.836  14.975  0.0983 -0.0650 -0.0655
10668W        W27142  15.308   9.360  10.461 -0.1226 -0.1413 -0.1698
10669W        W27143   0.052   5.632  13.429 -0.0291 -0.1894  0.0022
10670W        W27144  13.486   9.614   5.382 -0.1527  0.0838 -0.0395
10671W        W27145  10.340   3.133   3.788 -0.2632 -0.1007  0.1402
10672W        W27146  10.425  10.252   0.096  0.0443  0.1499 -0.0802
10673W        W27147   6.789   8.263  14.151 -0.1217 -0.1352 -0.1676
10674W        W27148   8.039   5.477   4.174 -0.1224 -0.2789  0.0779
10675W        W27149  13.883  14.747   2.747  0.3575 -0.2263  0.2240
10676W        W27150  16.542   1.470   3.955  0.1895  0.0355  0.2310
10677W        W27151   4.483   5.656   1.904  0.0421  0.1883 -0.2383
10678W        W27152  10.935   8.949  11.985 -0.2398 -0.1069 -0.0250
10679W        W27153   9.665   6.373   1.257 -0.0040 -0.2563 -0.1718
10680W        W27154   4.202  17.265  14.727 -0.2068 -0.1075  0.5172
10681W        W27155  14.403   3.306   3.800  0.0339  0.3950 -0.0220
10682W        W27156   4.294  10.418   3.316 -0.1159  0.0012  0.0597
10683W        W27157  18.598  14.139   4.048 -0.1138  0.0413  0.0061
10684W        W27158   5.720  14.994   4.900  0.1324  0.0775  0.0477
10685W        W27159  17.877  17.508   0.225  0.0328 -0.1137 -0.1668
10686W        W27160   8.566  11.987   5.947 -0.2244 -0.2073  0.2270
10687W        W27161  14.817  10.021  14.113 -0.2033 -0.0839  0.2006
10688W        W27162  18.183  12.902   3.885 -0.0977 -0.0341  0.0851
10689W        W27163  17.749  13.376  14.587 -0.1127  0.1655 -0.1292
10690W        W27164   6.531  13.902  13.159 -0.2671 -0.1614  0.0654
10691W        W27165   1.171   0.685   2.481 -0.1516 -0.1008  0.0118
10692W        W27166   6.130   8.693  11.165 -0.1296  0.0858 -0.2038
10693W        W27167   0.533   8.964   3.974  0.0315 -0.2642 -0.1052
10694W        W27168  12.433   5.573  11.008  0.0034 -0.1295 -0.0474
10695W        W27169   3.991  17.697  14.130  0.0913 -0.1337 -0.3006
10696W        W27170  18.612   6.015   1.562 -0.2943 -0.0839  0.2074
10697W        W27171   0.773   2.461  12.181  0.4859  0.3459 -0.0559
10698W        W27172   2.647   6.270   1.702  0.1480  0.0060  0.0387
10699W        W27173  14.643   1.398   5.151  0.2530 -0.3905 -0.0876
10700W        W27174  15.699   1.462  14.355 -0.0822 -0.2584  0.1219
10701W        W27175  18.528   4.347   4.549  0.1652  0.1226  0.0334
10702W        W27176   7.165   5.035   4.491  0.2094  0.3997  0.0210
10703W        W27177  10.124   2.306   1.960 -0.1507 -0.0670 -0.0194
10704W        W27178   3.595  13.731  14.199 -0.1923  0.0744  0.2401
10705W        W27179  14.164  17.401  13.703  0.1713  0.2820 -0.1708
10706W        W27180  12.773   4.197  15.352  0.0429 -0.1402 -0.0747
10707W        W27181  11.542   8.043   1.964 -0.2054  0.0382  0.1872
10708W        W27182   2.796   7.472   4.167 -0.1953  0.0308  0.0439
10709W        W27183   6.027   6.987   2.870  0.1567  0.2638 -0.2976
10710W        W27184  15.161  13.762   5.373  0.1784  0.0529 -0.1844
10711W        W27185  13.675  16.158   2.091 -0.2560  0.1138  0.1195
10712W        W27186  17.803  11.539  15.347  0.0103 -0.0009  0.2541
10713W        W27187  10.717  14.367  11.921 -0.3053  0.1200  0.1718
10714W        W27188   8.574  10.455   1.086  0.0390  0.2340  0.0935
10715W        W27189   4.246  10.591   1.075 -0.2359  0.0266 -0.3733
10716W        W27190   1.616  15.620   0.792  0.1352  0.2748 -0.4294
10717W        W27191   4.244   5.163   2.316 -0.2537 -0.2817 -0.0250
10718W        W27192  10.514  17.612   0.621  0.1570 -0.1934 -0.0091
10719W        W27193  10.861   9.915   2.160 -0.0144 -0.0453  0.1232
10720W        W27194   9.819   9.635  14.586 -0.0969 -0.3261 -0.0808
10721W        W27195   8.931   6.564  12.133  0.2258  0.0276 -0.0220
10722W        W27196  14.780   9.038   1.801 -0.0932  0.1272  0.1551
10723W        W27197   8.120  15.801  11.587  0.1169  0.2382  0.1964
10724W        W27198   8.932   2.957  11.993  0.3468  0.0188  0.2545
10725W        W27199   6.598  12.306  14.715 -0.1121  0.0267 -0.1730
10726W        W27200  15.160   9.953   3.444  0.0979 -0.1158  0.1211
10727W        W27201  14.373   4.872   2.451 -0.0692 -0.0556  0.0325
10728W        W27202  10.985   4.398   4.969 -0.1499  0.0792  0.3861
10729W        W27203   3.686   9.315  11.914  0.4003  0.2718  0.1353
10730W        W27204  18.539  17.994  11.596 -0.2158 -0.3726 -0.0627
10731W        W27205  17.279   1.679   0.390 -0.2262  0.0453 -0.2307
10732W        W27206   8.121   8.773   1.352  0.2982  0.2711  0.1249
10733W        W27207   2.236  13.110   0.393  0.2069 -0.2725  0.1147
10734W        W27208  15.803  10.392  12.965 -0.1537  0.0884 -0.3698
10735W        W27209   2.782   3.804   0.514 -0.1579 -0.1744  0.3272
10736W        W27210  14.321  11.410   0.398  0.1535  0.0944  0.1347
10737W        W27211  11.038   7.378   0.550 -0.0824  0.0450  0.2147
10738W        W27212   0.473  16.087   3.390  0.0502 -0.0724  0.1786
10739W        W27213   1.302   7.054  13.983  0.1699  0.0306 -0.0061
10740W        W27214  17.932   0.931  13.734  0.2138  0.0445  0.0162
10741W        W27215  13.928   8.758  12.558  0.4627 -0.0602 -0.0226
10742W        W27216   9.298  13.357   5.182 -0.4369 -0.0824 -0.2651
10743W        W27217   4.272   6.053   2.254  0.4451 -0.1882 -0.1892
10744W        W27218   9.566  13.804   4.946 -0.1359  0.0470  0.2800
10745W        W27219   5.882   3.755  11.472  0.1188  0.0443 -0.1175
10746W        W27220   3.703   1.637   1.224 -0.4415 -0.1707 -0.4672
10747W        W27221  16.854   1.081  12.672 -0.0425 -0.3885 -0.0440
10748W        W27222   5.179   5.482  14.969  0.3010 -0.1981  0.0555
10749W        W27223   7.538  14.785   4.935 -0.1684  0.1882 -0.2088
10750W        W27224   0.688  14.105  14.799 -0.1115  0.1338 -0.1959
10751W        W27225   8.538   5.184  14.129 -0.0705  0.1968  0.0915
10752W        W27226   4.620  13.549  15.516  0.3011  0.0390  0.3721
10753W        W27227   9.625   1.443  11.721  0.2443 -0.1274 -0.0124
10754W        W27228  13.128   1.815  13.789 -0.0951 -0.3041 -0.3131
10755W        W27229   2.711  14.151  15.191  0.1451 -0.1044  0.2122
10756W        W27230  10.577  11.725  14.518  0.3322 -0.1065 -0.1522
10757W        W27231  16.530   8.294  15.458  0.1186 -0.0357 -0.1286
10758W        W27232   5.189  14.588  12.437 -0.2647  0.0661 -0.0576
10759W        W27233   6.440   9.075  12.392 -0.1479  0.0878 -0.0043
10760W        W27234  12.179  13.169   2.390  0.0005  0.2645  0.0156
10761W        W27235   3.034   7.583   5.586  0.0537  0.1618  0.0374
10762W        W27236   1.815  16.326   2.042  0.2717  0.0354 -0.2241
10763W        W27237  16.030   8.409   0.541 -0.2250 -0.1044  0.0469
10764W        W27238   3.083  13.394   5.909 -0.2642  0.2024  0.2609
10765W        W27239   8.190   6.599   9.925 -0.0046 -0.2676 -0.1180
10766W        W27240  18.504  11.408  11.455  0.0199  0.3472 -0.1500
10767W        W27241   7.442   5.448  10.888 -0.0425  0.0157 -0.0012
10768W        W27242  12.861   2.996  15.204  0.2866 -0.2026 -0.2423
10769W        W27243   2.540   0.784   1.691  0.0905  0.1837  0.0548
10770W        W27244   6.716   6.879   2.072  0.2037 -0.3270 -0.0260
10771W        W27245   3.045   5.141  10.313  0.0454 -0.1690  0.0135
10772W        W27246  17.248  17.080  12.748  0.2173 -0.2919  0.1964
10773W        W27247   3.161  15.158   2.535 -0.1258 -0.3340 -0.0649
10774W        W27248  12.302   5.123   3.951  0.0844 -0.2206  0.1906
10775W        W27249   4.895   9.408  11.829  0.2934  0.0562 -0.1900
10776W        W27250  15.168   5.081   2.270 -0.2011 -0.2765  0.2727
10777W        W27251  14.952  14.156   4.111 -0.2419 -0.1466 -0.0052
10778W        W27252   0.150  16.684   2.570  0.1094  0.2658  0.0368
10779W        W27253  17.846   1.902   4.778  0.1089  0.1404  0.0812
10780W        W27254   7.201   9.608  10.608 -0.1237 -0.2550 -0.2962
10781W        W27255  12.332  10.006   1.957 -0.0979 -0.0389 -0.1262
10782W        W27256  15.856  13.347  10.724 -0.0144  0.0394 -0.0366
10783W        W27257  12.772   3.191  12.623 -0.1600  0.0901  0.1149
10784W        W27258   4.506   9.827   9.864  0.3238 -0.1262 -0.4070
10785W        W27259  11.677  15.208  14.082 -0.1902  0.0150 -0.0235
10786W        W27260   3.849  14.515  14.044  0.3392 -0.2080  0.1317
10787W        W27261   2.975   0.595   2.018 -0.0923  0.1335 -0.1431
10788W        W27262   9.685   7.075   4.474 -0.1842  0.1329  0.1594
10789W        W27263   7.697  12.353   1.869 -0.1644  0.0904 -0.1076
10790W        W27264  10.557   5.576  12.221  0.0122 -0.1651  0.1510
10791W        W27265  15.731   4.514   3.617  0.1035 -0.0737 -0.1060
10792W        W27266  15.578  11.978   4.135  0.0717  0.2191  0.4556
10793W        W27267  13.790   3.755   3.616 -0.0212 -0.2030 -0.1409
10794W        W27268  17.074   6.046   4.117  0.0319  0.0491  0.1324
10795W        W27269   9.903  15.941  11.663  0.1807  0.0324 -0.0093
10796W        W27270   4.701  14.011  11.074  0.2352 -0.0021  0.0298
10797W        W27271  10.599  15.817  13.970  0.0386  0.2608  0.0741
10798W        W27272   2.043  17.887   0.573  0.2548 -0.2318  0.3552
10799W        W27273  16.223   7.244  10.248  0.0315 -0.0213 -0.0515
10800W        W27274  14.543  14.863  13.892 -0.0903 -0.1922  0.1462
10801W        W27275   2.907   2.470  14.084 -0.0901  0.0035 -0.2530
10802W        W27276   4.591   0.611  11.909 -0.0876 -0.0459 -0.0198
10803W        W27277   3.993   8.909   3.011  0.1043  0.0954 -0.1932
10804W        W27278   7.244  14.641  14.156  0.4070  0.0137 -0.0654
10805W        W27279   3.061   8.897  13.152  0.0276 -0.0102  0.0436
10806W        W27280   6.011   3.625  14.170  0.2592 -0.0982  0.0642
10807W        W27281   0.487  17.653   3.848  0.1586  0.0501  0.1181
10808W        W27282  17.007   7.874  11.251  0.0008 -0.1533 -0.0143
10809W        W27283  14.076  10.571   1.926 -0.1325  0.3648  0.2185
10810W        W27284   9.878   6.387   3.614  0.1059  0.0654  0.1445
10811W        W27285  18.615  14.489  11.638 -0.1126 -0.0881  0.0292
10812W        W27286   1.427  18.201  11.405 -0.3836  0.0786  0.4036
10813W        W27287   9.567   2.128   4.874 -0.2700  0.0337  0.1121
10814W        W27288   4.745   3.975   4.832  0.1681  0.0598 -0.2807
10815W        W27289  12.554  11.774   1.474  0.0445 -0.2073 -0.0051
10816W        W27290   7.638   6.542   4.153  0.1201  0.0710  0.2913
10817W        W27291   8.781   1.588   2.501 -0.3826 -0.2000 -0.0214
10818W        W27292   1.125  12.911   3.185 -0.0478  0.0341  0.0218
10819W        W27293  14.679   8.504  13.233 -0.1189 -0.1569  0.0307
10820W        W27294   4.156   8.717  11.587 -0.0792  0.1484  0.0150
10821W        W27295  14.535   4.334   2.624  0.0704  0.0318  0.1293
10822W        W27296   1.673   0.907   2.144 -0.1507 -0.1434 -0.0485
10823W        W27297   7.197   2.824   2.985 -0.2178 -0.0458  0.0067
10824W        W27298  17.296   9.264   9.820  0.0744 -0.0677 -0.2120
10825W        W27299   0.414  14.607  13.437 -0.0636  0.1160 -0.2579
10826W        W27300   4.887  15.858  10.743 -0.1823 -0.3255 -0.1980
10827W        W27301  12.919   3.462  11.492 -0.1072 -0.1208  0.2294
10828W        W27302  10.389  16.097   5.325 -0.0605  0.0314 -0.0556
10829W        W27303   5.301   2.567  10.937 -0.2471 -0.1151  0.0880
10830W        W27304   6.638   5.846   0.114 -0.0471 -0.3256 -0.3445
10831W        W27305  11.986   7.270   3.241 -0.0464  0.1516  0.1195
10832W        W27306   8.235  16.205  14.874 -0.0407 -0.0562 -0.1525
10833W        W27307   5.488   7.007  13.259  0.4754  0.0833 -0.1436
10834W        W27308   2.479  11.276  12.821 -0.0284 -0.0714  0.0510
10835W        W27309  10.018  15.179  14.523  0.0772  0.4400 -0.2961
10836W        W27310  18.394   5.787   0.426 -0.0399  0.0606  0.0337
10837W        W27311  14.448  12.103   3.186 -0.0283  0.0825  0.2818
10838W        W27312  10.406  14.076   1.459 -0.1573  0.3337 -0.0763
10839W        W27313   1.639   7.765   0.847 -0.2506 -0.1079  0.0609
10840W        W27314   1.156   6.148  13.365 -0.1372  0.0690 -0.0556
10841W        W27315   4.651   1.823  11.571 -0.0117 -0.4375 -0.0677
10842W        W27316  16.581   2.388  13.686 -0.1156 -0.1261  0.1591
10843W        W27317   6.706  15.312  11.966  0.0164  0.1870 -0.3748
10844W        W27318   1.224   3.803   1.062  0.3142  0.1260  0.0724
10845W        W27319  14.339  15.492   1.579 -0.1053  0.4850  0.0008
10846W        W27320  10.962   8.844   0.229 -0.0214 -0.1592  0.0214
10847W        W27321  15.851   6.992   0.543  0.1895  0.0330 -0.0132
10848W        W27322  14.384   0.899   2.934 -0.3451  0.0460  0.1609
10849W        W27323   7.216  18.344  13.120 -0.1274 -0.2532  0.1319
10850W        W27324   4.885  17.521   3.468 -0.0384  0.0969 -0.3475
10851W        W27325   3.666   8.243   3.988  0.2518  0.2220  0.2320
10852W        W27326  16.054   4.110  15.483 -0.3167  0.1165 -0.1105
10853W        W27327   7.861   1.766   4.628 -0.3550  0.1283 -0.0251
10854W        W27328  10.545   8.603   3.065  0.2131 -0.0718 -0.0061
10855W        W27329   2.675   1.614   1.546  0.1315  0.1080  0.0631
10856W        W27330   0.025   3.662  10.996 -0.0109 -0.3115  0.1319
10857W        W27331   0.413   3.235  13.744  0.1076  0.1234 -0.1000
10858W        W27332  15.357  10.324   3.882  0.1915 -0.1507  0.2193
10859W        W27333  13.250  11.491   1.226  0.1185 -0.1203 -0.0490
10860W        W27334   9.409  18.598  14.220  0.2979 -0.0721 -0.2507
10861W        W27335   1.805  18.393  14.757  0.0810  0.1778 -0.2049
10862W        W27336   3.517   8.224  13.652  0.0804  0.1786  0.0972
10863W        W27337  13.651  16.643  15.186 -0.0011 -0.2959 -0.1579
10864W        W27338  12.284   3.728  13.383  0.2480 -0.0245 -0.5226
10865W        W27339   9.376   7.567  11.082  0.1059  0.0496  0.0035
10866W        W27340  13.655   8.765   2.683  0.2737 -0.1584 -0.0962
10867W        W27341   6.697   6.451   2.673 -0.1286  0.0723  0.0108
10868W        W27342   5.634  12.182   1.008 -0.2492 -0.0962  0.2702
10869W        W27343   7.001   0.837   2.599  0.1245  0.2204  0.2656
10870W        W27344   5.135  12.640   2.805 -0.1705  0.0828  0.0892
10871W        W27345   9.625  16.661   1.089 -0.0663  0.0364  0.1276
10872W        W27346   4.444  14.644   0.660 -0.0610  0.2338  0.6563
10873W        W27347  10.472   0.116  10.864  0.1214  0.3704 -0.1254
10874W        W27348  16.648   7.465  12.546  0.3466 -0.0486  0.0153
10875W        W27349   1.878  17.973  13.585 -0.0507  0.1701  0.3278
10876W        W27350   3.109   3.914   2.771 -0.2465 -0.2196  0.0449
10877W        W27351   7.703   8.748  12.848  0.0312  0.1446  0.3209
10878W        W27352  15.755   7.545   4.807 -0.2064  0.2265 -0.4234
10879W        W27353  14.495  17.409  14.564  0.3196 -0.0066  0.2824
10880W        W27354  18.265   4.531   0.189 -0.0589 -0.4788  0.1763
10881W        W27355   7.833   2.027  14.063 -0.0015 -0.1518  0.0603
10882W        W27356   7.573  12.505   0.765  0.4883  0.2504 -0.1264
10883W        W27357  17.721   9.297   0.010 -0.0186  0.0303  0.0753
10884W        W27358   1.922   4.881  12.135 -0.2321  0.2791 -0.3697
10885W        W27359   3.872  10.127  10.512  0.2965  0.0243  0.0249
10886W        W27360   1.732  18.486   0.803  0.0400 -0.0910 -0.0743
10887W        W27361  14.205   3.109   4.272 -0.1486  0.0501 -0.2358
10888W        W27362  13.068   9.984   0.476  0.0417 -0.1064 -0.0735
10889W        W27363   7.569  12.567  14.994 -0.1439  0.2328  0.2843
10890W        W27364   8.686  16.406  15.012 -0.0894 -0.1054 -0.1322
10891W        W27365  14.325   8.381   0.372 -0.1234 -0.1027 -0.1574
10892W        W27366  10.754  15.404   4.952  0.1141 -0.3364  0.0169
10893W        W27367  17.572  10.478  13.024  0.1412 -0.0243 -0.0023
10894W        W27368   9.127  18.030   3.966  0.0912 -0.2083  0.0451
10895W        W27369   5.634  10.043  12.291 -0.0275  0.0755 -0.0531
10896W        W27370  13.054   0.033   1.286  0.1135  0.0517 -0.0020
10897W        W27371  11.619  13.771  13.424 -0.2693  0.2280 -0.1579
10898W        W27372  12.145  15.160  12.472 -0.1542  0.1482 -0.2321
10899W        W27373   6.845   0.563  11.687 -0.1878 -0.4226  0.2180
10900W        W27374   3.891  13.773  10.830  0.0778 -0.0753  0.2839
10901W        W27375   3.545   6.381   2.229 -0.3485  0.2040  0.0241
10902W        W27376   1.556   1.918  15.108  0.1758 -0.0775 -0.2730
10903W        W27377   6.765  12.250   1.430 -0.1340  0.1528 -0.3093
10904W        W27378  12.282  17.217  12.346 -0.1190  0.3296 -0.4412
10905W        W27379  18.002  13.015  14.295 -0.0220 -0.1172  0.3413
10906W        W27380   4.249   8.404   1.751  0.0858 -0.0531 -0.0846
10907W        W27381   2.010   1.319   2.269  0.0317 -0.1403 -0.1419
10908W        W27382   4.163  14.504   3.244 -0.2524  0.4043  0.0017
10909W        W27383   3.188  15.146   0.596  0.1823  0.1040  0.0874
10910W        W27384  13.298  12.745  14.432  0.2565 -0.0870 -0.3488
10911W        W27385  16.286   5.574  14.581 -0.0462  0.1345  0.2328
10912W        W27386   4.416  12.403  11.951  0.0133  0.2695  0.0741
10913W        W27387   4.254   4.728  14.397  0.2607 -0.0313 -0.0253
10914W        W27388   9.769  14.662  11.646 -0.0721 -0.2794  0.2135
10915W        W27389   7.899   0.768  12.305 -0.0357 -0.1563 -0.3074
10916W        W27390  10.643  16.249  13.706  0.1684  0.2700 -0.1816
10917W        W27391   4.243   5.624   0.147  0.0210 -0.1220  0.1298
10918W        W27392   4.336  14.787  13.730 -0.3576  0.3213 -0.1270
10919W        W27393  11.795   5.101  11.791 -0.4222 -0.1028  0.0639
10920W        W27394  14.729  12.104   2.662  0.2345 -0.0070 -0.2648
10921W        W27395  13.616  13.072   3.533 -0.0000 -0.2448 -0.1146
10922W        W27396  10.619  16.705   6.503  0.0159 -0.0185  0.0861
10923W        W27397   2.587  10.950  11.713 -0.0340  0.2155 -0.1713
10924W        W27398   9.029   2.708  14.476  0.0160 -0.0212 -0.3123
10925W        W27399   6.242  15.087   2.475 -0.3468  0.0880  0.0525
10926W        W27400   5.233   0.418  14.797  0.1042  0.0230 -0.0571
10927W        W27401   8.808   2.747  12.398  0.3025  0.2118 -0.1103
10928W        W27402  18.567   5.190   1.621 -0.0963 -0.0896  0.1593
10929W        W27403   7.272  17.176  12.957 -0.1929  0.3976  0.0904
10930W        W27404   8.950   7.984  12.010  0.2440  0.0493 -0.0112
10931W        W27405   1.580  18.790  11.600 -0.0427  0.1231 -0.0760
10932W        W27406  10.420   5.802   2.197 -0.0006 -0.3043 -0.0613
10933W        W27407  17.086   7.104   5.527 -0.2465  0.1715 -0.1469
10934W        W27408   3.638   9.997   3.191  0.0276 -0.0632 -0.1682
10935W        W27409   5.212   2.502   1.057 -0.2530 -0.0402 -0.1779
10936W        W27410  16.981  17.654  12.272  0.1238 -0.1603  0.0391
10937W        W27411   6.128   9.826   4.488 -0.0491  0.2935 -0.3700
10938W        W27412   8.175   7.656   2.847 -0.0870  0.0848 -0.2165
10939W        W27413  12.388  13.054  14.900 -0.0254 -0.0486  0.2003
10940W        W27414  17.821   3.400   3.078  0.1390  0.0158 -0.2545
10941W        W27415  13.951   0.922  12.626  0.0095 -0.2198 -0.1926
10942W        W27416  12.329   2.769   5.112  0.2395 -0.1763 -0.2847
10943W        W27417  15.257  11.468   2.467  0.0836  0.1945 -0.2633
10944W        W27418  16.476   9.162  13.353  0.3910 -0.3721  0.1808
10945W        W27419  16.379  10.153   0.829  0.0391  0.3312 -0.1107
10946W        W27420   6.956   3.669   0.635 -0.0490 -0.0934 -0.3303
10947W        W27421   5.998   6.026   3.711  0.1501  0.2304  0.1588
10948W        W27422   7.518   0.481  13.391 -0.2125 -0.0212  0.2209
10949W        W27423   9.986  12.598   3.296 -0.0725 -0.1097 -0.1736
10950W        W27424  10.381   8.192  14.292  0.2819 -0.3128 -0.1497
10951W        W27425  13.234  14.302  10.839 -0.3048 -0.0355 -0.4402
10952W        W27426   8.314  17.513  10.781  0.0451 -0.1455 -0.1303
10953W        W27427   7.903  12.666   2.142  0.1618 -0.1162 -0.3203
10954W        W27428   5.633   4.017   4.277  0.3692  0.0620 -0.0434
10955W        W27429   7.040   6.352   1.288  0.1401 -0.1257 -0.3902
10956W        W27430   3.596   4.547  14.528 -0.2200 -0.0213 -0.0520
10957W        W27431  13.351   0.791  12.051 -0.1413  0.0410  0.1270
10958W        W27432   3.593   9.677  10.546  0.2557 -0.0814 -0.0485
10959W        W27433  10.583   5.044  12.854  0.1093 -0.1020 -0.0922
10960W        W27434   8.667  13.754  15.151  0.1342 -0.2092  0.2219
10961W        W27435   2.865   6.893   9.174 -0.3713 -0.1321 -0.0706
10962W        W27436   6.047   4.979  12.254 -0.0488  0.1814 -0.1178
10963W        W27437  16.951  13.288   2.437  0.1564 -0.1669  0.2290
10964W        W27438  11.501   3.305   3.796  0.1256  0.0324  0.3030
10965W        W27439  10.782  14.321   2.004  0.2130 -0.2913 -0.1141
10966W        W27440   7.660   1.028   2.593 -0.1953  0.2115  0.0597
10967W        W27441  16.910  17.463  15.491 -0.0612  0.0867 -0.2187
10968W        W27442   1.432   5.304  10.612 -0.3720  0.2112  0.1172
10969W        W27443  15.254  13.902   2.895 -0.1119  0.1060 -0.1191
10970W        W27444   5.425   3.961   1.571 -0.0384  0.2272 -0.0996
10971W        W27445  17.218   0.229   5.343  0.0810  0.1455 -0.0391
10972W        W27446   8.576   9.407   1.070 -0.1181  0.1516 -0.2567
10973W        W27447   9.541   7.327   0.855  0.1497  0.0028  0.4604
10974W        W27448   9.624   2.721  12.160 -0.1769  0.1318 -0.0902
10975W        W27449   5.464  10.765  14.645  0.1649  0.0318  0.0732
10976W        W27450   9.560   4.619  11.172  0.2838  0.0388 -0.0252
10977W        W27451   7.763   9.736   3.864 -0.1075  0.0817 -0.0046
10978W        W27452  13.926   8.908   1.414  0.2280  0.3326 -0.0169
10979W        W27453   2.840   9.253  14.496 -0.0715 -0.0596  0.4185
10980W        W27454   3.016   6.718  12.959  0.0030 -0.0330  0.0487
10981W        W27455  16.243   9.982   1.766 -0.1151 -0.3947  0.0966
10982W        W27456   1.167   8.353  13.228  0.3493 -0.1322 -0.0201
10983W        W27457  12.370   6.445  11.769  0.0816 -0.0946 -0.1090
10984W        W27458   4.543  17.876   4.352  0.1447 -0.2301  0.0409
10985W        W27459   1.290  13.555  13.490  0.3080  0.0587 -0.2816
10986W        W27460   2.434  18.004   0.222  0.1222  0.0905  0.0884
10987W        W27461   8.857  10.991  12.445 -0.0998  0.0042 -0.0218
10988W        W27462   0.518   3.576   4.197  0.1992  0.1174 -0.2950
10989W        W27463   1.333  13.150  10.493 -0.0832  0.0250 -0.3114
10990W        W27464  17.794  12.163  11.769 -0.1793  0.1327  0.3236
10991W        W27465  17.692   2.922  11.701 -0.1509 -0.2559 -0.2526
10992W        W27466  14.926  12.516  13.803  0.1015 -0.0913 -0.0805
10993W        W27467  15.689  10.113  15.193 -0.0323 -0.1359 -0.2229
10994W        W27468   8.995  14.432  12.142  0.0160 -0.0352 -0.3184
10995W        W27469   6.461  14.382  13.128  0.0535  0.0118  0.1983
10996W        W27470   9.132  16.923  11.365  0.4271 -0.1316 -0.0312
10997W        W27471   1.689  10.123   1.297 -0.1540  0.0225  0.1243
10998W        W27472  10.736  15.726  11.908  0.0931  0.0483 -0.0436
10999W        W27473   1.453   9.304  14.281 -0.0246  0.1950 -0.2112
11000W        W27474   2.298   4.016  13.179  0.2075 -0.1035  0.0628
11001W        W27475  15.673   9.980  12.681  0.4007 -0.2038  0.2557
11002W        W27476  11.958  11.016   3.124  0.4039  0.1863  0.1612
11003W        W27477   6.833  17.097   4.749 -0.0080 -0.3789  0.0978
11004W        W27478  16.195  18.510   3.681 -0.0316  0.3030 -0.2257
11005W        W27479   6.993   5.653   2.457 -0.0118  0.0232  0.0286
11006W        W27480   5.914   2.265  10.196  0.1604 -0.0227 -0.1993
11007W        W27481   7.627  11.158  14.751  0.1279 -0.1018 -0.0384
11008W        W27482   8.529   6.986  14.368  0.1179 -0.0686 -0.0547
11009W        W27483  15.196   9.162   5.611 -0.1922 -0.3019  0.0701
11010W        W27484  11.385   6.394  11.475 -0.0869 -0.1382 -0.2273
11011W        W27485   3.614  14.211   1.656 -0.0343 -0.1850 -0.0382
11012W        W27486  14.811   9.167  14.532  0.0473 -0.1103 -0.2990
11013W        W27487   2.329   4.018  12.275 -0.1590 -0.0323  0.1148
11014W        W27488  16.027   9.106   5.568 -0.0261 -0.2613 -0.0915
11015W        W27489   8.902  15.309   1.498  0.0954  0.1341  0.1146
11016W        W27490  14.178   2.356  14.042 -0.0971  0.1275 -0.1451
11017W        W27491   9.554   6.321  14.097 -0.1417  0.0930 -0.1240
11018W        W27492   6.015  16.973   5.519  0.3111  0.0143 -0.0624
11019W        W27493  10.906   0.859  12.687 -0.2326  0.1466  0.1452
11020W        W27494  15.138   0.466  15.286  0.0138  0.0575  0.0068
11021W        W27495   5.819   2.588   5.248 -0.1669  0.1650 -0.2925
11022W        W27496  12.524  12.651  15.232 -0.1201  0.0407  0.1769
11023W        W27497  16.343  17.358  15.439  0.0034 -0.2224 -0.1103
11024W        W27498  11.708  18.479  11.829 -0.0445  0.0333  0.1554
11025W        W27499   9.663   0.123  13.890  0.0765  0.0670  0.3621
11026W        W27500   0.027   1.140   3.188 -0.0894  0.1706  0.1714
11027W        W27501   9.220  11.189  13.688 -0.1323 -0.1601 -0.3125
11028W        W27502  11.936   0.746   5.362 -0.0196 -0.0651 -0.0058
11029W        W27503   0.030  16.952  11.019 -0.1169  0.2002 -0.2198
11030W        W27504  15.881   3.198   1.409  0.2249 -0.0134  0.0253
11031W        W27505   7.803  15.267   0.822  0.2395  0.3412 -0.3610
11032W        W27506  13.547  14.194  13.326 -0.1023  0.1437  0.0476
11033W        W27507   4.907  16.597  14.480  0.0885  0.2402 -0.1012
11034W        W27508   9.540  14.888   3.924 -0.0177 -0.0465 -0.0692
11035W        W27509   6.076   2.012   0.576  0.2557  0.1043  0.0639
11036W        W27510  16.512  18.189  14.554 -0.0268  0.1216  0.3203
11037W        W27511   7.742   1.788  15.262  0.1013  0.1419 -0.0901
11038W        W27512  15.734   5.555  14.299  0.0794 -0.1169  0.1431
11039W        W27513   4.528   1.283   4.694 -0.0725 -0.1389 -0.1086
11040W        W27514  12.820   1.580  11.639 -0.0006  0.1368 -0.4333
11041W        W27515   4.429  11.790  13.952  0.1496  0.2926  0.2867
11042W        W27516  10.260   9.261  11.012  0.1063  0.0562  0.1778
11043W        W27517   7.063  12.039  11.544 -0.0490  0.2746  0.2445
11044W        W27518  16.687  17.090   5.317 -0.2105 -0.0024  0.0420
11045W        W27519   2.140   1.277  14.102 -0.2850  0.2357  0.0374
11046W        W27520   4.132   0.048  14.191  0.4373 -0.1620  0.1450
11047W        W27521   6.534  14.042   2.839 -0.1237 -0.0181  0.1567
11048W        W27522   8.172  12.217  13.973 -0.2587  0.1633 -0.2396
11049W        W27523  13.755  13.448   4.236 -0.0101  0.0214  0.2533
11050W        W27524   2.808   7.452  14.120 -0.0946  0.3291 -0.1240
11051W        W27525   9.954  14.190  15.250 -0.2192 -0.1109 -0.3237
11052W        W27526   5.684  16.378  14.960 -0.1127 -0.0671  0.1092
11053W        W27527  15.798  16.661   3.747 -0.1047 -0.0971 -0.0437
11054W        W27528  12.596   2.220  15.563 -0.1313 -0.3152 -0.1582
11055W        W27529  17.399   8.126   3.142 -0.0827  0.0455 -0.1024
11056W        W27530  18.382  17.867  12.467  0.2524 -0.2196  0.3001
11057W        W27531   6.309   5.111   4.147  0.0371 -0.4824 -0.0952
11058W        W27532   0.117   8.655   2.236 -0.3161  0.1220  0.0498
11059W        W27533   8.489  15.244  10.424 -0.1862 -0.0495 -0.2223
11060W        W27534  11.263   7.308   2.966  0.1320  0.1795  0.1061
11061W        W27535  15.047   7.284   3.166 -0.3306  0.2350  0.1345
11062W        W27536  17.438   1.954   1.991 -0.0997 -0.2612  0.1413
11063W        W27537   5.312   5.488  12.198 -0.2244  0.3263 -0.1005
11064W        W27538  10.148  17.968   0.328 -0.0521 -0.0068  0.1293
11065W        W27539   5.973  16.047  11.240  0.2212  0.0022  0.0279
11066W        W27540   1.233   3.273  14.220 -0.0162  0.1009  0.1931
11067W        W27541  14.134  17.142  11.994 -0.1900 -0.0166 -0.0052
11068W        W27542   3.477  10.790  14.514  0.1042 -0.0947  0.0661
11069W        W27543   3.296   6.744  13.546 -0.1661 -0.1957  0.3718
11070W        W27544  15.161  18.661  14.705 -0.1380  0.1514  0.2840
11071W        W27545   9.749  11.883   2.790  0.2817 -0.2193 -0.1846
11072W        W27546  12.747  12.989  12.244 -0.0280 -0.2527  0.0786
11073W        W27547  11.390  10.257  10.957 -0.3664 -0.1626  0.2668
11074W        W27548  16.226  17.713  13.435 -0.2748 -0.0519  0.0435
11075W        W27549   6.477  18.038  11.933 -0.3601  0.6262 -0.0182
11076W        W27550   8.937  12.317   0.701  0.3578 -0.2762  0.1828
11077W        W27551  15.891  10.981  15.384 -0.0845  0.1391  0.0223
11078W        W27552  17.910   9.399  11.338 -0.4093  0.1937  0.2507
11079W        W27553   0.131  15.484  11.512  0.0366 -0.1101  0.0423
11080W        W27554  12.661   0.732   4.263 -0.0260 -0.0736 -0.0956
11081W        W27555   8.628   2.127   0.040 -0.0059 -0.0694 -0.0081
11082W        W27556  16.247   0.397  14.122 -0.4490  0.0803 -0.0328
11083W        W27557   7.306   7.178   1.502 -0.1142 -0.1668  0.1985
11084W        W27558  10.192  12.983   5.004 -0.2735 -0.2741 -0.0675
11085W        W27559   8.822   9.579  10.746  0.3796  0.0945 -0.0080
11086W        W27560   7.124   1.968  15.279 -0.1928  0.1648  0.1933
11087W        W27561   1.706   0.404  15.120 -0.2086 -0.0386  0.0973
11088W        W27562   5.702  10.066  10.447 -0.0823 -0.2189  0.1528
11089W        W27563   5.047   1.894  15.416  0.2107  0.2050  0.0054
11090W        W27564   7.812   7.533   2.231 -0.3229  0.0508  0.1890
11091W        W27565   0.376   9.871   0.975 -0.3078 -0.0129 -0.2035
11092W        W27566  11.463   8.333  11.601 -0.0641  0.2959  0.2485
11093W        W27567  15.338   4.260   0.513 -0.1665 -0.0241 -0.1630
11094W        W27568  16.074   9.558  13.582 -0.0610  0.1215 -0.0540
11095W        W27569   6.023   9.758  13.314 -0.0932  0.1480 -0.0825
11096W        W27570  16.691   6.525   2.940 -0.1580  0.0220 -0.1140
11097W        W27571   7.699   6.842  14.720  0.3095  0.0856  0.0517
11098W        W27572  15.237   8.938   4.486  0.4670 -0.1233  0.0287
11099W        W27573   1.304   6.585   1.029  0.3230  0.0910 -0.4306
11100W        W27574   8.784   5.926   0.945 -0.1745 -0.1527  0.0579
11101W        W27575  16.354  14.951  11.726 -0.1497 -0.1867 -0.2604
11102W        W27576   4.279   7.920  14.914 -0.0419 -0.2209  0.2127
11103W        W27577  18.469   1.300  15.366 -0.1276  0.0176 -0.2728
11104W        W27578   4.633  11.305   4.319  0.0947 -0.3008 -0.2319
11105W        W27579   4.988  10.054   3.723  0.0452  0.3120 -0.1669
11106W        W27580   2.786  18.610  13.393 -0.1625  0.2899  0.1197
11107W        W27581  12.358  12.153   5.013 -0.0908 -0.2954 -0.0071
11108W        W27582  10.302   1.157   3.968 -0.0042 -0.2659  0.0088
11109W        W27583   7.759  11.762  12.634 -0.3274 -0.2068 -0.3306
11110W        W27584   2.424  11.680   5.131  0.3671 -0.2218 -0.0644
11111W        W27585   3.605  18.253   3.142  0.0448 -0.0964  0.2399
11112W        W27586   1.169   8.592  11.934  0.0872  0.0006  0.0449
11113W        W27587  12.015   9.398   1.649  0.0704  0.1356  0.2213
11114W        W27588  17.984  16.830  10.876 -0.0250 -0.0244  0.0679
11115W        W27589  16.221  13.249   5.544  0.1472  0.1087 -0.3682
11116W        W27590   8.619   6.815  12.443 -0.0597  0.1241  0.0371
11117W        W27591   7.386  17.895  13.281 -0.1847 -0.1244  0.1182
11118W        W27592  13.314  17.425   0.156  0.4409 -0.0636  0.0007
11119W        W27593  13.058   9.559   3.859 -0.0604  0.0895 -0.0883
11120W        W27594   3.593   9.672   4.026 -0.2944 -0.0311  0.0880
11121W        W27595  18.373   2.854   2.485 -0.0052 -0.0002 -0.0714
11122W        W27596   4.696  13.854  10.588 -0.2453  0.0701  0.2379
11123W        W27597   4.005  16.006   1.549 -0.1349  0.0260 -0.2014
11124W        W27598  14.814   9.674  15.435 -0.0194  0.2403 -0.3738
11125W        W27599   0.577   9.930  10.703 -0.0250  0.0702 -0.3214
11126W        W27600  10.704  17.617  11.374  0.2686  0.0091  0.2367
11127W        W27601  10.156   4.419  14.210 -0.0392  0.0396 -0.1320
11128W        W27602   4.071   2.553  15.358  0.0177  0.0665 -0.0347
11129W        W27603  12.996   3.501  10.018  0.0308  0.0615  0.0086
11130W        W27604   4.600   8.898   0.956 -0.3390  0.1165  0.0081
11131W        W27605  11.151  11.312   3.513 -0.1272 -0.1527  0.2463
11132W        W27606  11.866  10.667  13.693 -0.0825 -0.0065 -0.0930
11133W        W27607   6.729   8.406   1.130  0.0356 -0.2238 -0.1726
11134W        W27608  18.017   9.131   1.770  0.3392 -0.0551  0.2077
11135W        W27609   2.379   9.939  11.941 -0.0993 -0.1439  0.1236
11136W        W27610  17.956  14.809  13.311 -0.3616  0.0042  0.2996
11137W        W27611   7.060  16.612   0.891 -0.1687 -0.0247 -0.3349
11138W        W27612   0.551  17.764   0.030  0.1218 -0.2268 -0.0541
11139W        W27613  15.799  17.057  14.858  0.0757 -0.2898 -0.0274
11140W        W27614  16.950  14.915   4.785 -0.1915 -0.0624  0.0028
11141W        W27615   5.720   9.030  10.924 -0.0534 -0.0272  0.1366
11142W        W27616  18.296  10.266  12.884 -0.1108  0.0346 -0.0572
11143W        W27617  17.863   9.876  10.899  0.0631 -0.0320 -0.1514
11144W        W27618  12.419  13.016   3.384  0.3409 -0.0325  0.1973
11145W        W27619   1.563   9.691  11.329  0.2356 -0.2127  0.0178
11146W        W27620   5.668   1.411   1.052 -0.1182  0.0517  0.2822
11147W        W27621   4.477   4.444   3.507 -0.0578  0.1384  0.1439
11148W        W27622  18.550   7.670  14.033 -0.0160  0.0377  0.2796
11149W        W27623  18.638   1.526  13.561 -0.1280  0.0537 -0.1196
11150W        W27624  10.561   2.543   1.680  0.2119 -0.2408 -0.4968
11151W        W27625  15.115  11.929   2.366  0.0352  0.2597  0.1681
11152W        W27626   1.898  10.990  12.983  0.2175  0.0907  0.0522
11153W        W27627  18.330   1.822  12.709  0.0633  0.0221  0.2776
11154W        W27628  13.626   0.716   1.830 -0.1650 -0.4576  0.0646
11155W        W27629  16.338  16.566  13.515 -0.0784  0.2766  0.2570
11156W        W27630   6.756  13.107   2.706 -0.2180 -0.1236  0.1531
11157W        W27631   3.129   9.125  11.063  0.0918 -0.0243 -0.0774
11158W        W27632  14.153  15.603  14.361  0.0003  0.0622 -0.0671
11159W        W27633   0.316  14.178   4.197 -0.0464  0.3830 -0.1967
11160W        W27634  11.301   6.824  13.542 -0.2369 -0.1053 -0.0287
11161W        W27635   7.088  17.323  11.653 -0.0514 -0.1323  0.1216
11162W        W27636   7.228   6.468   0.295 -0.4041  0.1052 -0.1272
11163W        W27637  11.121   4.753  12.109  0.1211 -0.0262  0.1514
11164W        W27638   3.650   9.474   0.861 -0.2135 -0.0682  0.0329
11165W        W27639   0.034  10.612   4.936  0.0855 -0.1062 -0.1671
11166W        W27640   9.300  14.879  12.299  0.0426 -0.1587  0.0311
11167W        W27641  15.355  10.880   5.102 -0.3419  0.0373  0.2321
11168W        W27642   0.427  16.635  10.923  0.0553  0.2192  0.1826
11169W        W27643   8.091   6.602   3.918 -0.3761 -0.2250 -0.0439
11170W        W27644   4.309   1.513  14.832 -0.0679  0.1178 -0.0226
11171W        W27645  14.685   4.477  12.454  0.1123 -0.1172  0.1278
11172W        W27646  12.859   4.975  13.255 -0.0955 -0.2023  0.1453
11173W        W27647   0.191  18.110  14.306 -0.0075 -0.1312 -0.1773
11174W        W27648   5.420   2.827   2.972 -0.0790 -0.0932  0.1077
11175W        W27649  16.889   6.838   3.740 -0.1948 -0.0272  0.1640
11176W        W27650   5.731   9.449   4.454  0.0060 -0.0485 -0.1046
11177W        W27651  12.706   3.711  14.099  0.1476 -0.0733  0.0610
11178W        W27652  16.788   5.371   1.299 -0.1008  0.0749 -0.3142
11179W        W27653   1.405  15.200  10.490  0.0614 -0.0549  0.1113
11180W        W27654  12.296   8.422   0.139 -0.0885  0.0541  0.1238
11181W        W27655   5.987   5.136   1.722  0.3595  0.2567  0.1283
11182W        W27656  15.236  11.341   0.922  0.0585 -0.1840 -0.1123
11183W        W27657   2.656  16.130  10.451  0.2860 -0.3037  0.1331
11184W        W27658   2.588   0.355   1.080  0.2680  0.2722 -0.2626
11185W        W27659   7.199  18.354   4.290  0.3531 -0.2381  0.1126
11186W        W27660   5.255   1.215   1.707  0.0153  0.0879  0.4310
11187W        W27661   4.780  15.261  12.338 -0.1278 -0.0630 -0.2162
11188W        W27662   0.222  10.288   1.257 -0.0903  0.3533 -0.0677
11189W        W27663  16.792   4.643   2.915  0.0355  0.0586 -0.0184
11190W        W27664  10.375   2.641  12.663 -0.1383 -0.0884  0.1225
11191W        W27665  16.970  16.688  15.278  0.1745 -0.1294  0.0944
11192W        W27666  17.464  11.510  12.910  0.3381 -0.2759  0.0032
11193W        W27667   8.911   2.546   0.975  0.0316  0.2221 -0.0611
11194W        W27668   3.616   9.082   3.269 -0.1193  0.0898 -0.1380
11195W        W27669  16.455   9.682  14.708 -0.0627 -0.2753  0.1556
11196W        W27670   2.468  10.793   4.805 -0.1033 -0.1239 -0.0512
11197W        W27671  14.582   2.923  13.134 -0.0037  0.1161  0.1285
11198W        W27672   5.360   4.691   1.342  0.3909 -0.0909 -0.1424
11199W        W27673  10.690  16.733   4.559  0.0805  0.0390  0.2050
11200W        W27674  13.935   9.928  11.297  0.2995 -0.1117 -0.0038
11201W        W27675  11.217   0.821  10.826 -0.0053 -0.0882  0.0353
11202W        W27676   9.135   4.779   4.320 -0.0982 -0.0548  0.3617
11203W        W27677   2.975  10.162   1.528 -0.0236  0.1957  0.2639
11204W        W27678  12.081   1.848  12.961 -0.3216  0.2578 -0.3091
11205W        W27679  18.515   7.159   0.369 -0.1683 -0.2124  0.1003
11206W        W27680  17.899  14.845  14.495  0.1128  0.2197  0.2124
11207W        W27681  15.885   9.985  13.830  0.0298  0.0766 -0.1436
11208W        W27682  17.979  15.376  12.978  0.1749  0.0644  0.0253
11209W        W27683   3.589  18.266  14.328 -0.3503  0.0050 -0.1233
11210W        W27684   7.073   7.890   0.749  0.3685 -0.0972  0.0206
11211W        W27685   6.822   7.916   5.025 -0.2351 -0.1619 -0.6205
11212W        W27686  15.721  13.281   5.282 -0.0377  0.1337 -0.0577
11213W        W27687   6.494   5.343   3.025  0.0312 -0.4962 -0.0724
11214W        W27688   1.606   8.582  12.198 -0.2557 -0.2311  0.0796
11215W        W27689   8.435  13.154  11.876 -0.0371 -0.1788 -0.0638
11216W        W27690   0.428   7.134  12.524  0.2896 -0.1572  0.0175
11217W        W27691   1.416  12.026   0.702 -0.1736  0.4237 -0.1075
11218W        W27692   7.306   0.038  12.717 -0.1721  0.0414 -0.1529
11219W        W27693   4.941   9.102   2.180  0.0227  0.0657  0.2669
11220W        W27694   6.186   5.536  12.963  0.1079  0.0106  0.4889
11221W        W27695  11.484  12.159   0.383 -0.2667 -0.2061 -0.0327
11222W        W27696   8.669  18.248  12.686 -0.0169  0.1240 -0.1196
11223W        W27697  16.343   4.701  14.705 -0.0603 -0.1013  0.1315
11224W        W27698  16.431  18.487  15.458 -0.1600 -0.5364 -0.0111
11225W        W27699   0.375   6.054   3.492 -0.2031  0.3042 -0.0166
11226W        W27700   5.540  18.512   9.582  0.0455  0.1537 -0.1603
11227W        W27701  17.686   6.428   3.535  0.0950  0.0692 -0.0094
11228W        W27702   3.570   0.297  12.777  0.1396 -0.1121 -0.3248
11229W        W27703   9.529   1.232   4.751 -0.3114  0.2979  0.0897
11230W        W27704   4.137  11.483   0.357 -0.2410  0.3277  0.1471
11231W        W27705   9.950  16.356  13.029  0.0124  0.0714  0.1446
11232W        W27706   3.947  13.716   0.169  0.3114 -0.3090 -0.3721
11233W        W27707  14.690  17.614   1.844 -0.0209 -0.2216  0.0737
11234W        W27708  13.067  14.451  15.566  0.1726 -0.0835  0.2267
11235W        W27709   7.420  17.441   2.663 -0.1149  0.1058  0.4825
11236W        W27710  16.483  15.146   2.080  0.0495  0.0621  0.0690
11237W        W27711  17.717  12.348  14.396 -0.1819  0.0302 -0.1154
11238W        W27712   3.492   1.120  13.131 -0.0222 -0.0726 -0.1460
11239W        W27713   1.188   1.995   4.946 -0.0364 -0.1436  0.1480
11240W        W27714   6.370   9.911   0.085 -0.4120  0.0578 -0.2864
11241W        W27715   2.704   8.467   9.743 -0.1931  0.1833 -0.1793
11242W        W27716  13.474   1.176   0.830  0.0926 -0.1101  0.1379
11243W        W27717  13.037   1.615   3.086  0.0144  0.0781  0.0987
11244W        W27718  13.654   7.187   0.279 -0.0739  0.3024 -0.0325
11245W        W27719  12.848  14.183   4.571  0.0324  0.0673 -0.1643
11246W        W27720   2.917  14.205   2.805 -0.1904 -0.0629  0.1386
11247W        W27721   0.431   9.691   4.762  0.0737 -0.1176  0.0865
11248W        W27722   4.235  15.567   2.722  0.0450  0.2956  0.0370
11249W        W27723   5.636   4.182   1.970 -0.0041 -0.0428  0.4246
11250W        W27724  18.267   8.541  14.967 -0.2337  0.2117  0.0817
11251W        W27725  15.970  14.194  14.090 -0.0768  0.0042 -0.1450
11252W        W27726   1.251   3.406  15.376  0.3820  0.2294  0.2844
11253W        W27727   5.990   9.760   2.940 -0.2148 -0.2083 -0.1602
11254W        W27728  10.421  18.024  13.146 -0.7154 -0.3320 -0.0671
11255W        W27729  12.209   5.982   2.744  0.0316  0.3016  0.0526
11256W        W27730   3.993  10.097   5.292 -0.1740  0.1930 -0.2248
11257W        W27731   5.594  11.239   0.532 -0.2282 -0.0752 -0.2687
11258W        W27732   9.646   6.179   4.898 -0.0742  0.1276  0.0914
11259W        W27733  16.628  15.250   3.420  0.1350  0.0511 -0.1782
11260W        W27734   2.599   0.837  11.716  0.0175  0.3724  0.0759
11261W        W27735  16.026  16.125   3.539  0.1418 -0.3901 -0.2096
11262W        W27736  17.287  13.724  12.923  0.0511  0.4961 -0.1126
11263W        W27737  14.778   1.027   0.891  0.0950  0.0336 -0.1491
11264W        W27738   3.548  14.132  13.851  0.0116 -0.2078  0.0978
11265W        W27739  15.479   7.970   3.632 -0.2631  0.0365  0.0004
11266W        W27740   2.242   7.657   3.970 -0.0999 -0.2116  0.1839
11267W        W27741  16.985  10.890   0.746  0.1659  0.0837  0.0990
11268W        W27742  11.083  10.843   5.552 -0.0097  0.0699 -0.0139
11269W        W27743  15.179  13.239   0.947  0.0171  0.1733  0.1875
11270W        W27744  15.630   8.144   5.363 -0.2002  0.0110  0.2213
11271W        W27745   5.558  15.806  11.026 -0.2350  0.0641  0.2510
11272W        W27746  12.529   1.514  15.094  0.0800  0.0032 -0.0360
11273W        W27747   0.676   4.357  11.972 -0.3040 -0.1344  0.4160
11274W        W27748  16.595  11.597   2.662 -0.0754 -0.1436 -0.2019
11275W        W27749   6.015   5.612  14.691 -0.1417  0.1281  0.1027
11276W        W27750   6.577   1.565   0.332  0.0999  0.0547  0.2882
11277W        W27751   6.511   2.868   1.586 -0.0778 -0.2366  0.2342
11278W        W27752   1.460   2.525   3.630  0.0186  0.1015 -0.1411
11279W        W27753   8.074  18.071   1.316 -0.1626  0.0865 -0.0912
11280W        W27754   7.501  11.666   9.796  0.1607 -0.1429 -0.2731
11281W        W27755   1.696   6.793  15.345 -0.0056  0.0406  0.0214
11282W        W27756   3.390   2.901   1.513 -0.2208 -0.0506 -0.2079
11283W        W27757  11.091  16.539  12.212  0.2032 -0.1279  0.2095
11284W        W27758  10.623   2.806   5.613 -0.0213  0.1149 -0.0184
11285W        W27759  11.155   7.026  14.579  0.1950 -0.0087 -0.0108
11286W        W27760   4.078  13.662   4.665 -0.3740 -0.1812 -0.0956
11287W        W27761   0.704   1.782  15.016  0.0417  0.5670 -0.0825
11288W        W27762   3.316  16.827   0.343 -0.1544 -0.0141 -0.0569
11289W        W27763   4.894   5.792   4.920 -0.2351  0.0254  0.0784
11290W        W27764   6.479   4.481  15.053 -0.0923 -0.0691  0.3930
11291W        W27765  17.202  12.966  14.100  0.0796 -0.1359  0.1978
11292W        W27766   9.889   9.872  13.210  0.0243  0.1445  0.2090
11293W        W27767   9.460  17.235  14.851 -0.1504 -0.2425  0.0946
11294W        W27768  13.251  13.046   1.714 -0.0959 -0.3030 -0.0123
11295W        W27769   7.605  14.234  15.203  0.0016  0.0159 -0.1450
11296W        W27770   6.021  11.769   1.065 -0.2557 -0.2171 -0.3063
11297W        W27771  10.029  17.448   4.306 -0.2782 -0.1346  0.0068
11298W        W27772   6.396   2.525   2.949 -0.3078  0.1714  0.1300
11299W        W27773   3.076   4.093   1.445 -0.2998 -0.1059  0.0044
11300W        W27774   2.612  11.865   4.026 -0.1052 -0.0293  0.0243
11301W        W27775   3.740   2.619  13.797  0.1815  0.0053 -0.0944
11302W        W27776  17.503  12.379   3.533 -0.0511  0.4048  0.2037
11303W        W27777   6.422   6.256   0.221 -0.1809 -0.0231  0.1557
11304W        W27778   3.604  16.736  10.144 -0.1896 -0.0713 -0.2640
11305W        W27779  18.437   5.512  13.174 -0.1473 -0.2229 -0.2431
11306W        W27780  18.300   1.245  14.887 -0.0722  0.0463 -0.3087
11307W        W27781  16.665  12.433   3.850 -0.0110  0.0125 -0.1363
11308W        W27782   6.193  15.162  14.348  0.0823  0.1584  0.2564
11309W        W27783  15.838   7.178  11.147 -0.0246  0.1036 -0.2444
11310W        W27784   3.706  11.631   2.936 -0.0609 -0.0435 -0.1214
11311W        W27785   1.700  12.369   1.313 -0.0821 -0.2436 -0.0546
11312W        W27786   4.806  12.596   3.612 -0.0442 -0.0421  0.1913
11313W        W27787  18.673   5.993  13.703  0.1949  0.1216  0.2360
11314W        W27788   4.042   1.959   4.659 -0.0536 -0.2734 -0.0574
11315W        W27789   2.047  10.473   1.306  0.1445 -0.1781 -0.0958
11316W        W27790   5.530  11.355   3.334  0.1985  0.0628  0.0433
11317W        W27791   3.173  14.112   3.275  0.0844 -0.2089 -0.1811
11318W        W27792  14.983  10.225   5.884  0.4257 -0.0987 -0.0128
11319W        W27793   8.178   2.549  12.970 -0.0350 -0.1009 -0.1401
11320W        W27794   5.127   5.252   2.814  0.3144 -0.2366 -0.1602
11321W        W27795   6.621   5.556  10.663  0.4148 -0.1494  0.1065
11322W        W27796  12.922   7.622  15.457 -0.1695  0.0577  0.1040
11323W        W27797   9.144   3.355   5.412 -0.0562 -0.0298 -0.0147
11324W        W27798   1.164  11.284   5.683  0.0765 -0.2339  0.2865
11325W        W27799   9.028   3.363  11.703  0.2420  0.0742  0.0835
11326W        W27800   6.254  16.912   2.923 -0.2286  0.3234  0.1324
11327W        W27801   4.630   1.762  12.953  0.1293 -0.0855  0.0111
11328W        W27802   4.362   1.063  12.204  0.0015 -0.1379 -0.1778
11329W        W27803   0.076   7.864  12.180  0.0043 -0.0816 -0.3332
11330W        W27804  10.920  10.997  10.888 -0.0239  0.0224  0.2941
11331W        W27805   8.857   6.653  13.974 -0.3764  0.0233 -0.4702
11332W        W27806   9.026   2.456   0.063 -0.2060 -0.4240  0.0942
11333W        W27807   7.757   7.026  13.114 -0.0798 -0.4372  0.0759
11334W        W27808   2.914   2.804   1.739  0.1957 -0.0809  0.1195
11335W        W27809   3.644  18.039  11.299 -0.0245 -0.1421  0.0225
11336W        W27810  17.344  13.592  11.367 -0.2345 -0.1956  0.2172
11337W        W27811   3.140   7.982  11.401  0.2769 -0.2798  0.2045
11338W        W27812  16.796   5.543   0.332  0.0913  0.0372 -0.1444
11339W        W27813   5.933   3.669   0.885 -0.0950 -0.1413 -0.3364
11340W        W27814   2.256   1.743   0.767 -0.1391 -0.0443 -0.1821
11341W        W27815  17.917  10.146   0.179 -0.3710 -0.1172  0.3023
11342W        W27816   4.470   5.247  12.917  0.0726 -0.0276 -0.2251
11343W        W27817   5.968  14.061  10.451  0.1349  0.1047  0.0306
11344W        W27818   3.278   1.033   2.198 -0.2693 -0.1062 -0.1330
11345W        W27819  16.249  15.631   1.386 -0.1127  0.2747  0.1080
11346W        W27820  16.628  15.464   4.259  0.2095  0.1026  0.1126
11347W        W27821  17.906  16.892   1.062 -0.1752 -0.1342 -0.1683
11348W        W27822   3.133   8.849   4.358  0.1534  0.1228 -0.1127
11349W        W27823  16.022   5.156  14.675  0.1097 -0.0257  0.2413
11350W        W27824  11.521   3.398  14.645 -0.0308 -0.6615 -0.0805
11351W        W27825   8.563   8.005  14.262 -0.0176  0.3239  0.0907
11352W        W27826   2.251   0.623   3.985 -0.2100  0.0777  0.1317
11353W        W27827  10.544   3.794  14.715 -0.0128  0.0808 -0.1261
11354W        W27828   9.294   6.891   2.588  0.1113 -0.0012 -0.1444
11355W        W27829  11.755   8.778   1.239  0.1487 -0.4418  0.1665
11356W        W27830  17.899  12.433   2.078 -0.0101  0.0400  0.2247
11357W        W27831  13.187   9.099  12.568  0.0376 -0.0585 -0.3799
11358W        W27832  13.427   1.829   5.060  0.0762  0.0860  0.0498
11359W        W27833  14.669   1.481   2.184  0.1526  0.5611 -0.1545
11360W        W27834   0.253   0.351   2.613 -0.0916 -0.0024 -0.0640
11361W        W27835  14.272   7.852  14.095 -0.1579  0.0317  0.1683
11362W        W27836  15.962   1.531  11.835  0.1392 -0.1873  0.0134
11363W        W27837   8.418  14.104   3.098  0.0544  0.0868  0.0027
11364W        W27838   5.058  15.891  11.279  0.0341 -0.0339 -0.1999
11365W        W27839  18.247  12.811  11.448  0.1275  0.0424  0.0624
11366W        W27840   2.912  14.101   3.774 -0.0617  0.0493  0.0578
11367W        W27841   9.418   7.036  12.298 -0.0381  0.1406  0.2293
11368W        W27842  12.042   1.329  12.843 -0.0003  0.0092  0.0997
11369W        W27843  11.408   1.713   1.750 -0.0054 -0.1467 -0.0110
11370W        W27844   1.372  11.092   1.708 -0.2070  0.0399 -0.1378
11371W        W27845  14.326   9.601  11.846  0.2754 -0.1793 -0.1043
11372W        W27846   3.203  13.712   2.548  0.0259  0.1948  0.0379
11373W        W27847   0.423   5.556  15.200 -0.0157  0.1565 -0.0454
11374W        W27848   6.106  14.220  14.579  0.0699  0.0445 -0.0543
11375W        W27849  11.437  10.355   3.468 -0.2732 -0.2677 -0.0371
11376W        W27850  16.289   0.756   0.863  0.0145 -0.1690  0.0012
11377W        W27851  16.222  12.831  11.504 -0.0976  0.4828 -0.1968
11378W        W27852  17.553  11.840  14.449 -0.0879  0.2417  0.1574
11379W        W27853   6.337   0.313   5.610 -0.4465  0.1161  0.1202
11380W        W27854   1.746   7.096  10.140 -0.0450  0.1033  0.1803
11381W        W27855  10.630   2.393   5.328 -0.5891  0.1848  0.0702
11382W        W27856   7.724   7.424  13.443 -0.0389 -0.0394 -0.1110
11383W        W27857   3.271   0.111  14.739  0.0514 -0.5351 -0.0262
11384W        W27858  16.903  14.488   3.182 -0.2348  0.1131  0.0935
11385W        W27859  14.129   4.815  14.780  0.0185  0.1946  0.2933
11386W        W27860   8.330   8.047  13.775 -0.1020 -0.1010 -0.2205
11387W        W27861   8.102   4.877   1.436  0.1018 -0.1030 -0.2859
11388W        W27862   3.782   4.989   3.332  0.1215 -0.2335 -0.0230
11389W        W27863   8.235   2.358   1.606 -0.1453  0.0113 -0.1355
11390W        W27864  14.161   5.297  12.631  0.1002  0.1704 -0.1609
11391W        W27865   9.031   0.358  13.549  0.2531 -0.2094 -0.1525
11392W        W27866   8.359   0.784  14.345 -0.0170 -0.0078 -0.5430
11393W        W27867  10.438  16.826   0.717 -0.0327 -0.0422  0.1598
11394W        W27868   5.826   5.938  15.532 -0.4399 -0.0791  0.1074
11395W        W27869   3.798   9.554  13.255  0.1686  0.2288  0.1616
11396W        W27870   0.330  15.139  13.599  0.1416  0.1985  0.1330
11397W        W27871   8.551  15.704  12.588  0.1676 -0.1839 -0.1504
11398W        W27872  12.553  12.697  13.093 -0.0168  0.1520 -0.1355
11399W        W27873  13.869   5.531   5.786  0.1706 -0.1105  0.0526
11400W        W27874   7.236   9.592   3.104 -0.3151  0.0968 -0.0955
11401W        W27875  12.949   1.883  12.857 -0.1654 -0.1432 -0.0968
11402W        W27876   6.333  14.235   0.106  0.0408  0.2113  0.0824
11403W        W27877   8.111  18.126   3.613  0.0902 -0.0056  0.1004
11404W        W27878  17.707   3.469  13.720 -0.1374  0.0237 -0.2916
11405W        W27879  11.576  11.956  11.611 -0.1381  0.0487  0.1263
11406W        W27880   5.190  15.814   0.810 -0.0969 -0.1091  0.0080
11407W        W27881  15.842  12.666   0.782 -0.1857  0.0230  0.1158
11408W        W27882   5.624  14.436  15.194 -0.4106 -0.0207 -0.2653
11409W        W27883   2.558   6.322   3.151  0.0947  0.0601  0.0390
11410W        W27884   1.972  10.986   2.476  0.2389 -0.1393  0.0639
11411W        W27885  12.166   5.478  11.442  0.3658 -0.0925  0.0709
11412W        W27886   8.215  10.593  14.492  0.0679 -0.0932  0.0987
11413W        W27887   5.485   5.863  14.814 -0.1536 -0.0888 -0.0946
11414W        W27888   3.679  18.275  11.756  0.0840 -0.3734 -0.0331
11415W        W27889   9.594   1.138  12.139 -0.1109  0.1818 -0.2189
11416W        W27890   5.087   6.239  13.404 -0.0107  0.1207 -0.0489
11417W        W27891  12.648   5.998   4.816  0.2778  0.1271 -0.2410
11418W        W27892   2.215   7.626   1.320 -0.1685 -0.0137 -0.2282
11419W        W27893  16.611  11.663   4.237  0.0656  0.2136  0.0478
11420W        W27894  16.191  10.997  11.798 -0.0423  0.2163 -0.1270
11421W        W27895  18.101  17.689   4.428 -0.0809 -0.1741 -0.1337
11422W        W27896   3.361  11.469  14.208  0.1348  0.3963  0.1505
11423W        W27897   7.457  10.698  10.234 -0.0069  0.0407 -0.1937
11424W        W27898   2.445  15.956  15.370 -0.0325  0.1599 -0.0787
11425W        W27899  13.155  15.507   4.460  0.0616 -0.3252 -0.0672
11426W        W27900   9.690   4.912  13.801  0.0576 -0.1821 -0.3772
11427W        W27901   9.841  12.593   1.842  0.1568  0.4046  0.2096
11428W        W27902  13.364   2.372   0.594  0.0275 -0.0297 -0.2199
11429W        W27903  12.717   5.784   1.156 -0.0673  0.2714 -0.4279
11430W        W27904   7.656   2.080   3.559 -0.2061  0.1670 -0.0930
11431W        W27905   7.228  14.461  10.842  0.1125 -0.0737  0.0011
11432W        W27906  18.258  18.620   1.182  0.0306  0.0122 -0.3507
11433W        W27907   8.611   7.567  10.834  0.0616  0.0876 -0.1109
11434W        W27908   2.117   5.585  11.746  0.0043 -0.1392 -0.0439
11435W        W27909  17.431   8.284  15.116  0.1394  0.3715 -0.0112
11436W        W27910   8.464   5.502   3.220  0.0552 -0.0226  0.4215
11437W        W27911  11.606  14.782  15.129 -0.0568 -0.1233 -0.2740
11438W        W27912   1.818   1.808  13.307  0.0933  0.0652  0.0424
11439W        W27913   4.264   7.494  10.937 -0.1035  0.0305  0.3398
11440W        W27914  18.117   3.396  11.429 -0.0031 -0.0264  0.0562
11441W        W27915   5.007  15.548  13.649  0.0529 -0.1211  0.0375
11442W        W27916  10.971   5.650  10.667  0.0805  0.3694  0.1957
11443W        W27917  17.099   7.916  12.566  0.2040 -0.0522 -0.2040
11444W        W27918  14.734  18.234  12.372 -0.0262 -0.0886 -0.0299
11445W        W27919   0.262  14.617  12.361 -0.2866  0.0807 -0.0283
11446W        W27920  16.787  10.410   0.619 -0.1993  0.3364  0.3038
11447W        W27921  12.919  14.050   1.114  0.2193 -0.2053 -0.1939
11448W        W27922  17.011   0.898   4.073  0.0398 -0.0768 -0.1192
11449W        W27923   5.556  16.413  12.707 -0.3947  0.0811 -0.1272
11450W        W27924  14.185   9.166   4.915  0.0557 -0.1309  0.0634
11451W        W27925  17.741   2.170  14.598 -0.2234 -0.1850  0.1179
11452W        W27926   2.100   5.427   4.610  0.1618  0.0773 -0.1788
11453W        W27927   4.660  13.459  11.946  0.1327 -0.2969 -0.2064
11454W        W27928   6.212  14.783  14.726  0.0561 -0.1101  0.0560
11455W        W27929   6.418   0.185  10.687  0.1580 -0.0788  0.1656
11456W        W27930   4.853   5.315   0.872 -0.0617  0.0922 -0.0563
11457W        W27931  13.352  13.467   3.247 -0.1890 -0.2224 -0.2167
11458W        W27932   1.596   2.427   1.788 -0.2172  0.0274 -0.1760
11459W        W27933  10.874   1.499   1.817 -0.2188 -0.5298 -0.1575
11460W        W27934  15.631   0.479  13.707  0.0185  0.2184 -0.1380
11461W        W27935  13.096  13.499  15.441 -0.2121  0.0733  0.2126
11462W        W27936  17.831  11.036  14.342  0.2403 -0.0087  0.1061
11463W        W27937  16.767  12.377   2.733  0.2805  0.0997 -0.0857
11464W        W27938  12.280   9.353  11.901  0.0423  0.0560 -0.2845
11465W        W27939  17.216   6.796   4.097  0.1990  0.3349 -0.2674
11466W        W27940  18.056  14.424  12.380 -0.2019 -0.1834  0.1483
11467W        W27941   7.909  17.693   0.185  0.1163  0.0827 -0.1488
11468W        W27942  13.028  11.698   1.667  0.0904  0.3244 -0.2706
11469W        W27943   0.256  18.701   9.916  0.0910 -0.0736  0.1367
11470W        W27944   1.272   8.968   0.612 -0.3226 -0.0884 -0.3631
11471W        W27945   9.796  12.514   5.627  0.3276 -0.1417 -0.2338
11472W        W27946   9.758   9.618   5.772 -0.0795  0.1326 -0.1813
11473W        W27947   5.706  14.836   2.108  0.0484  0.0290 -0.0810
11474W        W27948   0.807   0.620   2.998 -0.3038  0.1894 -0.0565
11475W        W27949   2.453   4.685   1.015 -0.2906 -0.1455 -0.1132
11476W        W27950  15.085   9.123  15.281  0.1459 -0.0053  0.1519
11477W        W27951  14.083   4.696   0.894  0.0113 -0.1238  0.1327
11478W        W27952   0.543   0.579   1.500  0.0195 -0.1172 -0.1803
11479W        W27953   6.495  12.064  12.361  0.0695  0.1955 -0.0354
11480W        W27954   8.012  15.636   3.673 -0.1601  0.0397 -0.2453
11481W        W27955  18.551  15.462   0.853 -0.1665 -0.0698  0.0929
11482W        W27956  11.563  12.347   5.388  0.1272 -0.1629 -0.2240
11483W        W27957  14.719   7.040   3.522  0.0227 -0.0780  0.2285
11484W        W27958   6.541  11.771  10.712  0.3836 -0.3938  0.1643
11485W        W27959   5.165   1.745   3.176 -0.0138 -0.1110  0.1496
11486W        W27960   9.897  17.756   2.924 -0.0078  0.1419  0.2471
11487W        W27961   3.571   4.714  13.406  0.0328  0.1722 -0.1136
11488W        W27962   1.520   1.766   2.994  0.3031  0.2544 -0.0930
11489W        W27963  15.905  13.980  15.510  0.2583 -0.1059 -0.1367
11490W        W27964  12.377   9.322   4.602 -0.2422  0.0640  0.0373
11491W        W27965  15.225  17.541   3.641 -0.2309 -0.0557  0.2675
11492W        W27966   3.851   4.263  10.983 -0.0676 -0.1408 -0.1416
11493W        W27967   0.728  12.215   1.553 -0.0731 -0.1036  0.0747
11494W        W27968  18.399  16.607  11.914 -0.1013  0.1646 -0.2945
11495W        W27969  18.553   2.931  11.444 -0.0820 -0.0449  0.2667
11496W        W27970  11.691  17.059  14.255 -0.3248  0.1243  0.0909
11497W        W27971  15.315   6.843   3.777 -0.1392 -0.2054 -0.1375
11498W        W27972   5.843  14.294  11.117  0.0262 -0.1010 -0.3462
11499W        W27973   3.117   4.477  11.951  0.1471  0.0524 -0.4566
11500W        W27974  11.773   8.825  14.005  0.0317  0.2319 -0.0623
11501W        W27975   1.131   5.118  12.518  0.1623  0.0986 -0.4539
11502W        W27976  10.618  15.399   4.425 -0.1594  0.1183  0.0608
11503W        W27977  16.083   9.051  13.635 -0.0884  0.3362  0.2534
11504W        W27978  14.238   6.180   1.024  0.0901 -0.1133 -0.0857
11505W        W27979   7.432   6.939   0.915  0.0069 -0.3849  0.3442
11506W        W27980  15.296   7.884  15.530 -0.2000 -0.0311 -0.1972
11507W        W27981  16.105  15.724  12.124  0.3655  0.0082  0.4183
11508W        W27982   2.367   6.870   0.289  0.0196 -0.1678  0.0388
11509W        W27983   7.579   3.727  13.313 -0.0398 -0.0670  0.0578
11510W        W27984  15.373   1.526  15.355 -0.1058  0.1095 -0.2760
11511W        W27985   0.023   0.472  15.217  0.0645  0.0276 -0.2623
11512W        W27986   7.135  17.868   0.525 -0.2977  0.0832 -0.0237
11513W        W27987  13.692   4.717   5.499 -0.0723 -0.4180  0.1505
11514W        W27988   0.170   5.836   0.245  0.2642  0.0557  0.2051
11515W        W27989   3.603   6.559   1.767 -0.1571  0.0248  0.1292
11516W        W27990   2.650   4.501  15.050 -0.0486 -0.0219  0.0382
11517W        W27991  11.791   6.119   0.001  0.1610 -0.2833 -0.2297
11518W        W27992  10.804   3.821  14.281  0.4547  0.1413  0.1827
11519W        W27993  18.610  10.548   0.206  0.2178  0.3034  0.0528
11520W        W27994   5.772   0.063  11.202 -0.3813 -0.1059  0.2220
11521W        W27995  10.646   7.516  14.714  0.4598  0.0424  0.1587
11522W        W27996   2.129   7.235   2.087 -0.2035  0.0682  0.1285
11523W        W27997  14.840   9.578   0.499 -0.1309 -0.1537  0.4583
11524W        W27998   6.364  16.241   5.157 -0.0114 -0.0876  0.0191
11525W        W27999  12.410   8.833  14.515  0.3112  0.0271  0.1074
11526W        W28000   3.061   1.938  14.270  0.2301  0.1919 -0.1309
11527W        W28001   5.026   9.060  14.704  0.2288  0.1287  0.1162
11528W        W28002   8.655   9.058  14.618 -0.3016  0.1431 -0.2925
11529W        W28003  10.305   3.233   2.971 -0.0574 -0.2172 -0.2683
11530W        W28004  10.068  15.424   4.582 -0.1815  0.1317  0.1078
11531W        W28005   0.882   3.343   2.722 -0.0061  0.0827  0.0436
11532W        W28006   1.642  14.405  12.645  0.1007  0.3403 -0.0942
11533W        W28007  13.524  13.055   4.022  0.1067 -0.5081 -0.0077
11534W        W28008  12.962   4.867   3.726  0.1397 -0.0600 -0.0811
11535W        W28009   5.656   7.216  12.017  0.2857 -0.1862  0.0112
11536W        W28010   3.692   7.394   3.913  0.1298  0.1459 -0.2418
11537W        W28011   1.405  11.832  10.811 -0.2388 -0.1187 -0.1048
11538W        W28012  16.790  11.158   1.744  0.1943  0.0516 -0.0499
11539W        W28013   8.240  15.185   3.983 -0.0529 -0.5557  0.0041
11540W        W28014   7.185   6.689  14.610 -0.3584 -0.2224  0.0064
11541W        W28015   1.086   5.054  14.168 -0.1300 -0.2060  0.2343
11542W        W28016  11.117   5.490  13.094  0.1200 -0.0845  0.0150
11543W        W28017   2.528   9.371  13.122  0.2536  0.2244 -0.3641
11544W        W28018   0.368   5.873  12.224 -0.0591  0.0348 -0.2692
11545W        W28019  16.481   6.336   0.540  0.0420 -0.0644 -0.0505
11546W        W28020   0.222   4.174  14.135 -0.1150  0.1078 -0.2393
11547W        W28021   2.350   3.238  13.008 -0.1872 -0.0891 -0.1832
11548W        W28022   3.721  11.327  14.552  0.0415 -0.2386  0.1167
11549W        W28023   6.727  17.532  14.507 -0.0873 -0.0030  0.2345
11550W        W28024  14.107   1.510  11.947 -0.1900 -0.3468  0.1254
11551W        W28025   3.362  13.718  11.928  0.1505  0.0004  0.0758
11552W        W28026  18.730   6.075  12.448  0.1465  0.1613 -0.0581
11553W        W28027   2.128   8.535   1.228  0.3110 -0.3194 -0.1028
11554W        W28028   4.076  10.275  13.102  0.2399  0.1298  0.2285
11555W        W28029  11.950   6.373   3.524  0.0337  0.0169  0.0142
11556W        W28030   6.274   8.203   2.075 -0.0085 -0.1496  0.1698
11557W        W28031  17.133   3.662  13.714 -0.2416  0.0585 -0.0306
11558W        W28032  12.650  16.672   1.494  0.0653  0.0638 -0.3045
11559W        W28033  18.380   5.412  14.279 -0.0058 -0.0753 -0.0235
11560W        W28034  13.948   1.963   1.735 -0.0241 -0.1004  0.1046
11561W        W28035  17.778   2.736   4.244  0.1033 -0.2725 -0.0205
11562W        W28036  14.638   6.054  14.074 -0.0053 -0.0414  0.0739
11563W        W28037  16.373   4.118   4.716 -0.4605 -0.2148  0.0321
11564W        W28038   6.329  12.163   1.123 -0.0079  0.0973  0.3012
11565W        W28039  18.026  17.947  14.980  0.2444 -0.1250  0.2227
11566W        W28040  13.185   5.339   3.755  0.1529 -0.2189  0.3382
11567W        W28041   0.927   2.499   3.653  0.1572  0.4366 -0.1313
11568W        W28042  13.071   2.030   2.180  0.1271 -0.3543 -0.0011
11569W        W28043   1.017  11.605   0.395 -0.1200 -0.0430 -0.2530
11570W        W28044   2.721   1.889   2.041  0.2268  0.3362 -0.5419
11571W        W28045  18.546   7.446   0.749  0.0587 -0.2242  0.4055
11572W        W28046   8.664  10.633  14.738  0.0286  0.2503  0.1799
11573W        W28047  17.114  18.689   4.140 -0.2462  0.0525 -0.2816
11574W        W28048   8.102   1.775  13.530 -0.0194 -0.4114 -0.0353
11575W        W28049  16.806   2.080   2.598 -0.3003  0.0257  0.1118
11576W        W28050  13.683  17.547   1.698  0.1224  0.1065  0.0510
11577W        W28051  16.248   6.631   2.689  0.3346  0.0605  0.2074
11578W        W28052  11.370  18.460   1.349 -0.0719  0.2560  0.1427
11579W        W28053   3.382   1.874   2.443 -0.1102  0.0373  0.0049
11580W        W28054  18.717   6.994  14.585 -0.1621  0.1831 -0.0031
11581W        W28055  12.986   1.029   1.712  0.3835 -0.0346  0.1041
11582W        W28056   4.349   1.278   0.800 -0.4055  0.0981 -0.0990
11583W        W28057  13.390   1.084   4.342 -0.0269 -0.3196  0.0537
11584W        W28058  16.374   7.838   2.207  0.1246 -0.0974  0.2381
11585W        W28059   7.082  17.319   0.070 -0.1657 -0.1083  0.2846
11586W        W28060   3.543   8.999   2.804 -0.0760 -0.1274 -0.0102
11587W        W28061   7.779  16.602  12.004  0.2658  0.5197 -0.2898
11588W        W28062   5.032  13.400   4.391  0.0626  0.6006 -0.3266
11589W        W28063  17.861  14.782  12.129 -0.0462  0.0543 -0.1651
11590W        W28064  11.548   2.222  12.268 -0.0759 -0.0676  0.1917
11591W        W28065   8.288   0.217   2.695  0.0190 -0.1222 -0.0311
11592W        W28066   3.762  15.295   2.633 -0.0843 -0.0116  0.0372
11593W        W28067  11.138  10.191   1.811  0.2636  0.0823  0.1410
11594W        W28068  14.604  12.551   5.595 -0.2397 -0.2788  0.0165
11595W        W28069   5.515   5.818   2.113 -0.0686 -0.1956  0.1854
11596W        W28070  11.002  17.691  13.996  0.0726 -0.0523 -0.0568
11597W        W28071   4.610  10.035   2.784 -0.1873  0.2240  0.2622
11598W        W28072   0.288   7.653  12.570 -0.0111 -0.0442  0.0480
11599W        W28073   1.865  12.378  13.650 -0.1194 -0.3041  0.0569
11600W        W28074   2.322   1.019   2.078  0.3288  0.1118  0.0231
11601W        W28075  15.898  18.538   4.593 -0.0269 -0.0226  0.1505
11602W        W28076   5.385  14.648   5.120  0.0240  0.1007 -0.0315
11603W        W28077   8.366  18.351  14.135 -0.1733  0.4263 -0.0721
11604W        W28078   8.258  12.009  12.796  0.0622 -0.2280 -0.2153
11605W        W28079  10.965  10.822   4.256 -0.0497 -0.1100  0.0883
11606W        W28080   6.964  10.327   2.977 -0.3320  0.4495 -0.2667
11607W        W28081  16.245   6.425  11.787  0.2237 -0.0784  0.1089
11608W        W28082   6.174  10.390  14.195  0.1169  0.2703  0.0862
11609W        W28083   9.773   9.914  15.023 -0.1827  0.0024 -0.0332
11610W        W28084   8.055   9.314  11.609 -0.2554 -0.1100  0.1825
11611W        W28085   9.219  14.026   2.742  0.1414  0.0740  0.1593
11612W        W28086  16.307   4.082  13.276  0.1847 -0.2564 -0.0112
11613W        W28087   7.649   7.828  11.110  0.0343  0.0419 -0.1840
11614W        W28088  11.315   0.739  15.292 -0.0058 -0.1309  0.3715
11615W        W28089   8.808   9.228  11.617 -0.0073  0.3610  0.1239
11616W        W28090   3.987   2.431   3.464  0.2980  0.0593  0.0219
11617W        W28091  11.412   9.761  15.311 -0.0523  0.4252  0.1961
11618W        W28092   4.509   6.014  12.571 -0.3043  0.0688  0.0405
11619W        W28093  18.649   8.381   0.762  0.1723  0.5059  0.2356
11620W        W28094  15.555   8.014  14.371  0.1821 -0.0683 -0.0999
11621W        W28095   1.042   5.077   1.855 -0.3255 -0.0276 -0.2008
11622W        W28096   0.001  17.662   2.062 -0.0181 -0.0659  0.1198
11623W        W28097   0.082   1.954  11.056 -0.0792 -0.1237  0.1231
11624W        W28098   6.918  10.132   1.015  0.0192 -0.3526 -0.0391
11625W        W28099  10.202  13.020   0.743  0.0881 -0.1496 -0.1804
11626W        W28100  18.240   7.535   2.408  0.3092 -0.3141  0.1920
11627W        W28101  13.910   1.113  11.626 -0.0814 -0.1298  0.2205
11628W        W28102   1.501   0.950   3.408 -0.2326 -0.0908 -0.2282
11629W        W28103   2.832  11.810   3.192 -0.1128  0.1031  0.1571
11630W        W28104   3.692   7.203  10.304 -0.0322  0.1315 -0.0126
11631W        W28105  18.320   9.158  14.555  0.3972 -0.0530  0.1237
11632W        W28106   4.389   3.330  10.542 -0.1808  0.0523 -0.1167
11633W        W28107   7.641  18.646   5.044  0.0394 -0.2499 -0.0759
11634W        W28108  15.083  15.042   3.201 -0.0843  0.0863 -0.2275
11635W        W28109   8.840   0.315   4.943 -0.0447  0.1061  0.2431
11636W        W28110  11.229   6.071   2.654 -0.2189  0.1385  0.0050
11637W        W28111  14.201  18.412  14.893 -0.1530  0.1924  0.0450
11638W        W28112  11.571   0.012   3.577  0.0056  0.0420 -0.1915
11639W        W28113   0.005  16.920  11.959  0.0735 -0.0952  0.0525
11640W        W28114   1.282   9.294  13.702 -0.1276 -0.3408 -0.1536
11641W        W28115   9.755   4.477   3.898  0.1772 -0.2406  0.4979
11642W        W28116  16.178  11.387   0.578 -0.3163  0.2732 -0.1334
11643W        W28117   4.717  17.039  15.531  0.1324 -0.2349 -0.0002
11644W        W28118   8.037   2.971   2.770 -0.1054 -0.0127  0.2099
11645W        W28119  10.418   9.480  12.390  0.0465  0.0407 -0.0429
11646W        W28120   9.796  17.125   5.149 -0.2266 -0.1546  0.1173
11647W        W28121  12.545   2.205  12.338  0.0163 -0.3908 -0.0135
11648W        W28122  12.645   2.775  13.429 -0.1195  0.2004 -0.0156
11649W        W28123   4.257   7.238  11.902 -0.0726 -0.3257 -0.1279
11650W        W28124  13.087   6.636  14.622  0.3955 -0.1516  0.0588
11651W        W28125   8.185  10.910   1.806  0.2792  0.0642  0.3534
11652W        W28126   0.606   0.900  15.542  0.1016  0.2047 -0.0083
11653W        W28127  10.222  11.477   2.905  0.1893 -0.2850  0.0055
11654W        W28128   7.670  16.931  10.999 -0.0976  0.1074 -0.0694
11655W        W28129   7.954   8.420   4.591  0.0843 -0.0091  0.1129
11656W        W28130   2.707  15.381   3.869  0.1293 -0.1990  0.0426
11657W        W28131  16.846   7.573   2.140 -0.1809  0.0812  0.0287
11658W        W28132  16.921  12.551   2.294  0.0907 -0.2203 -0.1694
11659W        W28133  12.373   3.959   2.319  0.4076 -0.1325 -0.1965
11660W        W28134  17.911  18.167   0.449 -0.1559  0.1658  0.0080
11661W        W28135  11.153   9.770   0.792 -0.0705  0.3365 -0.0901
11662W        W28136  14.578  15.886   4.690 -0.0072  0.1530  0.2909
11663W        W28137   0.237  12.901  14.361  0.1856  0.1590 -0.3959
11664W        W28138   3.013  15.997  12.310 -0.2889 -0.1207  0.2410
11665W        W28139   9.690   8.589   1.643  0.0934  0.1549  0.0786
11666W        W28140   4.387   2.322   3.931  0.0054 -0.1452 -0.1356
11667W        W28141  14.981  15.838  10.807 -0.1261  0.0238 -0.0509
11668W        W28142   3.532   4.229  11.648 -0.0981 -0.1220  0.1457
11669W        W28143  12.820  12.085   1.923 -0.0424 -0.1096  0.3804
11670W        W28144   7.139  14.180  14.399 -0.3102  0.1294 -0.0173
11671W        W28145  13.413  15.536  14.654  0.2035 -0.1899 -0.0993
11672W        W28146   0.105  10.914   0.404 -0.1125  0.2846 -0.0480
11673W        W28147  15.332  15.012  11.417 -0.3377  0.1359 -0.1498
11674W        W28148   8.761  11.059   4.052 -0.1024  0.0720 -0.1515
11675W        W28149   8.463   9.730  11.849  0.3326  0.1036 -0.5242
11676W        W28150   5.723   8.907   3.134 -0.4417  0.2729 -0.0910
11677W        W28151   3.666  11.789   1.024 -0.0504 -0.0079 -0.2909
11678W        W28152  10.573  18.563  13.416 -0.1526 -0.1205 -0.1442
11679W        W28153   8.502  11.106  14.748 -0.0355 -0.0147  0.0300
11680W        W28154  12.494   5.938   4.202  0.1244  0.0296  0.1483
11681W        W28155   0.753  15.636  13.150  0.0834  0.0895 -0.2104
11682W        W28156  14.542   7.096   5.156  0.1243 -0.0083  0.2071
11683W        W28157   5.454   6.820  12.292  0.1313 -0.1429 -0.3529
11684W        W28158   4.293   3.150   1.551  0.2968  0.0416 -0.4106
11685W        W28159  10.404  10.359  11.205 -0.1395  0.0675  0.0853
11686W        W28160  12.052  14.652   1.653  0.0845  0.0364  0.1734
11687W        W28161  13.501  14.218  15.004 -0.1856  0.5472 -0.3953
11688W        W28162  16.033   5.860  13.683  0.3595 -0.0599  0.1434
11689W        W28163   0.443  15.527   2.072 -0.2070 -0.3287  0.3093
11690W        W28164  13.689   4.562  12.648 -0.0369  0.3079 -0.2504
11691W        W28165  13.668  12.078   3.521 -0.3052 -0.2951 -0.1917
11692W        W28166   0.267   7.541   0.837  0.0096 -0.1685 -0.2002
11693W        W28167  11.070  15.174   0.767  0.1790 -0.1272 -0.1706
11694W        W28168  18.513  10.761   0.649  0.1715  0.0530 -0.0687
11695W        W28169   7.460  15.731  12.741 -0.1133 -0.0016  0.1324
11696W        W28170   8.075  14.779  13.459 -0.2464 -0.0735 -0.0084
11697W        W28171   6.175   6.391   2.796  0.1708 -0.0430 -0.2011
11698W        W28172   0.528   4.612  13.888 -0.0848  0.0098 -0.1357
11699W        W28173   6.916   3.137  13.714 -0.2441 -0.1016  0.1440
11700W        W28174  12.142   0.228   3.513 -0.0688  0.0949  0.0460
11701W        W28175  17.087   7.275   3.749 -0.0314  0.3411 -0.1125
11702W        W28176  16.669   1.637   5.165 -0.1650  0.1382 -0.2445
11703W        W28177   6.866  18.759  13.661 -0.1862 -0.2603 -0.0842
11704W        W28178   6.843  11.821  15.070 -0.2114 -0.1257  0.0306
11705W        W28179   4.322   1.089  13.693  0.0878 -0.1666 -0.1314
11706W        W28180   7.480  16.350  11.200  0.4018  0.0955 -0.1412
11707W        W28181  10.495   7.643  10.880 -0.2418  0.1457  0.2131
11708W        W28182   9.322   7.383   4.380 -0.0010 -0.0402  0.1176
11709W        W28183  15.654  11.843   0.332 -0.0715 -0.1304  0.0064
11710W        W28184   9.174  11.248   1.750 -0.2101 -0.4355  0.0687
11711W        W28185  18.526   6.441  12.942  0.0450  0.0353 -0.0674
11712W        W28186   3.267   9.425  14.732 -0.0218 -0.1816  0.0816
11713W        W28187  17.815  17.309   2.219 -0.2481  0.0320 -0.0964
11714W        W28188  18.290   8.615  13.573 -0.2470  0.1371 -0.2076
11715W        W28189  16.557   9.254  14.445 -0.0404  0.0249  0.2757
11716W        W28190  16.422   1.934   4.826  0.0647 -0.0635  0.0519
11717W        W28191  16.178   2.728   3.586  0.3693 -0.3610 -0.1452
11718W        W28192  16.561  14.943  13.525  0.0533  0.2219  0.0641
11719W        W28193  17.156  12.071   2.681  0.1073  0.1558  0.1261
11720W        W28194   8.254   9.393   4.035  0.0016 -0.0517 -0.2029
11721W        W28195  10.692  17.253   0.310  0.2443 -0.3555  0.0670
11722W        W28196  10.965  13.542  15.298  0.3892 -0.2845  0.2177
11723W        W28197  11.346  12.495   6.125  0.0225  0.2226 -0.0227
11724W        W28198   0.851  18.326   3.273 -0.2727  0.1126  0.2181
11725W        W28199   3.332   7.690   3.131  0.1085 -0.2930 -0.1325
11726W        W28200  16.695  10.291  12.759  0.1606  0.1834  0.2138
11727W        W28201   3.395   0.779   0.017  0.1267 -0.0089 -0.0829
11728W        W28202  17.600   9.645   2.299  0.3931  0.2734  0.0399
11729W        W28203  13.870   7.490  15.493 -0.3772 -0.3336  0.2674
11730W        W28204  10.367   5.655   2.675 -0.1139 -0.3970  0.2956
11731W        W28205   9.388  17.782   2.640 -0.3551 -0.0811  0.2885
11732W        W28206   2.905   7.688  10.804  0.2550 -0.1362 -0.0464
11733W        W28207   3.607   7.149   3.414 -0.3927 -0.1304 -0.0258
11734W        W28208  13.991   2.160  13.069  0.1195  0.0807 -0.2800
11735W        W28209   3.727  11.905   9.907 -0.1020 -0.2742 -0.3275
11736W        W28210   3.943   4.139   4.677 -0.1219 -0.1244 -0.1672
11737W        W28211  11.254   4.457   0.245 -0.1458 -0.2548 -0.0723
11738W        W28212  15.257   7.557   1.294  0.2118  0.0364 -0.0795
11739W        W28213  16.376   4.756  14.192 -0.0222  0.0251  0.1154
11740W        W28214   5.723   1.328  10.405  0.0382 -0.2667  0.1531
11741W        W28215   9.157  12.276   0.239  0.1558 -0.2029 -0.0373
11742W        W28216   7.036   2.542  14.604  0.0038 -0.0208 -0.1240
11743W        W28217  17.114   1.912   4.217  0.0164 -0.1100 -0.4122
11744W        W28218  14.990   7.008   0.356 -0.0608  0.0221  0.1487
11745W        W28219   4.914   9.392   1.444 -0.1637 -0.1307  0.1510
11746W        W28220   3.145   8.956  14.768  0.0107  0.2906 -0.2848
11747W        W28221   6.754  18.559  11.493 -0.2677  0.0248  0.0294
11748W        W28222   2.812   0.855   5.546  0.2180  0.1272 -0.0175
11749W        W28223  17.028  13.149  13.676  0.1371  0.4738 -0.0620
11750W        W28224   7.428   7.338  10.923 -0.0750  0.2330  0.0542
11751W        W28225   9.699  12.473   0.231 -0.2332  0.2053  0.0022
11752W        W28226  12.380  10.297   4.553 -0.0468  0.1464  0.0084
11753W        W28227   8.591   1.694   2.050  0.1206 -0.3054 -0.1178
11754W        W28228   0.137  12.049   4.377  0.0784  0.2946 -0.2466
11755W        W28229  14.183  11.242  15.491  0.1998  0.0337 -0.0462
11756W        W28230   1.077  12.903   0.472  0.4189  0.1077 -0.2967
11757W        W28231   8.008   3.953  11.755 -0.2745 -0.0748  0.2276
11758W        W28232   8.729  14.172   0.838 -0.0260  0.1922  0.0370
11759W        W28233  11.685  15.702  13.190  0.1127  0.1602  0.3588
11760W        W28234   9.413  16.446   2.564  0.0280 -0.0185 -0.1647
11761W        W28235   4.827  13.540  10.993 -0.2335 -0.1384 -0.2967
11762W        W28236   3.065   3.229  14.598  0.0985  0.2602 -0.2021
11763W        W28237  12.679  10.309   2.345 -0.0424 -0.1680  0.1761
11764W        W28238   4.998  17.417   0.238 -0.2343  0.1394 -0.0859
11765W        W28239   8.335  11.370  13.973  0.2345  0.2341  0.0507
11766W        W28240  18.573   1.037  11.273  0.1631 -0.4425 -0.1657
11767W        W28241   2.612  12.386  11.941  0.2050 -0.0037  0.0669
11768W        W28242  15.560   7.289   0.990  0.2701  0.2479 -0.2768
11769W        W28243   6.551  16.229  10.940 -0.2354 -0.1535  0.0353
11770W        W28244  10.381   1.071   4.477 -0.2030  0.0708 -0.0128
11771W        W28245   2.411  10.992   3.267 -0.0963 -0.4401  0.1850
11772W        W28246  13.040  18.509   4.472  0.1597  0.0925  0.2123
11773W        W28247  16.229  15.860  14.421 -0.0170 -0.3077 -0.3259
11774W        W28248   0.242   9.609  15.157  0.0723  0.1040 -0.0535
11775W        W28249  11.840   6.820  12.280 -0.1901  0.0545 -0.2433
11776W        W28250  18.772  13.480   1.768  0.3317  0.0912  0.1026
11777W        W28251   6.476  10.966  13.452  0.1430 -0.0189 -0.0831
11778W        W28252  10.907  13.166  14.950 -0.0769 -0.0607 -0.1100
11779W        W28253  14.333   9.825  14.206  0.0895  0.0140  0.2040
11780W        W28254   0.207   3.107   5.856 -0.2636 -0.2631 -0.2208
11781W        W28255   2.177   9.747   1.932  0.4134  0.0881 -0.1566
11782W        W28256   1.920  16.066  15.442 -0.1554  0.0712  0.2890
11783W        W28257  13.682  17.444   2.262  0.0242 -0.0452  0.1659
11784W        W28258  10.252   6.634  14.735  0.2657 -0.1731 -0.0731
11785W        W28259   9.867   5.525   0.702 -0.3850  0.0966  0.0303
11786W        W28260  16.527   8.010   5.937  0.1573  0.1441  0.0011
11787W        W28261  15.267   5.061  11.552 -0.0564 -0.0765 -0.1810
11788W        W28262  14.928  13.466  14.281 -0.1902  0.2240 -0.2165
11789W        W28263  18.467  15.168   4.312 -0.1738  0.0854  0.0118
11790W        W28264   1.852   2.817   2.096 -0.1876  0.2460  0.1320
11791W        W28265  12.312  15.301   4.822  0.0201  0.2863 -0.0730
11792W        W28266   9.778   6.898   2.627 -0.3578  0.1470  0.1677
11793W        W28267  14.436  10.836   1.176 -0.1378 -0.0344 -0.1013
11794W        W28268  17.789  11.740   5.675 -0.3738  0.2609 -0.1835
11795W        W28269   9.894   0.984   3.752  0.1756  0.0800  0.1982
11796W        W28270  15.359  15.648   4.103 -0.1471  0.2907  0.0442
11797W        W28271   4.635  10.650  10.378 -0.0635 -0.0680 -0.1343
11798W        W28272   3.407   6.833  14.419 -0.1040 -0.1813 -0.2732
11799W        W28273  12.058  14.468  11.839 -0.1062 -0.0865 -0.1801
11800W        W28274  13.920   8.445  10.967 -0.1371  0.0190  0.0607
11801W        W28275   2.812   9.015   0.991  0.2312 -0.0444  0.2496
11802W        W28276  10.220   7.691   2.503 -0.0902  0.0174  0.2152
11803W        W28277   7.838   6.356   3.439 -0.1578  0.0078  0.0188
11804W        W28278  18.096   0.087  14.037  0.1069  0.0408 -0.1961
11805W        W28279   3.621  10.532   2.330 -0.1214 -0.0574  0.0413
11806W        W28280   9.238   6.593   5.640 -0.1291  0.0650  0.2804
11807W        W28281   1.589  15.763   4.742  0.0740 -0.0998  0.0551
11808W        W28282   4.490   4.935  13.318 -0.0180  0.0993 -0.1121
11809W        W28283   9.485   0.872   0.185  0.2018 -0.3838 -0.1249
11810W        W28284  13.978   7.130   4.899 -0.0578  0.0900 -0.2170
11811W        W28285   5.964  11.776   9.928 -0.2449  0.0160 -0.1222
11812W        W28286   8.812  14.482  13.833 -0.2600 -0.1399 -0.1878
11813W        W28287  16.313   5.807   1.951 -0.1269 -0.0075  0.1147
11814W        W28288  17.576  11.957   3.740  0.1788 -0.3029 -0.1674
11815W        W28289   0.782   2.851   2.825  0.4118 -0.1614  0.1245
11816W        W28290   0.816   8.629   1.659 -0.0503 -0.1363  0.0089
11817W        W28291  13.150  14.519   4.359 -0.3129  0.5066  0.0310
11818W        W28292  18.046   5.532  10.913 -0.1258 -0.0426  0.4317
11819W        W28293  10.902  14.581  13.718 -0.0997 -0.0473  0.1663
11820W        W28294  14.760  12.579  12.222 -0.1213  0.2183 -0.3449
11821W        W28295  16.818   6.117   4.610 -0.0081 -0.1956  0.0735
11822W        W28296  11.010  16.130   1.646 -0.0880  0.0233  0.1212
11823W        W28297   4.849   2.060  10.692 -0.0848  0.0895  0.0928
11824W        W28298   0.365  12.158  11.246  0.0371 -0.1773  0.0181
11825W        W28299  14.673   6.103   0.459 -0.2314  0.0940 -0.2892
11826W        W28300  13.540  11.667   1.591  0.0736 -0.0461 -0.2302
11827W        W28301  13.583   2.386  15.241 -0.0834  0.0500 -0.0413
11828W        W28302   2.796  13.894  13.147 -0.0891  0.1435  0.0727
11829W        W28303  10.804   5.531   4.289  0.2414 -0.0705  0.1336
11830W        W28304   3.160  12.195  13.622 -0.2083  0.3027 -0.0392
11831W        W28305  13.669  10.565   0.700  0.2581 -0.0099 -0.2414
11832W        W28306  14.441   3.388   3.281  0.0142 -0.0553  0.0320
11833W        W28307  10.129  13.894  13.596  0.2061 -0.0564  0.1302
11834W        W28308  12.121  14.405  10.714 -0.0583  0.0508  0.2443
11835W        W28309   3.085   1.609   4.281 -0.0025  0.1042  0.1304
11836W        W28310   4.453  18.656   1.642 -0.0448 -0.0832 -0.1467
11837W        W28311   6.956   3.138   4.662 -0.0060 -0.1339 -0.1374
11838W        W28312  15.370   7.225   4.728  0.0681 -0.1515 -0.2421
11839W        W28313  10.292   2.088  12.754  0.0398  0.1577 -0.0491
11840W        W28314   7.035   3.864   1.080 -0.2532  0.0718  0.2635
11841W        W28315  13.296   5.746  11.654 -0.0140  0.2365 -0.2662
11842W        W28316  11.040   6.582  13.175 -0.0172  0.0855 -0.0980
11843W        W28317  10.207  17.875   2.510  0.0769 -0.0016 -0.0448
11844W        W28318   1.637   0.740  14.382  0.0269  0.1696 -0.0384
11845W        W28319  10.911  14.100  13.846 -0.4121  0.1870  0.0057
11846W        W28320  13.433   9.172  13.457 -0.0590 -0.3831 -0.1434
11847W        W28321  15.033   5.132   1.690 -0.0859 -0.0592 -0.2958
11848W        W28322   0.556   7.777   3.611  0.2225  0.0289  0.1248
11849W        W28323  13.958  14.783  14.058 -0.1556  0.0866  0.0090
11850W        W28324   8.611  17.125  12.780  0.0332  0.0837  0.1313
11851W        W28325  15.332   9.153   1.819 -0.0762  0.1485 -0.2081
11852W        W28326   0.767  12.469   0.582 -0.2330 -0.1939 -0.0963
11853W        W28327  14.277   5.992   1.837  0.1642  0.0070 -0.3105
11854W        W28328  18.303   3.794   2.908  0.2178 -0.3653  0.0296
11855W        W28329  16.935  16.565   2.655 -0.0900 -0.0670 -0.1086
11856W        W28330   1.000   1.658   1.725 -0.1807  0.0598  0.0175
11857W        W28331  17.616  14.655   2.429 -0.0296  0.2477 -0.3203
11858W        W28332  17.007   8.058   4.784  0.0200  0.3380  0.1102
11859W        W28333  10.710   3.574  10.102 -0.0849  0.1301 -0.1434
11860W        W28334  12.502  13.955  15.394 -0.0036 -0.0670  0.0336
11861W        W28335   5.521  11.988   2.341  0.3014  0.0834  0.1035
11862W        W28336  12.918  15.014   0.377  0.1477  0.0511 -0.2201
11863W        W28337  10.311  12.377  13.415 -0.3452  0.0763 -0.0037
11864W        W28338  17.272   9.498   0.289  0.2940 -0.0433  0.4185
11865W        W28339   4.120   2.298   2.946 -0.0533 -0.0228 -0.2729
11866W        W28340  16.400  14.717   1.690  0.1185 -0.0305 -0.2270
11867W        W28341  18.332   6.563   2.125  0.0745  0.0709  0.0123
11868W        W28342  13.137   2.065   5.977 -0.2191 -0.0411  0.2272
11869W        W28343  12.388  12.730   4.233 -0.0631  0.0152  0.1851
11870W        W28344  15.788  12.754   1.325 -0.2933 -0.0267 -0.0588
11871W        W28345  15.139   6.847   4.360  0.0621 -0.1184 -0.1730
11872W        W28346   0.725  13.971  14.301  0.0791 -0.0441  0.3869
11873W        W28347   5.973  14.353   3.535  0.2695  0.3094  0.0445
11874W        W28348   7.893   5.369  10.623 -0.1021  0.1217 -0.0967
11875W        W28349   2.341   7.151  13.241 -0.0974  0.0008  0.4468
11876W        W28350  18.152  15.114  14.906  0.1627  0.0983 -0.2850
11877W        W28351  14.896   0.720  10.224 -0.0459  0.3066 -0.0892
11878W        W28352   4.653   1.576  11.983  0.0468 -0.0727 -0.0556
11879W        W28353   4.359   9.080   3.414  0.0339  0.2404 -0.1280
11880W        W28354  11.258  14.647   4.221  0.1938 -0.3754 -0.1974
11881W        W28355  11.369   6.068  15.264  0.0162  0.1619 -0.0812
11882W        W28356  17.453   8.607  15.498  0.1332  0.0138 -0.1105
11883W        W28357  18.333   7.714   3.401  0.2193  0.0036  0.0184
11884W        W28358   3.347  14.306  10.987  0.4022 -0.0238 -0.0160
11885W        W28359  16.006  10.057   0.088  0.1143 -0.0954 -0.0694
11886W        W28360  17.835   0.751  13.286 -0.0583  0.0702  0.0281
11887W        W28361   2.444   2.251  13.996 -0.0902 -0.0683 -0.0056
11888W        W28362   3.822  14.776  11.959 -0.0179 -0.0259  0.3788
11889W        W28363   2.501  12.776  14.210 -0.0788 -0.2082 -0.0952
11890W        W28364   2.697   0.842  13.002  0.2964  0.1452 -0.1432
11891W        W28365  10.709   9.443   4.735 -0.2552  0.1241  0.0327
11892W        W28366  17.211   1.692  11.605  0.4814  0.1634  0.0225
11893W        W28367   8.458   1.500   3.949 -0.2482 -0.1481  0.1324
11894W        W28368   1.871   2.584   3.222  0.0287  0.0267 -0.2188
11895W        W28369   7.031   3.496   3.011  0.0744 -0.2385  0.0070
11896W        W28370  14.174   5.183  11.083  0.0247 -0.2802  0.4755
11897W        W28371  13.971  16.322  15.370 -0.2583 -0.0955  0.0251
11898W        W28372   8.692  14.294   2.174 -0.0537  0.0457  0.1307
11899W        W28373  18.747   0.838   1.783  0.0893  0.1847 -0.1850
11900W        W28374   8.355   7.178  11.082  0.1693 -0.5303 -0.0745
11901W        W28375   7.295   5.137   0.886 -0.2395 -0.0001  0.0096
11902W        W28376   7.842   0.293  13.754  0.1308  0.2306  0.1357
11903W        W28377  18.517   6.671   2.828  0.2339 -0.0764 -0.0162
11904W        W28378   4.456   5.145   1.701 -0.0585 -0.0474 -0.0575
11905W        W28379   2.894   5.942   0.411  0.0931  0.3958 -0.2821
11906W        W28380   0.230   6.723   2.749 -0.1120 -0.2039  0.3750
11907W        W28381   7.805   0.964   4.374 -0.1795 -0.0639  0.2053
11908W        W28382  13.696  11.336   1.278 -0.1580  0.0619  0.0678
11909W        W28383   7.429   5.700  10.459  0.0072 -0.1339 -0.0044
11910W        W28384  18.001   3.868  12.092 -0.0448 -0.1390 -0.1975
11911W        W28385   4.438   5.924  12.067  0.1398 -0.2115  0.0005
11912W        W28386   0.811   3.983  11.586 -0.0252  0.0138 -0.1117
11913W        W28387   9.723  14.247  12.395  0.0649  0.2498 -0.2475
11914W        W28388  13.142   7.620   4.985  0.1825 -0.1569  0.0525
11915W        W28389   5.576   7.704  11.659  0.2344  0.0438 -0.0053
11916W        W28390  13.389  10.701   1.188  0.0310  0.1653  0.0502
11917W        W28391  13.984  16.390  13.087  0.1314  0.3422  0.1328
11918W        W28392   6.810   5.508  11.250 -0.2358  0.1082 -0.2766
11919W        W28393  18.420   2.766   3.689  0.1596  0.1633 -0.1427
11920W        W28394   7.848   4.556   5.484 -0.0061  0.0519  0.3489
11921W        W28395  11.363  12.438   1.080  0.1767 -0.0018  0.0236
11922W        W28396   0.606   3.218   3.228 -0.1172 -0.2863 -0.3291
11923W        W28397   8.615   9.217  12.544 -0.3291 -0.0821 -0.3332
11924W        W28398  16.615  13.471  13.811  0.2368  0.1954  0.2196
11925W        W28399   6.188   3.275   1.623  0.1926  0.1299  0.0025
11926W        W28400   5.161  15.762   1.355 -0.4227 -0.1106 -0.3304
11927W        W28401   4.882  15.500  12.828  0.2104  0.2864 -0.2280
11928W        W28402  14.020   1.176   0.989 -0.0355  0.0267 -0.0187
11929W        W28403   6.325   0.865   1.419 -0.0662  0.0828  0.0122
11930W        W28404  14.936   9.402   4.368  0.3659  0.4070  0.2616
11931W        W28405   5.532  17.273  12.454 -0.1427  0.2052 -0.2856
11932W        W28406   0.047  10.753   3.751  0.0046 -0.1638 -0.2242
11933W        W28407  18.670   3.819   1.002  0.2444 -0.0806  0.0874
11934W        W28408   1.171   2.782  13.596 -0.1036 -0.1412 -0.0155
11935W        W28409  14.664  17.866  12.777 -0.0843 -0.1402 -0.0561
11936W        W28410  17.829  16.468  14.041 -0.1362 -0.2331 -0.1392
11937W        W28411   4.465   2.183  14.315 -0.0894  0.0768 -0.1242
11938W        W28412   9.246   7.716  13.616  0.1920  0.0256 -0.0970
11939W        W28413   2.753   3.995  15.113 -0.1748  0.1297 -0.0690
11940W        W28414   5.761   6.146  12.460 -0.1424  0.1186  0.1265
11941W        W28415   0.699   0.907   0.692  0.1206 -0.1027  0.1993
11942W        W28416  11.377   0.741  12.698 -0.6048  0.1266  0.2049
11943W        W28417   2.272  10.670   4.019 -0.0779 -0.0718 -0.2423
11944W        W28418  17.956   7.507  12.602  0.0754 -0.1307  0.0541
11945W        W28419   9.787   6.770  11.070 -0.0998 -0.1390  0.1327
11946W        W28420   5.462   2.780   0.751 -0.1368  0.1095  0.3533
11947W        W28421   0.287  14.811   2.918  0.0413  0.0459  0.2301
11948W        W28422  17.708   1.528  12.541  0.1164 -0.1337  0.4167
11949W        W28423   6.237   6.813  14.330  0.0385  0.2460  0.1008
11950W        W28424   8.221  14.336  13.225  0.0161  0.2000  0.0504
11951W        W28425   7.299  16.509   4.317 -0.1453 -0.0629  0.0814
11952W        W28426   9.322  11.774   3.165  0.0318  0.1981  0.0811
11953W        W28427  11.251  16.186  10.105 -0.1534 -0.1755 -0.1495
11954W        W28428   9.835   5.488   3.179  0.0222 -0.1637 -0.5606
11955W        W28429  11.187  14.737  13.314  0.3675  0.2112  0.1774
11956W        W28430   4.723  17.968   2.615 -0.0477  0.0245 -0.0987
11957W        W28431  12.641   0.049   3.680 -0.0296  0.5774  0.2150
11958W        W28432  12.771   4.796  12.545  0.2734  0.0715 -0.0183
11959W        W28433   5.885  11.664   2.539 -0.0140  0.0786 -0.1032
11960W        W28434  16.838   3.980  11.789  0.0007  0.0627 -0.0454
11961W        W28435   0.172   1.689   0.557  0.1934  0.0943  0.1625
11962W        W28436  14.213  16.165   3.750  0.0163  0.2094  0.0433
11963W        W28437  16.550   6.700   0.856  0.0984  0.0015 -0.0828
11964W        W28438   1.631  15.135   9.332  0.2370 -0.0607  0.0637
11965W        W28439   0.872  12.831  11.219 -0.0749 -0.1579  0.1042
11966W        W28440  10.470  14.259   2.854 -0.2882 -0.0480  0.1024
11967W        W28441   9.925   4.844  14.230  0.0194 -0.1413  0.0985
11968W        W28442  16.935  10.046  10.828  0.1264 -0.0664 -0.2834
11969W        W28443  17.071   9.171  14.292  0.1393  0.1035  0.2044
11970W        W28444   8.299   9.092   0.728 -0.0225  0.2821 -0.0876
11971W        W28445  11.817  11.422   5.144 -0.3608 -0.0715 -0.2208
11972W        W28446   5.834   2.260   5.678  0.2751  0.3334  0.0869
11973W        W28447  11.641   1.977  14.366 -0.2946  0.3143  0.0146
11974W        W28448  15.463   3.394   0.999  0.1609 -0.1333 -0.0357
11975W        W28449   1.762  11.393   4.021 -0.2461 -0.1465 -0.2791
11976W        W28450  15.472   7.227   0.455 -0.0692  0.1939 -0.1283
11977W        W28451   0.854   8.010  13.504  0.0173  0.1339  0.1771
11978W        W28452  13.613   5.194   0.369 -0.1645 -0.1060  0.0723
11979W        W28453  12.079  11.575  11.058  0.2360  0.1451  0.2032
11980W        W28454  14.691  18.321   4.848 -0.1560  0.0918 -0.0544
11981W        W28455  12.748   6.918   3.754 -0.3203  0.0336 -0.2187
11982W        W28456   7.615  14.083  11.930 -0.0843 -0.3794  0.1267
11983W        W28457  15.572   9.184  11.013 -0.1298 -0.1054  0.0634
11984W        W28458  10.011  11.935  15.129 -0.0303  0.0072 -0.2231
11985W        W28459   9.186  16.748   4.263 -0.1685  0.1875 -0.0979
11986W        W28460   5.814   2.733   4.085  0.0428 -0.4811 -0.2973
11987W        W28461  10.162   7.126   0.376  0.4691 -0.0528  0.0804
11988W        W28462  15.761  16.444   4.912 -0.1244 -0.3183  0.0747
11989W        W28463  13.857   2.867  14.085  0.1238  0.2547  0.1080
11990W        W28464   2.708  16.929  13.036 -0.1343  0.2033 -0.2278
11991W        W28465  14.919   5.870  14.656  0.1423 -0.0525 -0.1772
11992W        W28466  11.036  18.698  15.189  0.1050  0.0539  0.0705
11993W        W28467   3.981  17.966   0.448 -0.2255  0.1026  0.2079
11994W        W28468  11.219   9.239   3.394 -0.0543 -0.1144  0.3610
11995W        W28469   5.708  13.945  13.540  0.0718 -0.0455 -0.3357
11996W        W28470   7.962   6.142   4.090 -0.1654  0.0471 -0.0277
11997W        W28471  14.555   2.048  14.257  0.4785  0.2304  0.4581
11998W        W28472   8.947   3.335   4.168  0.0814  0.1937 -0.0321
11999W        W28473   9.744  13.431   0.026  0.1011  0.0306  0.3459
12000W        W28474   8.442   4.285   2.225  0.0396  0.1129 -0.0569
12001W        W28475   6.746  10.967  11.487 -0.0573 -0.2700  0.2311
12002W        W28476   9.001   7.562  14.182  0.0919  0.0018 -0.0230
12003W        W28477  13.698  13.721   5.350  0.1629  0.0659  0.2623
12004W        W28478  16.501  15.066   6.268 -0.1655  0.1192 -0.1758
12005W        W28479   4.816  18.356  15.458 -0.0100  0.3640  0.1384
12006W        W28480  15.158  10.104  10.797 -0.0681  0.1218 -0.1932
12007W        W28481   0.010   6.754  15.031 -0.2556  0.0990  0.3923
12008W        W28482  13.791  14.389  11.890  0.1230 -0.0455 -0.0918
12009W        W28483   4.605  16.918   4.622 -0.0388  0.0074  0.0551
12010W        W28484  10.034   4.016   0.075 -0.1534 -0.1662  0.3042
12011W        W28485   8.660  17.543   0.854  0.1774  0.0502 -0.1385
12012W        W28486   3.353  17.378  14.420 -0.0233  0.2022  0.0382
12013W        W28487  11.282  17.370   1.848 -0.0689  0.0332 -0.1579
12014W        W28488  12.455   3.133   1.403 -0.2192  0.0882 -0.1947
12015W        W28489  10.711   8.056  11.201  0.4109 -0.0766 -0.1623
12016W        W28490   2.888  14.877   0.238 -0.2958  0.2696 -0.0465
12017W        W28491  13.437  14.148  11.516 -0.1955  0.1123  0.1336
12018W        W28492  16.480  12.680   4.357  0.0157  0.0922 -0.0853
12019W        W28493  13.547   4.339   0.243  0.0788 -0.0479  0.0648
12020W        W28494  16.699  15.873   0.671 -0.2596 -0.1290  0.1306
12021W        W28495  11.590  12.409  15.364  0.0974  0.0307  0.0792
12022W        W28496  17.407  17.537  15.562  0.0068 -0.1355 -0.1090
12023W        W28497   1.845   0.818   4.383  0.1126  0.1790 -0.0732
12024W        W28498   9.778  14.174   3.531 -0.1077  0.0445  0.2238
12025W        W28499  14.716  11.340   1.054 -0.0727  0.3868  0.2739
12026W        W28500   9.556  17.094  15.322 -0.2845 -0.1399  0.3255
12027W        W28501   9.753  17.569  10.969  0.2141  0.2808  0.0467
12028W        W28502  14.294  16.760   1.537 -0.3054 -0.0015  0.3892
12029W        W28503   7.713   4.559   1.454  0.0405 -0.2031 -0.1196
12030W        W28504  13.540   2.761  11.332  0.1102 -0.1769 -0.0368
12031W        W28505   5.049  18.242   2.941  0.1441 -0.3373 -0.2365
12032W        W28506   5.113  11.464  10.881  0.0220 -0.0540 -0.0167
12033W        W28507   5.455   4.952   1.742 -0.1080  0.1447  0.1701
12034W        W28508  12.346  12.341   2.303  0.0917 -0.1773 -0.0624
12035W        W28509   9.948   6.410   4.477 -0.3184 -0.3195  0.1226
12036W        W28510  16.467   2.331   0.468 -0.1047  0.0973  0.0796
12037W        W28511   6.002  11.398  11.459  0.0821 -0.1060  0.0233
12038W        W28512  14.884   9.426  13.080  0.0723  0.2566  0.2429
12039W        W28513   5.634   0.428   2.882 -0.0515 -0.3527  0.5150
12040W        W28514  17.198   8.719   4.991 -0.1104  0.2856 -0.1504
12041W        W28515  14.124  12.877   4.828  0.1978 -0.1011  0.1849
12042W        W28516   4.755   8.941   0.214  0.1539  0.1851  0.4047
12043W        W28517   5.753  15.386   0.790  0.2142 -0.2013 -0.0643
12044W        W28518  10.567   2.695  11.645  0.0783  0.0632 -0.1684
12045W        W28519   2.419  15.671   2.021 -0.1938  0.3574  0.1477
12046W        W28520   0.526  16.129  10.956 -0.0677 -0.1781 -0.6183
12047W        W28521  11.774  17.153  12.543  0.1598  0.1816  0.1402
12048W        W28522   6.037   9.006  11.566 -0.1769  0.3045 -0.1063
12049W        W28523   8.514   2.048  10.899  0.0798  0.0513 -0.0775
12050W        W28524  16.368  12.052   2.773  0.1891 -0.0862 -0.2062
12051W        W28525   4.988  16.095   0.446 -0.0982  0.2203  0.2145
12052W        W28526  15.970  18.689  12.189 -0.0081  0.0943  0.2977
12053W        W28527   7.568   3.451  14.248  0.2460  0.0184 -0.2614
12054W        W28528  12.054   1.388   6.208 -0.0538  0.2742 -0.0480
12055W        W28529  15.748   6.637  12.450 -0.1131 -0.1496 -0.2903
12056W        W28530  10.838   3.355   1.294  0.5820 -0.0537 -0.0133
12057W        W28531  18.233   0.474  14.369 -0.2326  0.2389  0.2441
12058W        W28532  15.674  10.406   1.071 -0.2777  0.0471  0.2627
12059W        W28533   2.793  18.463   0.179  0.2551 -0.1576 -0.4579
12060W        W28534   6.436   9.586  15.170 -0.1700  0.1450  0.1250
12061W        W28535   6.817   1.529  14.365 -0.1493  0.0204 -0.0089
12062W        W28536  12.731   2.659   4.710  0.1101 -0.2024 -0.0732
12063W        W28537   4.008  11.389  15.361 -0.2937 -0.3459  0.0443
12064W        W28538   7.390  12.342  15.412  0.1580 -0.1292 -0.1590
12065W        W28539   2.352  13.223   1.838  0.0515 -0.0970 -0.0969
12066W        W28540   5.451   2.520  13.278  0.2420  0.1113  0.1372
12067W        W28541   9.916   3.269  14.969  0.0513 -0.1515  0.1780
12068W        W28542   3.249  15.062   1.605  0.3655 -0.0305 -0.0073
12069W        W28543   4.806   8.495   0.524  0.0891 -0.2345 -0.0270
12070W        W28544   4.562  14.091   1.421 -0.2865  0.1579 -0.2735
12071W        W28545  16.361   4.557   2.710 -0.0797 -0.1878 -0.1299
12072W        W28546  16.218  13.743   4.319 -0.1653  0.0718  0.0316
12073W        W28547   1.655  11.494  13.771 -0.0194 -0.0173  0.1179
12074W        W28548   0.451  12.332  11.827 -0.0473 -0.0082  0.1837
12075W        W28549   9.896  11.441   1.053 -0.2654  0.2721  0.1892
12076W        W28550  13.632  14.200  14.306  0.1263 -0.0065  0.0465
12077W        W28551   8.310   2.226  14.585 -0.1378 -0.0268  0.4016
12078W        W28552  12.931   7.081   1.278  0.2420  0.0103  0.2174
12079W        W28553   8.965   8.356  11.195  0.0260  0.0116 -0.1360
12080W        W28554   3.122   1.543   1.200  0.0364 -0.4045  0.2136
12081W        W28555   1.582   6.645  11.984 -0.1382  0.3499  0.0005
12082W        W28556  10.339  17.748   3.382  0.0690 -0.1253 -0.0288
12083W        W28557  13.499   6.013  15.405  0.1322  0.3104 -0.2656
12084W        W28558  17.087  16.390   3.433 -0.0886 -0.2033  0.1480
12085W        W28559   0.954  17.986   1.281 -0.0929 -0.4221 -0.2306
12086W        W28560  14.771  17.727   1.185  0.1159 -0.0683  0.1644
12087W        W28561   2.131  15.331   2.545  0.0882  0.2051  0.0445
12088W        W28562  10.216  10.713  14.594 -0.1812 -0.1151  0.0663
12089W        W28563  16.626  14.301   3.565 -0.4747  0.2085  0.1146
12090W        W28564   0.895   7.492  11.604 -0.0892  0.4057  0.3388
12091W        W28565   1.247  11.159   0.456  0.2861  0.0651  0.2273
12092W        W28566  14.162  15.053  13.076  0.1903  0.5244 -0.3663
12093W        W28567   3.685  13.229   3.502  0.2375  0.3267 -0.1948
12094W        W28568  15.627   6.856   0.104 -0.2752  0.0595 -0.2625
12095W        W28569  17.008  16.809   1.242 -0.0492 -0.1634 -0.1564
12096W        W28570  11.040   4.201  12.227 -0.1270  0.1047  0.2310
12097W        W28571   7.249   1.378  14.473  0.3426 -0.1133  0.0944
12098W        W28572  14.035  13.292   0.799  0.0329  0.3424  0.3337
12099W        W28573  16.617  12.862   0.511  0.3658  0.2556 -0.2253
12100W        W28574   4.265   3.225   4.747 -0.2268 -0.2269 -0.0479
12101W        W28575  11.493   3.235  12.407 -0.0511  0.2036  0.1309
12102W        W28576  18.471   4.263  13.284 -0.2570  0.1362 -0.0673
12103W        W28577   7.618   4.181   2.696  0.3194  0.2538 -0.1445
12104W        W28578   7.331  16.181   0.829  0.1663  0.1688  0.0486
12105W        W28579  18.191  10.594   3.113  0.0545 -0.0443 -0.0417
12106W        W28580  16.758  11.356   0.631  0.0446  0.2214 -0.1195
12107W        W28581   0.284   0.578  10.486  0.3138  0.2222 -0.0718
12108W        W28582  13.275   9.709   2.387 -0.0738  0.0689  0.0388
12109W        W28583   3.108   4.525   1.763 -0.1598 -0.1077  0.1405
12110W        W28584   6.441   7.279   2.098 -0.0613 -0.0457  0.0164
12111W        W28585   4.153  18.271  11.220 -0.0567  0.1824  0.3074
12112W        W28586  10.252   9.290   2.309 -0.2067  0.2587 -0.1022
12113W        W28587  11.794  13.187  14.392  0.2123 -0.0299  0.2663
12114W        W28588   5.835   1.762   1.525 -0.0747 -0.2176 -0.1681
12115W        W28589   5.632  18.281   0.368  0.1899 -0.2230  0.0361
12116W        W28590  13.272   6.896   3.733 -0.0658  0.0355  0.1089
12117W        W28591   3.851  15.485  14.996  0.1160 -0.0296  0.2207
12118W        W28592   2.347   7.506   4.505 -0.2409  0.2737 -0.4425
12119W        W28593  14.945   0.158  14.284 -0.1550  0.0156 -0.1850
12120W        W28594   6.461   4.316   4.343 -0.1699 -0.0738 -0.0463
12121W        W28595   5.967   0.320  10.686  0.2295 -0.0153  0.0181
12122W        W28596   4.980  12.087   9.628 -0.1062  0.1504  0.0225
12123W        W28597   5.113   2.120   1.748 -0.0307 -0.0692 -0.1751
12124W        W28598  12.428   7.120   2.600  0.2860 -0.2539 -0.3088
12125W        W28599   2.142   2.990  13.790 -0.0691  0.0428  0.2105
12126W        W28600  17.226   8.975   0.187 -0.0550  0.2925 -0.2257
12127W        W28601   1.798  11.708  10.581 -0.0256  0.1026 -0.5182
12128W        W28602   0.195   9.240   1.732  0.1676  0.0646  0.0320
12129W        W28603   5.691  11.761  13.259 -0.1949 -0.0646 -0.0595
12130W        W28604  12.757   9.291   5.303  0.0965 -0.1716 -0.0030
12131W        W28605   9.809  15.885  12.902  0.0711  0.1351  0.0556
12132W        W28606   4.534  14.749   3.496 -0.1893 -0.1293  0.3833
12133W        W28607   5.433   6.608   2.549  0.0732 -0.2708  0.0283
12134W        W28608   7.724   5.264   0.649 -0.4323  0.2124  0.3686
12135W        W28609   3.927  18.398   4.576  0.0442 -0.5435 -0.4184
12136W        W28610   2.863   4.937  14.898 -0.0726 -0.1157 -0.3477
12137W        W28611   8.857   8.253   2.866 -0.0527 -0.0664  0.0219
12138W        W28612   2.428   3.221   4.635 -0.0857 -0.3013  0.3287
12139W        W28613  15.576  10.221   3.478 -0.0817 -0.0097 -0.1637
12140W        W28614   8.616   9.598  11.341 -0.0933 -0.2008  0.0199
12141W        W28615  15.972  17.536   4.041 -0.0015 -0.2979 -0.0741
12142W        W28616   7.831  18.150   1.739 -0.1210  0.2087 -0.2276
12143W        W28617  10.971  11.505  10.908  0.2305  0.1354 -0.2794
12144W        W28618  17.664  10.534  13.709  0.1146 -0.3282 -0.0252
12145W        W28619  11.687  14.933  12.431 -0.1765 -0.0071  0.0412
12146W        W28620  17.059  12.090   0.269  0.0787 -0.2865  0.2454
12147W        W28621  17.425   8.506   5.352 -0.3649  0.1186  0.1777
12148W        W28622  15.309  17.425  13.947 -0.0342  0.1730 -0.0150
12149W        W28623  14.045   2.546   2.246  0.3260  0.2790  0.1488
12150W        W28624   7.155  16.779  14.557 -0.2648  0.1701  0.1191
12151W        W28625   1.179   1.133  15.551 -0.2033 -0.1585 -0.1595
12152W        W28626   5.510  17.760  11.844  0.1097  0.1358 -0.1519
12153W        W28627  18.334   8.239   4.677 -0.0875 -0.2170 -0.0129
12154W        W28628   2.967  10.088  11.776  0.2113 -0.1356  0.1820
12155W        W28629   5.893   5.825   4.595 -0.0374  0.2874  0.3692
12156W        W28630  14.747   7.337  12.751  0.0125 -0.1273  0.0018
12157W        W28631   7.794  17.883  11.746  0.0667 -0.1365 -0.0102
12158W        W28632   5.418  16.272  11.333 -0.2565 -0.1957 -0.0976
12159W        W28633   2.148   0.837  14.386  0.2994 -0.0431  0.2684
12160W        W28634  13.958   7.135  14.502 -0.0861 -0.1712 -0.1948
12161W        W28635   5.317   8.778   5.050  0.0356  0.4595 -0.2168
12162W        W28636   6.168  18.000   3.682  0.0683 -0.0565  0.2015
12163W        W28637   8.915   1.583   1.278 -0.0289 -0.0124 -0.1971
12164W        W28638  13.813  11.646  11.974 -0.0571  0.0160 -0.1875
12165W        W28639   9.103  18.605   2.013 -0.1735  0.4213  0.2629
12166W        W28640  15.956  16.899   0.826 -0.1788  0.2534  0.0125
12167W        W28641   1.299   2.168   2.252 -0.1888 -0.1258 -0.1106
12168W        W28642   0.063   3.319   3.161  0.0200  0.0581 -0.1676
12169W        W28643   3.565  18.469   2.204  0.1970  0.0449  0.1849
12170W        W28644   1.460   3.820   2.363  0.1962 -0.1275  0.0970
12171W        W28645   5.905  12.776   0.322  0.1854  0.0481  0.1794
12172W        W28646  14.692   3.117  14.779  0.5468  0.1806  0.1201
12173W        W28647   8.225   0.264  10.772 -0.1892  0.2462  0.0477
12174W        W28648   5.978   9.539  14.254 -0.0681  0.1185  0.2406
12175W        W28649  15.089  18.313  11.765  0.0390  0.2671 -0.0316
12176W        W28650  17.405  13.098   1.639 -0.0326  0.2957 -0.0031
12177W        W28651  13.432   4.483   3.958  0.2536 -0.0005  0.2706
12178W        W28652  14.250   0.767  12.246  0.1188  0.1597 -0.2989
12179W        W28653   3.587   8.604  11.490 -0.3559 -0.0346 -0.0942
12180W        W28654   6.559  10.605  12.881 -0.2030 -0.2005 -0.0129
12181W        W28655   6.637  16.450   3.973 -0.0188 -0.3499 -0.0737
12182W        W28656   0.152  11.420   0.254  0.1992 -0.2134 -0.1431
12183W        W28657  18.644   0.192  13.926  0.3253  0.2528  0.3269
12184W        W28658   0.703   1.747   0.511  0.2070 -0.1114 -0.1090
12185W        W28659   0.444   1.806  15.477 -0.1228 -0.2685 -0.1329
12186W        W28660   9.630   0.228  11.097 -0.3150  0.0849 -0.0458
12187W        W28661  15.328  15.570  10.552 -0.0747  0.0872  0.0764
12188W        W28662  11.702   3.806   1.391  0.3109 -0.1007 -0.1048
12189W        W28663  10.726   9.322   1.554 -0.1630 -0.0478 -0.0692
12190W        W28664   6.642  17.244   3.174 -0.2840 -0.3062 -0.2165
12191W        W28665  15.862  17.052  12.845  0.3009  0.0649  0.0892
12192W        W28666   1.796  18.777   5.022  0.1803  0.2040  0.2162
12193W        W28667  17.391   4.832   0.442 -0.0832 -0.2968  0.0636
12194W        W28668   0.899   2.999   0.638  0.1004 -0.1813  0.0200
12195W        W28669   4.742  15.656   0.970 -0.1595  0.0501 -0.0580
12196W        W28670   2.731  10.040  14.121  0.3310  0.2196 -0.0334
12197W        W28671   2.464  12.509   4.669  0.0266  0.0489  0.1457
12198W        W28672  10.133  16.828  13.270 -0.1002 -0.0550 -0.1607
12199W        W28673  10.681  12.856  14.462  0.0418  0.1454 -0.1948
12200W        W28674  17.988   4.197  13.174 -0.3416  0.0301 -0.3044
12201W        W28675   8.119   8.222  11.247 -0.1796  0.1990 -0.0600
12202W        W28676  11.299  11.874   3.560 -0.1050 -0.0727  0.1598
12203W        W28677   6.773  17.005   0.780  0.3434  0.2118 -0.1264
12204W        W28678   0.593  12.372  12.338  0.1937  0.0539  0.0310
12205W        W28679  18.371   6.074   0.823  0.0604  0.2141 -0.0927
12206W        W28680  13.286   2.625  13.386  0.0538 -0.3768  0.1827
12207W        W28681  18.321   8.626   5.735  0.1694  0.2438  0.0493
12208W        W28682   4.786  17.397  10.258  0.1567 -0.3229  0.2157
12209W        W28683  15.125  12.813  14.613 -0.0954  0.0397  0.2041
12210W        W28684   8.480   5.855   4.130  0.0361  0.1926 -0.0662
12211W        W28685   2.285  10.650  11.245 -0.0707  0.0280  0.1731
12212W        W28686   4.639  16.275   3.188  0.1287 -0.1307  0.2147
12213W        W28687  15.816   0.300  11.240 -0.0474  0.0914  0.1398
12214W        W28688  18.185   4.004   4.237 -0.1044  0.1591 -0.0602
12215W        W28689  12.247   1.299  15.456  0.0936  0.2855 -0.0608
12216W        W28690   6.799   5.078  12.828 -0.2045 -0.2080  0.0230
12217W        W28691  18.215   9.277   2.407  0.3016 -0.1783  0.3304
12218W        W28692  16.075   8.376  13.422  0.4659 -0.1576 -0.3277
12219W        W28693   0.662  16.316   4.415 -0.1680  0.2406 -0.0650
12220W        W28694  16.938   8.295   3.164  0.1524 -0.0601  0.0494
12221W        W28695   7.879  11.403   2.284 -0.0971  0.0666  0.0230
12222W        W28696  14.771  11.347  13.409 -0.3177 -0.3489  0.0219
12223W        W28697  13.368  17.111  15.229  0.1934 -0.1209  0.0615
12224W        W28698  12.724   8.932   5.809  0.0701 -0.0438  0.2602
12225W        W28699  15.417   0.096  12.255 -0.2914 -0.2029  0.1293
12226W        W28700  10.240  18.687   4.813  0.1824  0.1608 -0.0170
12227W        W28701  11.011   2.796  11.852  0.0964 -0.4325  0.0738
12228W        W28702  10.086  17.444  14.299  0.2207  0.1872 -0.4059
12229W        W28703   8.168  10.265  11.228 -0.0519 -0.3045  0.1178
12230W        W28704  14.529  13.238  13.509 -0.1463 -0.1210 -0.1578
12231W        W28705   8.552   3.142  11.662 -0.1307  0.2429 -0.2711
12232W        W28706   8.881   0.317  12.977 -0.1009  0.0746 -0.2070
12233W        W28707   4.984   2.289   2.412 -0.1176 -0.3598 -0.0993
12234W        W28708   0.473   0.291  14.484  0.3952 -0.2847 -0.0039
12235W        W28709   6.300  14.286   5.043  0.1028  0.1494  0.0121
12236W        W28710   1.369   2.933  11.189  0.0278 -0.1719 -0.1768
12237W        W28711   1.355  16.299  11.389  0.1124  0.0631 -0.1796
12238W        W28712   0.930   5.208   2.650  0.0476  0.0047  0.0907
12239W        W28713  12.949  16.607   1.891  0.1413  0.2267  0.1632
12240W        W28714   5.848   6.730   0.234  0.0278 -0.0244 -0.1217
12241W        W28715   3.258  16.079  13.094 -0.1289 -0.3688 -0.2778
12242W        W28716  17.334   0.774  15.015  0.0122 -0.0629  0.0194
12243W        W28717   3.044  14.882  13.614  0.2013  0.2008 -0.1043
12244W        W28718   5.963   1.923  13.982 -0.1361  0.2385 -0.0283
12245W        W28719  13.862   7.643  14.850 -0.0891 -0.0262 -0.1085
12246W        W28720   4.637  14.451  10.710  0.0781 -0.4066 -0.0406
12247W        W28721  18.485  16.413   2.818 -0.1345 -0.1731  0.0750
12248W        W28722   9.229   5.092   0.660  0.0659 -0.1462 -0.1179
12249W        W28723  11.250  15.366  13.556  0.2294  0.0233  0.0675
12250W        W28724  17.333  17.770  14.346 -0.2381 -0.0931 -0.1385
12251W        W28725  16.981  16.711  10.909 -0.0408  0.0374  0.1044
12252W        W28726  14.962  12.466  14.927 -0.2312 -0.1189  0.0517
12253W        W28727   0.884  13.646  13.183  0.0101 -0.1138 -0.2386
12254W        W28728  14.769   7.885  15.503 -0.4845 -0.0404 -0.2809
12255W        W28729  16.641  16.906   3.858  0.1446  0.0319 -0.3255
12256W        W28730   8.780  10.934  15.153  0.3215  0.1335  0.0393
12257W        W28731  18.716   1.332   1.960  0.3572  0.0640 -0.4599
12258W        W28732   2.564   8.374   2.589  0.0192 -0.3060 -0.0644
12259W        W28733  17.979  10.696  12.839 -0.0060 -0.1705  0.2415
12260W        W28734   6.289   9.674   0.550 -0.1321  0.0432  0.0809
12261W        W28735  11.757   2.824   3.910 -0.0720  0.3274  0.2675
12262W        W28736  15.441   8.540  14.385  0.2325 -0.3104  0.3080
12263W        W28737   6.866   2.458   1.451 -0.2771  0.1860 -0.1107
12264W        W28738  11.511   2.153  11.268 -0.0562 -0.1623  0.1342
12265W        W28739  11.342  18.426  14.043 -0.1662  0.2308  0.0883
12266W        W28740  12.512  15.910   0.554  0.2794 -0.0149 -0.1235
12267W        W28741   3.366  13.316   9.668  0.1021 -0.0988  0.3271
12268W        W28742  15.668   3.086  12.439 -0.0951  0.1959  0.4387
12269W        W28743   7.742   2.344   1.773 -0.1266  0.0364 -0.3303
12270W        W28744  10.095   8.151   5.153 -0.1354 -0.1150  0.1932
12271W        W28745  15.890   7.944   2.154  0.2116 -0.1154  0.1956
12272W        W28746  17.412  15.117  10.641  0.1617 -0.0364  0.1158
12273W        W28747   4.870   5.485  13.690 -0.3522 -0.2039 -0.1625
12274W        W28748   6.055   2.815   1.426  0.4371 -0.0090 -0.2844
12275W        W28749   7.308  10.039  11.501  0.1378 -0.1575  0.2221
12276W        W28750   0.170   0.558   4.940 -0.1620  0.0858 -0.2976
12277W        W28751   5.455  16.120   5.848  0.3383  0.2898  0.0730
12278W        W28752  13.454   5.232  14.936  0.0560  0.3482  0.0339
12279W        W28753   5.444  10.759   0.964 -0.2215 -0.0971  0.0535
12280W        W28754  14.287  13.563   4.833  0.4891  0.1080  0.1513
12281W        W28755  13.714  14.658   6.118  0.2480  0.0391 -0.0742
12282W        W28756   6.633   6.973   0.756 -0.2038  0.0313  0.0430
12283W        W28757  12.762  17.149  12.419 -0.3545  0.1372  0.1518
12284W        W28758  10.113   5.133   5.627 -0.1554 -0.0487 -0.2376
12285W        W28759   5.709   6.082  10.615 -0.2576 -0.3786 -0.0635
12286W        W28760   4.037   0.778  14.793 -0.4087 -0.0673  0.2017
12287W        W28761   2.830  14.330  13.408 -0.0543 -0.0274 -0.2882
12288W        W28762   2.270  14.720  13.114  0.1648 -0.1292 -0.0601
12289W        W28763   8.382   7.865   1.338 -0.2062  0.1219  0.1874
12290W        W28764  13.621   4.991  13.681  0.1177 -0.1511 -0.2223
12291W        W28765  13.644  15.571   4.713 -0.0548  0.1480 -0.1601
12292W        W28766   0.532  11.208   9.768 -0.1727  0.2609  0.1232
12293W        W28767   6.848  14.850   1.701 -0.0060 -0.0658 -0.2487
12294W        W28768  15.203  13.472  11.365  0.1192 -0.1908  0.1216
12295W        W28769   2.791  15.765   4.147  0.1744  0.1232 -0.1220
12296W        W28770  13.397  13.454   4.602 -0.1301  0.0427  0.2229
12297W        W28771  11.630   5.785  14.848  0.2078 -0.1052 -0.1155
12298W        W28772   5.067   2.674   0.438  0.0830 -0.1767  0.1965
12299W        W28773  17.460  14.408  14.359  0.0469 -0.0095  0.0822
12300W        W28774   4.562   8.060   4.096  0.1560  0.0923  0.1550
12301W        W28775   7.647  18.316   3.705 -0.1236  0.2793  0.1097
12302W        W28776  11.445   5.145  12.167 -0.6025 -0.0965 -0.0845
12303W        W28777   5.069   3.135   2.196 -0.3009  0.1765 -0.4223
12304W        W28778  13.677  13.689  11.469 -0.0883  0.2388 -0.1633
12305W        W28779   0.650   6.576   4.180 -0.1813 -0.0567 -0.2157
12306W        W28780   5.565  13.204  10.142  0.0689 -0.0443  0.1617
12307W        W28781  11.611   6.900   4.510  0.1994  0.1892  0.1525
12308W        W28782   7.134   2.356   0.054  0.1512 -0.2171  0.1740
12309W        W28783   7.263  18.602   0.152  0.1286 -0.1822 -0.3915
12310W        W28784  10.403   2.683  10.672  0.1595  0.1853 -0.2551
12311W        W28785   7.361  15.059  13.920  0.2578 -0.3175 -0.2541
12312W        W28786   5.285   1.862   4.019  0.0493  0.3267 -0.1114
12313W        W28787   3.454  12.015   3.956  0.1981  0.0690  0.0674
12314W        W28788   6.036  17.130  12.195 -0.4262 -0.1406 -0.2935
12315W        W28789  15.412  16.762   5.147  0.1071 -0.0294 -0.2742
12316W        W28790  10.998   8.667   3.656 -0.0597  0.0127 -0.1325
12317W        W28791   0.418  17.121  15.228 -0.0073 -0.2080  0.3506
12318W        W28792   9.435  12.108  15.069  0.1738  0.1886 -0.0143
12319W        W28793  14.267   8.919  14.147  0.2279  0.3174 -0.0353
12320W        W28794  10.539   7.867   3.975 -0.0187 -0.1789  0.3227
12321W        W28795  10.066   3.991  11.155  0.0581  0.1726  0.1630
12322W        W28796   0.888  17.463  12.308 -0.0018 -0.2201  0.0486
12323W        W28797   3.564   8.156   0.053 -0.2025  0.2871 -0.0748
12324W        W28798  14.714   5.197   2.542 -0.0935 -0.3559 -0.1622
12325W        W28799   9.814  15.165   2.395  0.0085  0.1411  0.3031
12326W        W28800  18.249  14.299   4.404 -0.2290 -0.3231 -0.0582
12327W        W28801   7.192  12.574   4.521 -0.0533 -0.1165 -0.1124
12328W        W28802  14.600   9.343  13.509  0.1415 -0.0047 -0.0779
12329W        W28803   8.002  14.702   3.940 -0.0721 -0.0552  0.6067
12330W        W28804  12.528  12.810   0.123  0.0405 -0.1337  0.0163
12331W        W28805  13.441  16.707   2.049  0.2093  0.2868  0.1404
12332W        W28806  18.354  14.581   4.847 -0.4375  0.0196  0.1756
12333W        W28807  11.089  17.753   3.533 -0.1249  0.0114  0.1440
12334W        W28808   7.968  18.383   4.240 -0.2084  0.0730 -0.2054
12335W        W28809  11.784  11.434  14.471  0.1048 -0.2992  0.1619
12336W        W28810  18.178  17.599  15.405  0.1813  0.0169  0.1297
12337W        W28811  15.117   2.173   1.037  0.1697  0.1225  0.1708
12338W        W28812   4.034   5.678  11.021  0.0529 -0.1249  0.0030
12339W        W28813   9.477  15.510   0.070 -0.0037 -0.2142  0.1033
12340W        W28814   4.968  13.927   3.412  0.0925 -0.1713 -0.1832
12341W        W28815  17.418  15.454  15.055 -0.2101  0.1986  0.0158
12342W        W28816   8.032  12.423   1.025  0.1505  0.1493  0.4789
12343W        W28817  17.183  10.182   3.735 -0.0730 -0.2538 -0.2029
12344W        W28818   1.185   1.574  10.837  0.2514  0.1530  0.1744
12345W        W28819  10.267   6.212  12.909 -0.0080  0.1306 -0.2016
12346W        W28820   8.231  18.667  13.435  0.1706  0.0408  0.3717
12347W        W28821  11.469   0.106  14.432 -0.0268 -0.1610 -0.1055
12348W        W28822  15.647  15.775   3.131  0.1173  0.0694 -0.2286
12349W        W28823  12.549  11.166   4.759  0.1989 -0.1311 -0.0024
12350W        W28824  15.562   9.657  13.512  0.1189 -0.0753 -0.0365
12351W        W28825  16.325  11.104   1.639 -0.2738 -0.1650  0.0034
12352W        W28826  14.868  15.417  14.984  0.2082 -0.0889 -0.0851
12353W        W28827   4.959   7.410   1.688 -0.0994 -0.2686  0.0469
12354W        W28828  16.708  14.171  14.753 -0.0672  0.1120  0.0946
12355W        W28829   8.647  18.615  15.476  0.0420 -0.1708  0.2442
12356W        W28830  17.116   8.619  14.254 -0.1416 -0.1968  0.2377
12357W        W28831  11.256  14.389   2.216 -0.2929  0.1014  0.1953
12358W        W28832   9.144   0.133   1.048  0.1383 -0.0099 -0.4024
12359W        W28833  10.142  16.954   4.462 -0.0767  0.2947 -0.0427
12360W        W28834  12.776  13.427   5.590 -0.0446 -0.0961  0.0090
12361W        W28835   2.914  17.953   2.504  0.0370 -0.1031  0.1027
12362W        W28836  10.748   7.266  15.141  0.1560 -0.1738 -0.2791
12363W        W28837   0.432  15.918  12.897 -0.1931  0.0233  0.0792
12364W        W28838  10.326   5.495  14.817 -0.1231  0.3775 -0.0286
12365W        W28839  12.488  15.607   3.614  0.0621  0.1099 -0.5213
12366W        W28840   7.646  12.756  11.679 -0.0483 -0.0064 -0.0414
12367W        W28841   4.685   2.949  14.654 -0.0182  0.1331  0.0344
12368W        W28842  16.842  12.341  11.350  0.2785 -0.1901 -0.2526
12369W        W28843   2.831  13.313  15.005 -0.0529  0.0225  0.2053
12370W        W28844   7.587   8.847   0.716  0.1127  0.1472 -0.0545
12371W        W28845  17.725   4.453  15.186  0.0115 -0.1239  0.1534
12372W        W28846  16.936  18.545  13.435 -0.0143 -0.0516  0.4025
12373W        W28847   7.624   7.010   5.117  0.2206 -0.1519 -0.0725
12374W        W28848   2.030   0.564  10.786  0.1863  0.0835  0.1594
12375W        W28849  17.928   3.293  14.948  0.0080  0.1557  0.1120
12376W        W28850   3.093  18.240   4.368  0.2245  0.0158  0.0086
12377W        W28851  14.898  12.059  14.062 -0.2349 -0.1975 -0.1152
12378W        W28852   9.701  12.165  13.154 -0.1075 -0.2673 -0.1735
12379W        W28853  13.391  16.307  10.971 -0.1236  0.0419 -0.0615
12380W        W28854   5.652   7.285   0.404  0.0430 -0.0837  0.0833
12381W        W28855   8.841  14.789   4.351  0.2330 -0.0480 -0.1365
12382W        W28856   1.843   0.298  13.061  0.0977  0.0227 -0.0721
12383W        W28857  14.904  15.673  13.630 -0.1282  0.0718 -0.0662
12384W        W28858  17.996   1.481  13.001  0.3023 -0.0959  0.2640
12385W        W28859   6.290   2.443  13.464  0.0541  0.0984 -0.2142
12386W        W28860   3.319  11.622   3.341  0.2164 -0.0209 -0.1505
12387W        W28861  15.078   5.238  12.514  0.1208 -0.2034 -0.1739
12388W        W28862  13.909  12.778   5.653  0.0208  0.0077 -0.1907
12389W        W28863   7.555  15.447   3.637 -0.0800 -0.0616  0.2751
12390W        W28864   5.114  12.376  11.241 -0.0540  0.1426  0.2647
12391W        W28865   4.097   7.244   0.708  0.1181  0.2023 -0.2282
12392W        W28866  11.685  16.523  14.859  0.0003 -0.1633  0.0531
12393W        W28867   4.796  13.561   2.765 -0.2003  0.0045  0.2244
12394W        W28868   3.074  15.239  13.102 -0.1441  0.0303  0.3761
12395W        W28869  13.267  12.678  11.516 -0.0289 -0.3942 -0.1567
12396W        W28870   6.470   3.068   3.701  0.0981 -0.2009 -0.1544
12397W        W28871   6.537  12.956   3.843  0.1768 -0.3524  0.0507
12398W        W28872  16.844   7.552   9.806 -0.0071 -0.3013 -0.3999
12399W        W28873   7.728  12.004   0.964 -0.0852 -0.1520  0.1759
12400W        W28874  16.922   4.162  15.487  0.1733  0.0851 -0.0698
12401W        W28875  10.054   6.127   0.693 -0.1719 -0.2053 -0.0746
12402W        W28876  14.549  18.122  11.919  0.2090 -0.1085  0.0933
12403W        W28877  14.158   4.729  11.902 -0.0429 -0.0919 -0.1462
12404W        W28878   0.987   7.174  12.360  0.0277  0.1099 -0.3028
12405W        W28879  11.369   7.196   4.089 -0.0113  0.0163 -0.2044
12406W        W28880  10.945  15.833   3.587  0.2636 -0.1422  0.1199
12407W        W28881   3.923  10.290  12.125  0.0311  0.0803  0.0226
12408W        W28882   5.056  18.603   0.670 -0.1254 -0.1233 -0.0172
12409W        W28883   7.221   8.180  14.933 -0.2244 -0.1062 -0.0595
12410W        W28884   6.252  16.201   0.392  0.2258  0.0845  0.2533
12411W        W28885  13.374  10.756  13.268 -0.2386 -0.0967 -0.1072
12412W        W28886  15.250  14.843   0.171 -0.1549 -0.1547  0.2218
12413W        W28887  16.648  15.697   1.696 -0.0536 -0.0619  0.0960
12414W        W28888  15.322   9.563   3.123 -0.4056 -0.1039 -0.0226
12415W        W28889  17.665  13.842  14.430 -0.0174  0.0652 -0.0294
12416W        W28890  10.301   4.775  12.528 -0.0408  0.0811  0.2000
12417W        W28891  18.024  14.670  15.204 -0.0237  0.2770 -0.2241
12418W        W28892   6.458  17.241  13.448  0.0387 -0.1391 -0.1955
12419W        W28893   8.731  15.321   4.298  0.1718  0.1713  0.0068
12420W        W28894  16.994   5.155  12.174  0.0445  0.0003 -0.1448
12421W        W28895   4.112  16.404   3.333  0.1704 -0.2802 -0.1743
12422W        W28896   3.455  10.006   1.414 -0.0525 -0.1214 -0.1436
12423W        W28897  10.278   9.927  12.585  0.3946 -0.0800 -0.0243
12424W        W28898  18.348  18.055   0.769  0.1892  0.2739 -0.0984
12425W        W28899  17.600  12.626   4.070  0.0378  0.1710 -0.2465
12426W        W28900   9.273   4.368   2.955  0.0740 -0.1024  0.0990
12427W        W28901  14.921   2.393   2.548 -0.0926  0.1787  0.1562
12428W        W28902  12.649   1.718   3.424 -0.1346 -0.3236  0.1523
12429W        W28903   6.349  10.515  14.821 -0.0764 -0.0261 -0.1988
12430W        W28904  11.445  15.009   4.772 -0.3826 -0.1754  0.1151
12431W        W28905   4.152   9.549  10.680 -0.1317 -0.1896 -0.4338
12432W        W28906  11.423  11.079  11.627  0.1740  0.0853 -0.1348
12433W        W28907  16.293  13.638   0.039 -0.3276  0.1917  0.1194
12434W        W28908  10.162  12.657  11.450  0.1973 -0.1414 -0.2322
12435W        W28909   6.489  11.577   0.680  0.0596  0.1614  0.3171
12436W        W28910   8.909   5.199  14.800 -0.0702 -0.1488 -0.2535
12437W        W28911   3.851  16.363  15.468  0.0358 -0.1675  0.1311
12438W        W28912  14.092   9.390  13.377 -0.0866  0.0225 -0.0936
12439W        W28913   8.603  18.483  14.560  0.1346  0.1023 -0.0562
12440W        W28914  17.370   4.096  14.921 -0.1180 -0.1128  0.0617
12441W        W28915  12.685   6.536  14.914  0.2170  0.2313 -0.3058
12442W        W28916  10.476  17.784  12.196  0.2615 -0.1378  0.0125
12443W        W28917  15.780  16.322  13.047  0.4247  0.0833  0.0084
12444W        W28918   3.027  12.284   0.933  0.2616  0.2646  0.3695
12445W        W28919  16.467   8.750  11.941  0.3185  0.0044  0.0181
12446W        W28920  17.918   7.698   6.320  0.0375  0.2421 -0.2241
12447W        W28921   6.851   9.554   2.771 -0.0327 -0.1176 -0.0377
12448W        W28922   3.845   9.900   0.979 -0.1916  0.0211 -0.2036
12449W        W28923   4.851   8.050  12.001 -0.0381  0.3588 -0.0057
12450W        W28924   9.971  10.215  13.831 -0.0189  0.0627 -0.0630
12451W        W28925   8.885   8.052  15.377  0.0667 -0.0870  0.0858
12452W        W28926  17.074  15.578   4.036  0.0757 -0.1598  0.2304
12453W        W28927  16.837  12.115   4.330 -0.0057  0.1713 -0.2403
12454W        W28928   5.553   8.904   4.623  0.0796  0.1754 -0.0738
12455W        W28929  12.259   7.966  12.144  0.2906 -0.1091 -0.0429
12456W        W28930   4.406   2.733   1.255 -0.0558 -0.3259  0.1518
12457W        W28931  16.078  10.283  12.540 -0.0431  0.0430  0.1138
12458W        W28932  16.124   1.078   4.854  0.4142 -0.0400  0.2141
12459W        W28933  15.415   5.910  14.531 -0.1915 -0.1587 -0.2008
12460W        W28934  17.557  15.413  11.670  0.3565 -0.1275  0.1449
12461W        W28935  13.135   8.494   2.827 -0.0342 -0.0951  0.0650
12462W        W28936   2.682  16.250   4.248 -0.1425 -0.0659 -0.2680
12463W        W28937  12.391   3.862  14.989 -0.0795  0.0842  0.1555
12464W        W28938   0.041  10.074   0.042 -0.1425  0.0354 -0.2136
12465W        W28939  13.052   0.773   4.581  0.0011  0.1451  0.0144
12466W        W28940   9.648  15.475  12.713  0.1449  0.0180 -0.0703
12467W        W28941  13.160  14.147  14.594  0.3499  0.3925 -0.1499
12468W        W28942   5.729  15.137  12.157  0.4316  0.1728  0.0836
12469W        W28943   0.536   2.849   5.285  0.2044 -0.0726  0.2167
12470W        W28944  13.009   3.563  12.348  0.2499  0.2493 -0.0936
12471W        W28945  10.022  12.734  10.945  0.2483 -0.0691  0.0222
12472W        W28946   1.124  11.416   2.029 -0.2863  0.5086 -0.3015
12473W        W28947  16.384  10.214   4.165  0.0519 -0.0498  0.0326
12474W        W28948   6.364   6.848   1.624  0.0933  0.3072 -0.1898
12475W        W28949   0.983   0.066  12.767 -0.0036 -0.0226  0.1374
12476W        W28950  14.417   7.746  13.360  0.0188  0.1036  0.3869
12477W        W28951   7.899  15.011  15.327  0.1908 -0.0508 -0.2496
12478W        W28952   0.459  17.408  13.479 -0.1845  0.1752 -0.3420
12479W        W28953   4.430  17.091   3.834  0.1144 -0.0765 -0.1307
12480W        W28954   4.309  18.059  14.807 -0.0597  0.1515  0.1093
12481W        W28955  14.707  10.705   3.284  0.0226 -0.2594  0.0495
12482W        W28956  13.181   9.077   0.782 -0.0791  0.2862  0.1003
12483W        W28957   3.695   2.650  14.401 -0.0097 -0.2597 -0.1964
12484W        W28958  12.608  17.231   2.103 -0.1322 -0.0086 -0.1534
12485W        W28959   5.878   3.994  11.013 -0.0565  0.1192  0.1573
12486W        W28960   8.921   6.180  14.804  0.5719  0.1453 -0.4478
12487W        W28961   3.234  15.561  14.882 -0.4088 -0.1704 -0.3107
12488W        W28962   1.347  12.059   3.671  0.0942 -0.0748 -0.1702
12489W        W28963  12.035   9.615  14.362  0.2325 -0.1051  0.2526
12490W        W28964   0.646  14.085  13.453  0.0818 -0.1617  0.1763
12491W        W28965   2.711  17.626   9.964 -0.0382  0.0047  0.2609
12492W        W28966  11.719  14.701  10.936  0.0126  0.0055 -0.1952
12493W        W28967  16.926  11.358  13.485 -0.1961  0.0192  0.3198
12494W        W28968   9.151   2.452  12.868 -0.2336 -0.0805  0.0474
12495W        W28969   4.325   9.821  14.161  0.0661 -0.5323 -0.1958
12496W        W28970   2.391   1.923   3.347 -0.0787 -0.0655 -0.3495
12497W        W28971   5.387   5.101  10.844  0.0018 -0.0191 -0.1559
12498W        W28972  13.169   1.900   0.353  0.0830  0.1804  0.0447
12499W        W28973  13.966   6.812  14.064  0.1821 -0.2363 -0.2037
12500W        W28974  18.270  16.651  10.519 -0.2699 -0.0764 -0.1331
12501W        W28975  11.740   0.884   4.890  0.4726 -0.2753 -0.2364
12502W        W28976   6.189  15.274   0.592 -0.0742 -0.3818  0.0557
12503W        W28977   0.980  13.843  13.853 -0.0192  0.0125 -0.1152
12504W        W28978   4.173   6.873  14.973 -0.0676 -0.3370 -0.0274
12505W        W28979   5.374  14.087  11.158  0.1253  0.0990 -0.0828
12506W        W28980   8.354  11.309   0.776 -0.3642 -0.3180  0.3049
12507W        W28981  15.929   2.753   1.114 -0.2396 -0.2904  0.0342
12508W        W28982   3.952  14.536   0.847 -0.0833 -0.3313 -0.2587
12509W        W28983   1.065  10.470  12.678  0.0042 -0.1974 -0.0027
12510W        W28984   8.559   0.139  14.855 -0.2245  0.2105 -0.3596
12511W        W28985  14.211   6.799   2.996 -0.0405 -0.5798  0.1260
12512W        W28986   6.370  11.235   0.375 -0.2188 -0.3484 -0.2885
12513W        W28987   1.373  15.886   1.146  0.1325 -0.2014  0.1089
12514W        W28988  14.839  10.959  13.739 -0.3116  0.0471 -0.2606
12515W        W28989  18.584  11.250   0.631  0.1744 -0.1522  0.0414
12516W        W28990  15.415   6.668  15.261  0.0204  0.1764 -0.0755
12517W        W28991   6.188   7.728   2.210  0.0409 -0.2353  0.0937
12518W        W28992  11.216  16.755  12.931  0.0898 -0.0668  0.1049
12519W        W28993  14.315   5.670  13.901 -0.5810  0.1744  0.0430
12520W        W28994  14.126   6.663   1.903  0.2188  0.1616 -0.1576
12521W        W28995   3.360   6.928   0.059  0.1213  0.0670  0.2092
12522W        W28996   6.585   0.244   0.039 -0.0127 -0.0326  0.4082
12523W        W28997  15.579   9.565   3.518  0.0656  0.3233  0.1458
12524W        W28998   2.387  16.413  15.173 -0.1505 -0.2061 -0.2584
12525W        W28999   7.552   1.381   4.514  0.1980  0.0646  0.0518
12526W        W29000   2.655   3.306  10.455  0.2278  0.3821 -0.1757
12527W        W29001  10.107   1.680  13.744  0.0276 -0.3721  0.1049
12528W        W29002  13.192  17.575  14.035 -0.0768  0.0697  0.2663
12529W        W29003   9.087   9.802   2.451  0.3577  0.0990  0.2741
12530W        W29004   2.173   5.684  14.401 -0.0738  0.1630 -0.0590
12531W        W29005  12.807   4.644   3.276  0.0077  0.1246  0.2938
12532W        W29006   7.789   9.698  13.413  0.0498  0.2326 -0.1866
12533W        W29007   8.977   7.041  12.088  0.0050 -0.3221  0.1584
12534W        W29008  12.455   7.064   1.140 -0.1565  0.2187 -0.0004
12535W        W29009  14.606  18.750  14.963 -0.2333 -0.0537 -0.2774
12536W        W29010  12.631   4.436   0.219  0.0214 -0.1058  0.0673
12537W        W29011   0.141  15.978  11.729 -0.0925 -0.3299  0.2855
12538W        W29012   1.025   4.243   4.173 -0.0453  0.1846  0.2265
12539W        W29013   3.069  18.289   0.614  0.1682  0.3749  0.1406
12540W        W29014  17.002   3.520  11.733  0.0077  0.2677  0.3678
12541W        W29015  12.732   1.253  15.467  0.1822  0.2885  0.1205
12542W        W29016  16.950   3.965  14.629 -0.1662 -0.1305 -0.4950
12543W        W29017  16.472  10.775   1.186 -0.0379  0.2112  0.0174
12544W        W29018   9.869   3.752   4.962 -0.2772 -0.1729 -0.1817
12545W        W29019  13.361  14.740   1.378 -0.2050 -0.1536 -0.2769
12546W        W29020   9.263   7.576   0.522  0.3915  0.1997  0.1605
12547W        W29021   2.208  12.740   0.942 -0.1551 -0.1305  0.2526
12548W        W29022   4.899   4.738  11.686  0.0024  0.1179 -0.1049
12549W        W29023   6.597  10.481  12.366 -0.1486  0.0582  0.0030
12550W        W29024   4.711   8.611  13.658 -0.0926 -0.0741 -0.0779
12551W        W29025  16.729  13.174  10.857 -0.0223  0.1882 -0.2045
12552W        W29026   3.535  16.843   1.248  0.0499 -0.0171  0.1039
12553W        W29027   2.734  12.864   0.211 -0.4024  0.0689 -0.0306
12554W        W29028  13.866   9.999   5.635 -0.1864 -0.1384 -0.0891
12555W        W29029   5.955  18.602  13.797  0.0563  0.2741  0.2463
12556W        W29030  14.380  18.425   0.643 -0.1048 -0.1884 -0.0338
12557W        W29031   4.123   2.168  10.620  0.0327  0.4616  0.0408
12558W        W29032  11.780   9.804   4.149  0.0237  0.2907 -0.1128
12559W        W29033   0.154   2.503  10.910 -0.0229 -0.0138  0.0233
12560W        W29034  13.167   1.335   5.078  0.1266  0.0478 -0.0029
12561W        W29035   9.335  18.349   0.438  0.0854  0.2334 -0.0375
12562W        W29036  16.573   1.982  11.114 -0.0569 -0.0660 -0.2090
12563W        W29037   9.855  17.589  11.520 -0.1575 -0.2006 -0.1226
12564W        W29038   4.330  15.648  15.292  0.1660 -0.0236  0.1500
12565W        W29039   3.220  17.666  11.489 -0.1384  0.2940 -0.2811
12566W        W29040   6.196  10.037   5.828  0.1986 -0.4685  0.2153
12567W        W29041   7.663  14.784   4.388 -0.2564  0.0989 -0.0762
12568W        W29042   4.439   5.431  11.265  0.1296  0.0183  0.3541
12569W        W29043  12.523  17.109  14.611 -0.0275  0.1065 -0.1925
12570W        W29044   9.939   4.473   3.361  0.1237  0.2363 -0.3964
12571W        W29045   6.116  18.271   0.008  0.0259 -0.2213  0.3294
12572W        W29046  14.001   2.240   0.013  0.3274  0.1178  0.0511
12573W        W29047  10.657   3.691   5.300  0.1360 -0.0039  0.1521
12574W        W29048   0.231   5.915   4.762 -0.1206 -0.1288 -0.2764
12575W        W29049  13.830  15.416  12.830  0.0344 -0.2003 -0.3505
12576W        W29050  15.004   7.811  12.783  0.3520 -0.0749 -0.0975
12577W        W29051   2.586  12.928  14.731  0.1530 -0.3324  0.0589
12578W        W29052  16.039   4.113   1.872  0.2206 -0.2955 -0.1739
12579W        W29053   3.675  12.247   1.800  0.2611  0.0874  0.1675
12580W        W29054   4.968   6.454   2.573 -0.0469  0.1429  0.2638
12581W        W29055  12.518   2.605   1.378  0.0302 -0.2212 -0.2038
12582W        W29056   3.595   3.248   3.274  0.1602 -0.1317 -0.2114
12583W        W29057   6.490   1.185  11.036  0.1416 -0.0597  0.1571
12584W        W29058   9.929   9.211  15.037  0.0495 -0.0276 -0.0996
12585W        W29059   1.127   0.587  13.547 -0.1505  0.1475 -0.0619
12586W        W29060   9.376  12.978   1.981  0.0867 -0.2268 -0.0443
12587W        W29061   6.245  17.045   3.405  0.0557 -0.2137  0.1235
12588W        W29062   9.703   2.416  13.940 -0.2108 -0.0956 -0.0022
12589W        W29063  14.567  12.714   5.100 -0.3540 -0.1456 -0.0253
12590W        W29064  10.613   2.657  13.146 -0.0292  0.0659  0.1158
12591W        W29065  10.684  18.587   0.615  0.0077  0.0912  0.0778
12592W        W29066   2.334   8.042   1.702  0.0822 -0.2112  0.0907
12593W        W29067  11.842   1.988   1.398  0.0444 -0.4342 -0.2693
12594W        W29068   2.400  18.111  14.383 -0.3740 -0.2165  0.2967
12595W        W29069   3.831  14.510   3.674  0.1129  0.1574 -0.0929
12596W        W29070  12.923   0.465   1.512 -0.3242  0.1416  0.0924
12597W        W29071  11.946   2.689   2.116  0.3106 -0.2633  0.0408
12598W        W29072   4.374   8.176  10.832 -0.1252  0.0644 -0.0119
12599W        W29073  17.424  13.999   0.187 -0.0321  0.0106  0.1608
12600W        W29074   3.997  11.723  12.626 -0.0766 -0.1245  0.0160
12601W        W29075   7.371  14.943   3.706  0.0132 -0.2857 -0.1499
12602W        W29076   8.920   4.080   2.461 -0.0292 -0.0497 -0.0952
12603W        W29077  13.051   3.333   2.754 -0.0434  0.1852  0.0260
12604W        W29078  10.902  15.917  11.002  0.1270  0.0026  0.0360
12605W        W29079  14.947   8.907  13.078  0.1096  0.0925 -0.0144
12606W        W29080  12.973  16.047   4.475 -0.0067  0.3263 -0.0266
12607W        W29081   1.318   8.517  15.539 -0.0853  0.0536 -0.2498
12608W        W29082  18.122  17.469  14.356 -0.2304 -0.1761 -0.2043
12609W        W29083   6.768  11.810  14.579  0.1618  0.2251 -0.0485
12610W        W29084   7.295   7.657  11.944 -0.4129 -0.1302  0.0667
12611W        W29085  11.679   2.969  14.827 -0.4778  0.0558 -0.1758
12612W        W29086   7.305  11.117   3.143  0.0771  0.1347 -0.0347
12613W        W29087   4.360  18.058   0.797  0.2619 -0.1976 -0.1418
12614W        W29088   0.460  14.387   2.711 -0.0262  0.2078 -0.0404
12615W        W29089   3.333  14.405   2.612  0.2908 -0.1438  0.1439
12616W        W29090  16.216  18.499  12.749 -0.0694  0.1585 -0.2964
12617W        W29091   4.798   6.909  12.213 -0.3219 -0.2768  0.0488
12618W        W29092   5.109  17.943  15.344  0.0183  0.0945  0.0494
12619W        W29093  15.381   1.412   3.907 -0.2219 -0.1400 -0.0203
12620W        W29094  16.295   6.318  15.523  0.1728  0.0496  0.1750
12621W        W29095   1.574  11.228  15.125  0.0303 -0.0225  0.1836
12622W        W29096  10.668   3.826  13.821  0.0593 -0.1070 -0.0195
12623W        W29097   4.615  11.986   0.785 -0.2195 -0.2466  0.1088
12624W        W29098  11.028  12.268  15.115  0.2374  0.0588  0.0364
12625W        W29099  14.259   8.824   4.542 -0.0128 -0.0535  0.0917
12626W        W29100   0.713  17.441   4.210 -0.1875 -0.0615 -0.1116
12627W        W29101   2.058  15.977   1.778 -0.1287  0.1212 -0.0474
12628W        W29102   3.204  15.697   9.471 -0.0841 -0.0497  0.1937
12629W        W29103   8.407   5.042   1.770 -0.2231 -0.0618 -0.0476
12630W        W29104   7.561  10.141   0.389 -0.0989  0.2572  0.2198
12631W        W29105  14.627   9.286   1.439 -0.0426 -0.1079 -0.1082
12632W        W29106  12.307   9.708  12.327  0.0171  0.0083 -0.3511
12633W        W29107   4.249   6.038   1.736 -0.0453 -0.2256 -0.2206
12634W        W29108   6.398  17.337   4.811  0.0704 -0.0271 -0.3103
12635W        W29109  13.050  15.467   5.452  0.2537  0.0255  0.0605
12636W        W29110   9.220  13.012  12.013 -0.1573  0.0901  0.2936
12637W        W29111   4.395  10.922  13.864  0.1208 -0.0851  0.3325
12638W        W29112   1.961  13.629   4.852 -0.3825  0.0251  0.0238
12639W        W29113  14.609  11.675   4.444 -0.1655 -0.1454  0.2817
12640W        W29114  10.850  17.516   1.040 -0.0739 -0.1839 -0.0842
12641W        W29115   3.185  15.429   4.017 -0.0884  0.3852  0.1153
12642W        W29116   4.503  17.284  12.735 -0.0109 -0.1111 -0.2256
12643W        W29117   1.277   3.056   2.655  0.0582 -0.0879  0.1206
12644W        W29118  18.703  18.698   1.440  0.1778  0.0117 -0.2428
12645W        W29119   9.878   2.410  12.962  0.0642 -0.3612  0.1276
12646W        W29120  18.244  14.895  12.468  0.2080  0.1486  0.0660
12647W        W29121   3.378   5.798  15.025 -0.1267  0.2428  0.2387
12648W        W29122   4.686  12.366   5.122  0.1209 -0.1325 -0.0368
12649W        W29123  17.287  11.767  12.123 -0.2332  0.0552  0.1251
12650W        W29124   4.292   9.766   5.057 -0.1761  0.0489  0.3110
12651W        W29125  13.840  13.310  12.873 -0.0738 -0.1162 -0.1544
12652W        W29126  10.797   9.684  13.704 -0.1130 -0.0690 -0.0779
12653W        W29127  16.752  12.458   0.800  0.2561 -0.0263 -0.0094
12654W        W29128  15.785  11.624   0.864 -0.0065 -0.0744  0.1018
12655W        W29129   6.579  13.980  14.021  0.0091  0.2387 -0.1791
12656W        W29130   5.859   4.399  11.412 -0.1540  0.1672 -0.0626
12657W        W29131  16.483   0.783   4.517 -0.0882 -0.2451  0.2364
12658W        W29132   6.050   9.202  10.533  0.1642  0.2634  0.2549
12659W        W29133   5.551   9.929   2.259 -0.1812  0.2184 -0.1365
12660W        W29134  17.773   0.668  14.186  0.0004  0.1086  0.1409
12661W        W29135  18.493   3.915  15.209  0.1610  0.0078 -0.0555
12662W        W29136   1.243  16.922  14.831 -0.0966  0.1251  0.1375
12663W        W29137  13.018  12.964   0.179 -0.2881  0.1849 -0.2000
12664W        W29138   4.576  12.827   5.267  0.0997 -0.2658 -0.1916
12665W        W29139   3.939   0.365  11.822 -0.3358  0.0356 -0.2067
12666W        W29140  17.690  16.367   3.219  0.0999 -0.1035  0.1514
12667W        W29141  17.473   3.792  13.365  0.1874  0.0153 -0.0457
12668W        W29142  11.013  13.507   0.286  0.3509  0.0276 -0.4160
12669W        W29143   4.799  13.948   4.846  0.1249 -0.0774 -0.0392
12670W        W29144  16.531  14.162   1.432 -0.0930  0.0777 -0.1077
12671W        W29145  10.661   2.387   3.790  0.2681  0.1458 -0.0753
12672W        W29146   7.314   2.265   0.636  0.0948 -0.0506 -0.1397
12673W        W29147   9.074   9.453   2.882 -0.0291  0.1214 -0.2710
12674W        W29148   1.002   4.676  12.421 -0.3740  0.1997  0.6212
12675W        W29149   3.982  13.853  12.984  0.0159  0.1709 -0.4278
12676W        W29150  16.736  14.388  13.007  0.1480 -0.1794 -0.2873
12677W        W29151  12.635  15.751  13.150  0.1965  0.2048  0.1795
12678W        W29152  17.993  14.660   1.616 -0.2067 -0.2727 -0.0671
12679W        W29153   3.106   9.883   3.307 -0.1101  0.0149 -0.1778
12680W        W29154   3.560   5.737  11.907 -0.2094  0.1716  0.1453
12681W        W29155   9.589  11.970   2.281 -0.1151 -0.2577 -0.2605
12682W        W29156   9.572  10.569  13.870  0.1577 -0.0213  0.0581
12683W        W29157  14.264  16.963  14.695  0.1299  0.4224 -0.0343
12684W        W29158   3.309   7.250   0.418  0.0786  0.0656  0.0880
12685W        W29159   3.537   4.657  11.283 -0.0846 -0.0363 -0.1405
12686W        W29160   5.783   0.102  12.256 -0.0239 -0.1606 -0.2016
12687W        W29161  17.436  12.684   2.101  0.1515  0.0993 -0.1839
12688W        W29162   9.358  14.499   5.753 -0.1871  0.0930 -0.0394
12689W        W29163  10.137   0.498  15.091 -0.3677  0.1981  0.0119
12690W        W29164   4.461  15.680   1.472  0.0026  0.0895  0.1097
12691W        W29165   1.961   7.743  13.831 -0.2809  0.0276 -0.0457
12692W        W29166   4.465  16.215   5.614  0.2338  0.0019  0.1686
12693W        W29167  13.759   1.465   4.256 -0.1960 -0.1904  0.1635
12694W        W29168   1.040   4.168   0.779 -0.0207  0.1047  0.0695
12695W        W29169   7.845   6.149   2.490  0.1295 -0.0936  0.1086
12696W        W29170  10.619   6.953  14.576 -0.3696 -0.0952 -0.1774
12697W        W29171   3.278  11.696  15.294 -0.2427 -0.0659  0.2634
12698W        W29172   6.800   9.274  15.272 -0.0969 -0.0855  0.1980
12699W        W29173  14.516   2.505  11.733 -0.1720  0.0238 -0.2233
12700W        W29174   1.316   3.532   1.930  0.2053  0.0458  0.0444
12701W        W29175   9.038   9.116   9.763  0.3666  0.1099 -0.2610
12702W        W29176  10.686  17.781   2.380 -0.0535  0.1309 -0.0231
12703W        W29177  15.776   8.140   4.052  0.3668 -0.0760 -0.0915
12704W        W29178  14.779   1.668  11.065  0.2600 -0.0760  0.0708
12705W        W29179  14.194   8.002   5.118  0.0943 -0.0823 -0.0110
12706W        W29180   6.271   1.750   1.906 -0.2496 -0.3923  0.0345
12707W        W29181  16.663   4.954   5.207  0.0415 -0.0612 -0.0122
12708W        W29182   1.497  14.148  11.075 -0.1958  0.1200 -0.0235
12709W        W29183  15.668   7.456   2.439  0.0028  0.2079 -0.1399
12710W        W29184   1.637  16.824   5.259  0.0858 -0.1912  0.0238
12711W        W29185  16.717   4.808  15.263  0.0845  0.2182 -0.1680
12712W        W29186  15.628  18.768  13.466  0.4101 -0.1140 -0.2545
12713W        W29187  14.872  13.400   3.389 -0.1095  0.0602 -0.1380
12714W        W29188  12.751   4.851   2.249  0.3614  0.2487  0.1200
12715W        W29189  15.178  17.652   3.122 -0.0974 -0.0431 -0.2704
12716W        W29190  16.458  18.044   1.193 -0.1342 -0.0445 -0.0052
12717W        W29191  17.963   0.178   2.697  0.1967 -0.2290  0.1240
12718W        W29192  16.522   6.060   5.969 -0.1843  0.4249 -0.2252
12719W        W29193  13.732  11.716   4.817 -0.0817  0.1190  0.2831
12720W        W29194   3.019  15.120   3.088 -0.0749 -0.3106  0.2220
12721W        W29195   1.893  10.372   5.096 -0.1056 -0.1427 -0.0399
12722W        W29196  12.164  15.140   1.501  0.0153 -0.1432 -0.2418
12723W        W29197  17.332  15.443  11.204  0.0983 -0.1029  0.1989
12724W        W29198  10.827   9.747  12.663 -0.0569  0.0411  0.0626
12725W        W29199  15.097   6.506   5.109 -0.0185  0.1089 -0.0713
12726W        W29200   7.604   5.708   3.902 -0.0439  0.1841 -0.2468
12727W        W29201  16.042  11.463   1.374 -0.0848  0.1256  0.2864
12728W        W29202   2.327  12.240   9.556 -0.2937 -0.2514  0.4468
12729W        W29203   6.825   5.922   2.062  0.0453  0.1543  0.0187
12730W        W29204   9.363  17.898  10.907  0.0179 -0.1093 -0.2195
12731W        W29205   2.077  14.706  15.303 -0.1473 -0.1777 -0.1531
12732W        W29206  17.621   4.322  13.575  0.2409  0.0119  0.0208
12733W        W29207  15.270  18.634   1.768 -0.1929 -0.0821 -0.3081
12734W        W29208   4.350   5.818   9.446  0.0122  0.0764  0.0054
12735W        W29209   0.410  11.111  15.091 -0.3471 -0.1690  0.0612
12736W        W29210  11.625  18.320   3.774 -0.2318 -0.0245 -0.1609
12737W        W29211   3.335  10.631  13.593 -0.1235  0.0613 -0.0469
12738W        W29212   0.479  10.722   3.964 -0.0672 -0.0352  0.2471
12739W        W29213   8.100   8.878  14.026  0.3145 -0.2481  0.2542
12740W        W29214  15.161   2.185  14.989  0.0422 -0.1409  0.0401
12741W        W29215  17.610   6.548   1.871  0.0947  0.3823 -0.1023
12742W        W29216  16.866   8.162  12.983  0.2645 -0.2305 -0.1525
12743W        W29217  12.808  16.753  12.135 -0.0087 -0.2137 -0.0533
12744W        W29218  15.801   0.824  10.170  0.0746  0.0975 -0.2238
12745W        W29219   7.465   0.207   4.668  0.2089  0.0637 -0.0933
12746W        W29220  16.436   4.691   5.540  0.0749  0.0917 -0.0584
12747W        W29221   4.890  13.781  11.456  0.0335  0.0588  0.0191
12748W        W29222  18.388  14.954  10.663  0.4026  0.1358 -0.0851
12749W        W29223   4.361   1.830   1.958  0.1271  0.2026 -0.0799
12750W        W29224  15.745   2.154   4.599  0.2260  0.1910  0.2680
12751W        W29225   7.387   9.474   4.192 -0.1387  0.0030 -0.0270
12752W        W29226  10.189  14.872  12.560 -0.0553 -0.1342  0.0299
12753W        W29227  13.713   6.255   0.215 -0.1530  0.2795 -0.0760
12754W        W29228  17.415  18.750   1.393  0.1510 -0.5033  0.1908
12755W        W29229  13.080   3.174   4.075  0.0944  0.1073 -0.2268
12756W        W29230  18.038  10.517  11.017  0.2536  0.3338  0.0621
12757W        W29231   4.329  18.367   5.516  0.0398  0.0056  0.1954
12758W        W29232   8.160   9.352  13.476 -0.1051  0.2288  0.2643
12759W        W29233   4.929   9.358   0.958 -0.1576  0.1710  0.0692
12760W        W29234  11.397  14.160   5.072 -0.1578 -0.0960 -0.0708
12761W        W29235  16.540  11.551   1.478 -0.0067  0.2831 -0.0719
12762W        W29236  11.852   2.128   5.765 -0.0468 -0.2993 -0.0505
12763W        W29237   6.327   4.265  12.498  0.0204 -0.3969  0.1993
12764W        W29238   0.112   1.765  15.046  0.0687 -0.1648  0.3722
12765W        W29239   6.249  12.913   4.670  0.1832 -0.0823  0.1667
12766W        W29240  13.563   8.831   4.079 -0.1842 -0.2707 -0.0257
12767W        W29241  14.303   4.450   3.972  0.0931 -0.0374 -0.3886
12768W        W29242   1.937   6.299   2.634 -0.2460  0.0862  0.0267
12769W        W29243  14.761   1.632   1.543 -0.2740 -0.3366 -0.2653
12770W        W29244  11.621   6.229  14.035 -0.0790 -0.0314 -0.1237
12771W        W29245  10.944  12.581  11.553 -0.0116  0.0305  0.0943
12772W        W29246  14.330  18.143   5.228 -0.0915 -0.1118 -0.1591
12773W        W29247   7.848   4.521  13.024 -0.1420 -0.0841  0.1779
12774W        W29248   8.973   9.144   2.497 -0.1486 -0.0307  0.3214
12775W        W29249   4.537   8.206  10.120  0.0074  0.2271  0.0768
12776W        W29250  12.038  11.394   1.952 -0.3429  0.1030  0.0852
12777W        W29251   6.162  11.694  13.571  0.0023 -0.0553 -0.2541
12778W        W29252  17.412  11.181   0.512  0.4201  0.3497  0.1527
12779W        W29253  18.073   7.390   4.725  0.0449  0.0947  0.1162
12780W        W29254  15.029   5.510  10.789 -0.1674  0.2804  0.0156
12781W        W29255   8.656   4.149  12.295  0.1476  0.1490  0.2155
12782W        W29256   6.554   0.347   3.378 -0.1187 -0.0409 -0.0808
12783W        W29257   7.610  10.326   0.828  0.4194 -0.0368 -0.3389
12784W        W29258   8.475   4.620  11.694  0.1852 -0.1246 -0.0678
12785W        W29259  12.712  14.708   2.754  0.0757  0.1641 -0.0142
12786W        W29260  13.794   2.093   0.537  0.0031 -0.3226 -0.0127
12787W        W29261   8.276   9.532  12.452 -0.1183  0.0005  0.0346
12788W        W29262   6.461  14.226   0.655 -0.1050  0.0172 -0.2048
12789W        W29263  15.765  15.371   3.842  0.1397 -0.1334 -0.1475
12790W        W29264   8.891  16.595  10.978 -0.0797  0.0991  0.1666
12791W        W29265  14.099   4.265   3.495  0.0023 -0.1364  0.0967
12792W        W29266  15.462   0.625  14.686 -0.0424 -0.4957  0.0939
12793W        W29267  14.142   8.747   2.689  0.1080 -0.0735  0.0615
12794W        W29268  11.964  11.953   4.193 -0.2537 -0.1159  0.0218
12795W        W29269   4.838   1.266   0.804 -0.2771  0.2003 -0.1209
12796W        W29270  17.412  13.372   2.133  0.1452 -0.2201  0.0553
12797W        W29271  14.079  17.255   1.488  0.0349 -0.4441  0.1553
12798W        W29272   8.525  13.691   0.888  0.1318  0.2517 -0.1985
12799W        W29273   4.124   9.214   1.984  0.1372  0.2346  0.2579
12800W        W29274  10.419   7.130  13.272 -0.0501  0.0476 -0.2695
12801W        W29275  14.017   1.064   2.042  0.2582  0.2087  0.1789
12802W        W29276   0.378   2.169  12.556  0.1238 -0.4360  0.0457
12803W        W29277  18.299  14.292   5.981  0.3177 -0.3905  0.2544
12804W        W29278   9.320   8.971   5.029 -0.1185  0.1059 -0.1317
12805W        W29279   8.529   6.097   3.253  0.0997 -0.0598  0.0483
12806W        W29280  12.012   8.412  12.214  0.0170  0.1484 -0.1077
12807W        W29281   7.798  14.970   1.825  0.0327  0.0731  0.1125
12808W        W29282   2.103   5.534   3.028 -0.1437 -0.3879  0.2332
12809W        W29283   2.126  16.474   1.666  0.4280  0.1771  0.0771
12810W        W29284   3.026  14.590   3.275 -0.1777  0.3885  0.0558
12811W        W29285   1.409  18.132   1.415  0.0610  0.0875 -0.1428
12812W        W29286  15.418   2.956  15.184  0.1146  0.1312 -0.0452
12813W        W29287  14.222   1.292  13.865  0.0763 -0.0141 -0.0382
12814W        W29288   9.021   6.185   2.638 -0.0679 -0.0618  0.1920
12815W        W29289  12.427   8.471   5.750 -0.0469 -0.4794  0.1923
12816W        W29290  11.323  18.634   4.056  0.0013  0.1448  0.2629
12817W        W29291   6.583   4.257   0.024  0.1176 -0.0374 -0.1347
12818W        W29292   9.922  18.578  12.590 -0.2171  0.5174 -0.2919
12819W        W29293   1.598  10.577  13.721  0.0484  0.3073 -0.0449
12820W        W29294   3.245  14.216   1.960 -0.0390  0.2227 -0.0329
12821W        W29295  12.805   2.321   2.406 -0.3665  0.0280  0.1495
12822W        W29296  15.733   5.770   2.215 -0.2232 -0.0115  0.2113
12823W        W29297   7.809  11.122  13.927  0.0254  0.0981  0.0260
12824W        W29298  12.407  10.945  12.886 -0.2195  0.1666  0.1475
12825W        W29299   1.514   8.015  14.652 -0.0766 -0.2602  0.4000
12826W        W29300  18.047  10.978   1.766  0.1568 -0.0423 -0.1540
12827W        W29301   6.905  14.725  15.386  0.0178 -0.3230 -0.1885
12828W        W29302   1.973  15.944  12.608  0.1987 -0.1335  0.1372
12829W        W29303   6.073   1.781   1.042 -0.0283  0.2256 -0.3737
12830W        W29304  11.390   0.106   1.077 -0.0590  0.1788 -0.1860
12831W        W29305  16.466   1.730  12.732  0.0663 -0.0227 -0.0601
12832W        W29306   0.464   6.268   0.313 -0.0909 -0.1055  0.2256
12833W        W29307   1.114  17.083   3.381 -0.2088  0.0304  0.1623
12834W        W29308   6.919  13.236   3.205 -0.0281 -0.1845 -0.0789
12835W        W29309   9.764  12.332   1.026  0.0788  0.1982 -0.2619
12836W        W29310   7.996  11.608  11.265 -0.1029 -0.0753 -0.1070
12837W        W29311   1.252   9.723  14.023  0.0010 -0.1651 -0.2241
12838W        W29312   1.853   9.509   2.364  0.0724 -0.1719 -0.0491
12839W        W29313   5.541   7.422   3.310 -0.1499  0.1446 -0.5256
12840W        W29314   9.663  13.598   0.827 -0.1343  0.0359  0.0160
12841W        W29315   0.677  18.674  13.129 -0.0083 -0.0254 -0.3182
12842W        W29316  14.462  12.377  12.507 -0.1428  0.0185 -0.0756
12843W        W29317   3.835  18.290  12.299 -0.1799 -0.3046  0.0288
12844W        W29318   6.324   0.833   4.146 -0.1244  0.1840  0.0521
12845W        W29319  11.254  13.488  11.840  0.2686 -0.1182  0.0889
12846W        W29320  13.384   4.473  11.291  0.1996  0.2752 -0.3760
12847W        W29321  16.847  12.850   3.246  0.1808 -0.3132  0.0038
12848W        W29322  10.949   5.831   0.511  0.0753  0.0499  0.1144
12849W        W29323  17.889  14.773   1.033 -0.0469 -0.0363  0.3193
12850W        W29324  11.938   0.195   4.007  0.2481  0.0339 -0.2132
12851W        W29325  16.458   7.765   1.160  0.2101  0.0012 -0.0761
12852W        W29326  14.184   6.723  12.871 -0.1803  0.1832 -0.0828
12853W        W29327   3.798  11.384   1.452  0.1110 -0.1581 -0.3638
12854W        W29328  18.632   8.286   0.272  0.0142  0.0097 -0.0945
12855W        W29329  12.978   4.357   2.367  0.3097 -0.0177  0.0368
12856W        W29330   3.599   4.614  12.123  0.0021 -0.0084  0.0002
12857W        W29331   3.692  12.220  10.780 -0.0510  0.1488  0.1523
12858W        W29332   1.239   1.854  14.774  0.0500  0.0717  0.0558
12859W        W29333  12.997   6.812  14.177 -0.2055  0.3494 -0.1735
12860W        W29334   4.498   1.471   3.748 -0.1186 -0.4092 -0.1670
12861W        W29335  15.123   7.779   2.359  0.1719  0.0521 -0.0499
12862W        W29336   1.969  14.685   5.163 -0.3689  0.1135 -0.1782
12863W        W29337  12.172   3.055   4.258  0.2125 -0.1278  0.0266
12864W        W29338   4.312   1.030   3.579 -0.1356  0.0749  0.2634
12865W        W29339  11.032  11.724  13.322  0.4556  0.0548 -0.1946
12866W        W29340   0.645   7.439   0.474 -0.1730 -0.3790 -0.1012
12867W        W29341   0.581   3.829  13.316 -0.0025 -0.0310 -0.0691
12868W        W29342   2.290  13.507   4.502 -0.0639 -0.1276 -0.2953
12869W        W29343  15.133   1.514   2.359  0.1291  0.2150 -0.0585
12870W        W29344  12.247   3.824   0.800  0.1066 -0.2639  0.1331
12871W        W29345  12.379  11.112   4.157 -0.1649  0.5104 -0.0173
12872W        W29346  14.589  15.769  15.169  0.1174 -0.1816  0.2355
12873W        W29347   5.218  12.435   1.966 -0.0413 -0.0099  0.1622
12874W        W29348  17.616  15.994   1.596  0.0809 -0.2111 -0.2260
12875W        W29349   8.699  10.618   4.381 -0.4299 -0.3062 -0.1018
12876W        W29350  16.049   1.486  13.536 -0.1108  0.0124  0.1034
12877W        W29351  15.723   5.000   3.548 -0.0228 -0.2025  0.1197
12878W        W29352  16.675  17.891   4.700  0.1905  0.1267 -0.2719
12879W        W29353   4.537  17.965   5.136  0.0597 -0.1684  0.0754
12880W        W29354   3.938   1.842  10.271 -0.0888 -0.0400  0.0646
12881W        W29355  11.118  14.865  12.470 -0.1616 -0.1879  0.2824
12882W        W29356  17.572  11.069  15.211 -0.2016  0.1723  0.0719
12883W        W29357  14.871   4.086   0.644 -0.1827  0.3124  0.2041
12884W        W29358   4.979   3.233  13.337  0.2760 -0.5569 -0.0722
12885W        W29359   9.236  16.774  13.643 -0.0169  0.3711  0.1022
12886W        W29360   5.152  13.618   1.093 -0.2274  0.2224 -0.0968
12887W        W29361  13.106   7.162  11.564  0.1833  0.0444 -0.2595
12888W        W29362   8.504   3.394   0.317 -0.2818  0.0993  0.1801
12889W        W29363  18.360  17.729   3.365  0.1029  0.0146  0.1271
12890W        W29364   9.796  14.105   0.762 -0.1458 -0.0709 -0.0093
12891W        W29365   6.330   3.413   0.664  0.1637 -0.0656  0.2273
12892W        W29366  14.564  15.191  12.794 -0.2298  0.0950  0.3292
12893W        W29367  11.049   6.742  15.562 -0.0742 -0.2863 -0.1173
12894W        W29368   8.139   8.379  14.168  0.1953 -0.0174 -0.0495
12895W        W29369   2.195   2.552  11.336 -0.1355  0.1737  0.0253
12896W        W29370   9.281   7.929   1.581 -0.1089 -0.0243 -0.0746
12897W        W29371  11.048  13.086  11.577  0.0535 -0.2589 -0.0008
12898W        W29372  11.792  15.170  11.136 -0.0324 -0.0558 -0.3931
12899W        W29373   8.159   9.065   3.611  0.0654  0.2595 -0.2500
12900W        W29374   2.754   9.208   4.150  0.1672 -0.0662  0.1323
12901W        W29375   8.065   6.312  13.773  0.2410  0.3804 -0.0022
12902W        W29376  16.886  10.813  12.853 -0.0357  0.0551 -0.1700
12903W        W29377  15.237  16.395   2.643 -0.4057 -0.4031  0.0159
12904W        W29378   3.322  13.031  10.926 -0.1379 -0.1353  0.0158
12905W        W29379   8.882   3.172   4.983  0.1791  0.2317  0.0044
12906W        W29380  12.114   9.774  11.834  0.1459 -0.0132 -0.3824
12907W        W29381   5.588  15.848   4.644  0.2066 -0.1941  0.0630
12908W        W29382  11.113  16.155  11.881  0.1355  0.0160 -0.3035
12909W        W29383   8.233  13.662   3.836  0.1540  0.2958 -0.1281
12910W        W29384   4.679  14.870   4.866 -0.0652  0.1070  0.0687
12911W        W29385   9.784  12.069   1.850  0.0245 -0.2077  0.1346
12912W        W29386  13.427   8.909   3.540 -0.1132  0.0085 -0.0240
12913W        W29387  13.747  16.169  12.201 -0.1657  0.0472 -0.2719
12914W        W29388   1.490   4.860   2.006  0.0760  0.1654  0.2038
12915W        W29389  17.075   3.705   3.556  0.1035  0.2232 -0.0924
12916W        W29390   1.262   8.398   5.399 -0.0366 -0.0583  0.2548
12917W        W29391  14.618   5.970  12.343 -0.0102 -0.0490  0.0890
12918W        W29392   7.525   1.388   3.015  0.1464 -0.0389  0.2559
12919W        W29393   2.489  15.165  13.105  0.0891  0.0364  0.1382
12920W        W29394   1.663  16.741  15.024 -0.1626 -0.0417  0.2148
12921W        W29395   1.768  16.863  13.756 -0.2079  0.0184  0.0575
12922W        W29396   7.830   3.092   3.778 -0.3891  0.0416 -0.0669
12923W        W29397  12.514  18.548  11.487 -0.0562  0.0295 -0.0178
12924W        W29398  10.651   3.278   0.081  0.2603  0.0713  0.0998
12925W        W29399   0.662  18.210   1.681 -0.1449 -0.0210 -0.1249
12926W        W29400  14.639   4.174   3.686 -0.0048 -0.0809 -0.1273
12927W        W29401  16.761  18.084   4.136  0.2820 -0.1358  0.1446
12928W        W29402  16.116   7.809   3.055 -0.1138 -0.1568  0.0399
12929W        W29403   5.385  17.177   3.884  0.0234 -0.1571  0.0021
12930W        W29404  10.732   5.407   2.375  0.1879 -0.2206 -0.2345
12931W        W29405   7.090   0.685  11.240 -0.1158  0.2990 -0.0547
12932W        W29406  11.573  11.867  14.514 -0.1170 -0.2407  0.1804
12933W        W29407  10.226   9.259   3.182  0.3344  0.0184  0.4601
12934W        W29408  12.978  18.490  11.171  0.0055  0.1366  0.0822
12935W        W29409   4.707  18.689  11.427 -0.0099 -0.4462  0.1588
12936W        W29410   1.172   7.824   2.069  0.3028  0.1436  0.1672
12937W        W29411   0.756  18.711   0.294  0.3371 -0.1740 -0.1357
12938W        W29412   0.800   6.708  12.264 -0.3282  0.1150  0.2178
12939W        W29413   3.469  14.724  15.340  0.0890 -0.2311 -0.1091
12940W        W29414   3.028   5.693   3.864  0.0946 -0.0839 -0.2004
12941W        W29415  10.450   1.233   4.987  0.1134  0.1111 -0.0957
12942W        W29416   5.824  10.932  11.890 -0.1948 -0.0402 -0.0276
12943W        W29417  16.728  17.029   2.040  0.1760  0.1154  0.0291
12944W        W29418   0.483   8.905  12.503  0.1017  0.2819  0.1844
12945W        W29419   7.353   0.707  14.473  0.2316  0.0738 -0.2576
12946W        W29420  17.963   3.541  10.274  0.2344  0.0626 -0.0235
12947W        W29421  16.107   5.601  13.218  0.2282  0.0478  0.1078
12948W        W29422  18.172  13.440  11.560 -0.0287 -0.0408  0.2228
12949W        W29423  15.903  14.076   5.710  0.1458  0.2091 -0.2760
12950W        W29424  13.539   8.879  12.238 -0.0167 -0.1894  0.0664
12951W        W29425  18.733  12.670   2.274  0.0782 -0.0207  0.1606
12952W        W29426   4.552   5.580   1.390  0.0769  0.1544  0.2017
12953W        W29427  13.673   3.827  15.502  0.1008  0.0782 -0.1435
12954W        W29428  13.267  17.931   1.860  0.0414 -0.1045 -0.0979
12955W        W29429  12.374   0.994   2.146 -0.0088 -0.1849 -0.0160
12956W        W29430  11.691  12.913  15.280  0.1408 -0.1187 -0.2041
12957W        W29431   5.965   0.857   2.792  0.0448 -0.1669  0.1471
12958W        W29432   8.777   8.512   4.755  0.0401 -0.2351 -0.2636
12959W        W29433   5.499   7.479  15.146 -0.1843  0.2439 -0.0288
12960W        W29434   9.095   4.138   0.379  0.1136 -0.2382  0.2642
12961W        W29435   0.664   9.393  15.023 -0.2088  0.0318 -0.0563
12962W        W29436  11.987  18.126  12.743 -0.0744  0.0070  0.1096
12963W        W29437   5.142  13.788   2.545 -0.2452 -0.2456 -0.0725
12964W        W29438   7.284   6.146  14.597 -0.1283  0.2572 -0.2421
12965W        W29439   0.226   0.934  10.940  0.2685 -0.1338 -0.2540
12966W        W29440   5.931   5.603   3.011 -0.3385 -0.0230 -0.1051
12967W        W29441  12.137  17.515  14.675 -0.0955  0.1987 -0.2658
12968W        W29442  14.352   6.270  12.634  0.1437  0.0901  0.2751
12969W        W29443  14.637  11.660  15.121 -0.0911 -0.0659 -0.2050
12970W        W29444  18.045  11.989  14.553 -0.0683  0.2023 -0.2621
12971W        W29445   9.240   4.250   1.266  0.1467 -0.3339  0.0879
12972W        W29446  13.289  18.160   4.248 -0.0017  0.0430 -0.1662
12973W        W29447   8.909  14.159  11.267 -0.0124  0.2689 -0.0012
12974W        W29448   9.490   3.449   0.153  0.0085  0.1845 -0.0295
12975W        W29449   1.947  10.994   4.293  0.0829 -0.0732  0.0004
12976W        W29450  15.594  17.992  15.089  0.1037  0.0448  0.0061
12977W        W29451  11.766  17.659  15.537 -0.0323  0.1599  0.4060
12978W        W29452   2.773   5.440   2.173  0.2309 -0.0429 -0.1576
12979W        W29453  13.083  17.427   1.036 -0.0796 -0.0339 -0.1952
12980W        W29454  13.686   2.974   0.691 -0.0993  0.1942  0.1100
12981W        W29455   2.544  11.175   2.316  0.0065  0.2447 -0.0710
12982W        W29456   5.890  17.332   3.256 -0.0536 -0.2093 -0.2070
12983W        W29457   6.161  14.081  11.931  0.1272 -0.4737  0.1223
12984W        W29458   2.433  10.264   2.661 -0.3179  0.3839 -0.0377
12985W        W29459   5.419   6.420  13.879  0.1012 -0.0483 -0.0926
12986W        W29460   2.684  13.927  11.585 -0.0757 -0.2150  0.1331
12987W        W29461  18.582  14.523  12.689 -0.0357 -0.0005  0.0795
12988W        W29462  13.609  10.839  11.754  0.0703 -0.1963 -0.0895
12989W        W29463   3.574  15.735   1.798 -0.1023 -0.3166 -0.3422
12990W        W29464  15.031  18.473   4.483 -0.0227 -0.2885 -0.2237
12991W        W29465   5.695  17.705  12.770  0.0589  0.2743 -0.1208
12992W        W29466   3.067  12.887  14.644  0.0671  0.1923 -0.4210
12993W        W29467   5.283  18.268   1.755  0.1855  0.0284  0.0260
12994W        W29468   8.225  17.678   1.773  0.2150 -0.2788  0.1614
12995W        W29469  18.661  10.778  12.212  0.0157  0.2569  0.2246
12996W        W29470  16.321   9.378   6.277 -0.1054 -0.0355  0.0987
12997W        W29471   7.860   1.865  12.311 -0.2197 -0.2542 -0.3016
12998W        W29472  13.045   6.313   4.685 -0.0763 -0.1155  0.2841
12999W        W29473   4.721   1.395   2.797 -0.0543 -0.1076 -0.0329
13000W        W29474   7.954   1.020  11.396  0.0757  0.0473 -0.0404
13001W        W29475  18.113   3.152  10.599  0.2131 -0.0730  0.3111
13002W        W29476   6.589  12.748   1.483 -0.0597  0.0459 -0.0023
13003W        W29477   6.850   3.238   0.352  0.0391 -0.1174 -0.1409
13004W        W29478  11.966   2.875  14.020  0.0191  0.1047  0.0712
13005W        W29479  11.306   1.548   0.246 -0.1122 -0.1063 -0.0297
13006W        W29480  13.777   1.952  11.178  0.2993 -0.3550  0.0317
13007W        W29481  12.779   0.777  15.281 -0.2100  0.0036 -0.2041
13008W        W29482  16.686   2.584   2.956  0.4623  0.1088 -0.0398
13009W        W29483  13.552  12.504  12.485  0.2515  0.0021  0.2831
13010W        W29484   6.400  15.312  13.023  0.0016  0.0937 -0.0618
13011W        W29485   5.641   2.648  12.819 -0.2125  0.0337  0.2863
13012W        W29486  14.895   8.515  11.006  0.1868 -0.0142 -0.0053
13013W        W29487   3.805  16.342  13.793 -0.0544  0.0867 -0.1034
13014W        W29488   4.099  15.841  12.685  0.0358 -0.2537  0.2409
13015W        W29489   9.506   0.195   4.844  0.0302 -0.0016  0.0019
13016W        W29490   2.674  12.114   4.877 -0.1573  0.1601 -0.1372
13017W        W29491   7.568   8.831   1.826  0.0804  0.3053 -0.0097
13018W        W29492  10.390  18.018  10.302 -0.1620 -0.0364  0.2913
13019W        W29493  11.280   7.795   1.240 -0.0237  0.0713 -0.0309
13020W        W29494  14.238  11.729   3.938 -0.1276  0.1445 -0.1188
13021W        W29495   7.097   8.842  15.430 -0.1319 -0.1733 -0.2472
13022W        W29496  12.276  11.853   4.624  0.1518  0.0995 -0.1985
13023W        W29497  17.745  10.176   2.403 -0.0385  0.2800 -0.0348
13024W        W29498   9.455  10.243  15.248  0.2017 -0.0062 -0.0183
13025W        W29499   0.260   7.608   2.196  0.1274 -0.0668  0.1301
13026W        W29500   6.174  15.822  13.137 -0.0551 -0.1381 -0.1831
13027W        W29501   5.396   8.737  14.750 -0.0415 -0.0383  0.1621
13028W        W29502   7.746   3.013   3.255  0.0673 -0.3698  0.0364
13029W        W29503   0.703   8.487  12.492 -0.1616 -0.3161 -0.1235
13030W        W29504  17.885   4.015  12.650 -0.2073  0.1927  0.3738
13031W        W29505   7.264  17.980  10.257 -0.3458  0.2849  0.0369
13032W        W29506  12.857  11.874   3.618  0.1073 -0.2032 -0.0539
13033W        W29507   8.968  17.037   5.851 -0.0728 -0.0834 -0.1481
13034W        W29508  11.855  11.080   4.180  0.0931  0.0029 -0.3353
13035W        W29509   3.955  14.020   4.064  0.0283  0.0247  0.0581
13036W        W29510   6.548  10.132  12.004 -0.1835  0.0834 -0.2105
13037W        W29511   0.355  13.130   0.600 -0.0004 -0.0242 -0.0669
13038W        W29512   2.811   6.432   3.723 -0.2102 -0.2503  0.1997
13039W        W29513   2.574  15.393   1.087  0.1628 -0.1257 -0.0506
13040W        W29514   6.893  16.425  13.709  0.4350  0.0032 -0.0934
13041W        W29515   6.249   0.654  15.570 -0.0191  0.0482 -0.0288
13042W        W29516   8.014  14.130   3.413 -0.1376 -0.4914  0.3209
13043W        W29517  14.542   5.236  14.035 -0.1992 -0.3705  0.3803
13044W        W29518   2.008   4.443  10.543 -0.2583  0.1474 -0.4859
13045W        W29519   5.100   7.908  14.175  0.0570 -0.0585  0.0312
13046W        W29520  11.769   5.114  15.457 -0.1062  0.0233 -0.0405
13047W        W29521   2.608   4.786  11.771 -0.0303  0.1021 -0.0766
13048W        W29522   5.620   3.313   3.552  0.1693  0.0648 -0.1350
13049W        W29523   7.886  16.278  10.984 -0.1330  0.2070 -0.1904
13050W        W29524   9.627  13.438  12.969  0.3041  0.0299  0.0530
13051W        W29525   5.007   3.590   1.869  0.2827 -0.2604 -0.1004
13052W        W29526  11.075   9.164   4.971 -0.0931  0.2090 -0.0626
13053W        W29527  13.637   3.266   1.602  0.0659  0.0141  0.0706
13054W        W29528  10.799   0.870  11.234 -0.0293  0.3823  0.1625
13055W        W29529   4.724   0.373   0.376 -0.2950 -0.0426 -0.1101
13056W        W29530  18.419  10.915   2.831 -0.2882 -0.1606 -0.3200
13057W        W29531   4.611   4.306  10.333 -0.2824  0.1767 -0.1637
13058W        W29532  14.213   9.609   2.096  0.2886  0.0453  0.0403
13059W        W29533  17.571   1.609  13.261  0.1759  0.0646 -0.3240
13060W        W29534   0.975  15.110   0.220 -0.1169  0.0627 -0.1674
13061W        W29535   2.885  15.445   1.566  0.0205 -0.1897 -0.0610
13062W        W29536   3.977  17.636  11.120 -0.0564 -0.2682 -0.0028
13063W        W29537  18.100  13.043  15.375  0.0948  0.0607  0.0873
13064W        W29538   5.225   6.799   5.698  0.2195  0.0914  0.1374
13065W        W29539   1.824   7.245  10.878 -0.2006 -0.1565 -0.3895
13066W        W29540  11.120  15.132  11.658 -0.0453  0.1894 -0.0606
13067W        W29541   8.114  13.231   6.045  0.2638  0.0922  0.2402
13068W        W29542   8.691   7.024  10.717 -0.0452  0.1501 -0.1306
13069W        W29543   7.772   9.256   3.898 -0.1242  0.0763 -0.3357
13070W        W29544  15.843   7.007   1.858 -0.0367 -0.5293 -0.2465
13071W        W29545   9.099  16.158   5.832  0.0846  0.1139  0.1348
13072W        W29546  14.021   5.011   4.164  0.0637  0.1970  0.1586
13073W        W29547   0.401   1.833  14.175 -0.1574 -0.0440  0.0413
13074W        W29548   5.034   7.840   3.922  0.2869 -0.1941 -0.0675
13075W        W29549   9.890   5.607  11.012  0.4440  0.2670  0.1997
13076W        W29550  18.045   4.892   2.676 -0.1309 -0.0692 -0.0864
13077W        W29551   4.650  13.265  13.229 -0.0490  0.1338  0.3754
13078W        W29552  12.056  14.307   0.617 -0.2039 -0.2802  0.0142
13079W        W29553   9.837  12.935  14.786 -0.0612  0.0574  0.0011
13080W        W29554   1.828  10.687   3.784  0.1432  0.1972  0.0498
13081W        W29555   7.488   6.636  11.713  0.0832 -0.3973 -0.0377
13082W        W29556  12.455  18.182  14.202  0.0482 -0.0924  0.3474
13083W        W29557  10.044  16.148  14.783 -0.0828  0.3454 -0.0760
13084W        W29558   6.006   3.193  10.398 -0.0357  0.0829 -0.1144
13085W        W29559   4.949   1.855  11.148  0.0871  0.1423  0.2806
13086W        W29560  16.427   0.875   5.195  0.1264  0.0441 -0.0201
13087W        W29561  12.048   6.848   0.115 -0.3587 -0.2730 -0.0719
13088W        W29562  17.439   6.749   0.615  0.1360 -0.1842  0.1822
13089W        W29563   6.067  14.772  12.183  0.2269 -0.0323 -0.2610
13090W        W29564  14.227  16.302   5.116  0.2161 -0.0354 -0.0160
13091W        W29565   7.323  14.274  11.307  0.1667 -0.6140 -0.0437
13092W        W29566   3.460  16.564  12.824  0.2237  0.5080 -0.2031
13093W        W29567  14.591  17.691  14.968  0.1839 -0.0317 -0.2885
13094W        W29568   7.961   3.369   0.333  0.1344  0.0030  0.1999
13095W        W29569   5.481   4.365  10.975 -0.4061 -0.2976 -0.3042
13096W        W29570   2.657   8.792   4.502 -0.1139 -0.0625 -0.3737
13097W        W29571  18.765   2.010  13.876  0.0298  0.1074  0.0957
13098W        W29572   1.525  12.514  14.915  0.1847  0.2750 -0.0260
13099W        W29573  10.064  16.290   4.353 -0.0326  0.0378 -0.1957
13100W        W29574  12.039  12.414   3.990  0.1172  0.6079 -0.0300
13101W        W29575   7.910   4.593   2.872  0.0318  0.0539  0.0255
13102W        W29576   7.675  17.758   2.009  0.0412 -0.2173 -0.3100
13103W        W29577   9.268   3.298  15.210  0.1910  0.2479  0.1390
13104W        W29578  11.427  11.792   2.762  0.1436  0.3272  0.3348
13105W        W29579  15.082   4.084   3.301 -0.3689  0.1576  0.2208
13106W        W29580   0.904   8.505  13.803 -0.2288 -0.0641  0.1828
13107W        W29581   1.137  17.481  14.114  0.0782  0.1446  0.0403
13108W        W29582   8.909  14.660  15.079  0.1125  0.1028 -0.1286
13109W        W29583  16.584   5.910  14.954 -0.0230  0.3216  0.0906
13110W        W29584  10.334   9.743  15.064 -0.4108  0.0736  0.1739
13111W        W29585   5.137  11.597   5.699  0.0249 -0.2379 -0.0659
13112W        W29586  10.214   3.324   4.615  0.1542  0.0962  0.0503
13113W        W29587  13.042   1.830  14.273  0.0978  0.0003 -0.0034
13114W        W29588  16.884   2.382  13.235 -0.2111  0.0134 -0.2208
13115W        W29589   5.772   2.505  11.024 -0.1066 -0.1097 -0.1988
13116W        W29590   5.324  10.424  15.310  0.0971  0.0800  0.1405
13117W        W29591  16.847   5.842  11.436 -0.1719  0.1357 -0.0161
13118W        W29592  10.059   3.397   0.728  0.2039 -0.0012  0.1217
13119W        W29593   8.746   8.692   3.811  0.3247 -0.1506 -0.1125
13120W        W29594  17.629   8.124   2.494  0.2799  0.0372  0.1497
13121W        W29595   7.271  11.620   0.320  0.2593  0.1332 -0.1045
13122W        W29596  15.513   2.739  11.024  0.1224 -0.1559  0.1510
13123W        W29597  15.068  16.459   5.415 -0.1347 -0.1578 -0.0661
13124W        W29598  14.824   4.783  11.364  0.1199 -0.0046 -0.1382
13125W        W29599  13.268  11.735  12.240  0.1542  0.1314  0.3969
13126W        W29600  15.110   0.247   1.490 -0.3126 -0.0546  0.2561
13127W        W29601   6.823   7.363  14.820  0.0542  0.0561 -0.2220
13128W        W29602  17.879   3.383  10.966 -0.0198  0.4281 -0.2580
13129W        W29603  15.302  11.882  12.194 -0.0768 -0.2431 -0.0068
13130W        W29604   6.049   7.730  12.826 -0.1158 -0.0747 -0.3721
13131W        W29605  14.600   8.182  14.634  0.1895  0.0666 -0.1009
13132W        W29606   2.090   7.027  15.434 -0.1098 -0.3523 -0.0842
13133W        W29607   1.519  11.602   0.417  0.1215  0.0670  0.0048
13134W        W29608  17.114   1.069  13.154  0.1965  0.0419  0.0191
13135W        W29609   8.165   4.246  15.339  0.2844 -0.2536 -0.3210
13136W        W29610  17.305  12.544  15.036  0.0984  0.1748  0.0958
13137W        W29611  17.140  11.584  14.665  0.0229 -0.1585  0.1465
13138W        W29612  18.035   6.175  14.989 -0.2588  0.1465  0.3840
13139W        W29613  18.015   4.294   2.830  0.0210 -0.0087 -0.0965
13140W        W29614   6.080  13.462  11.232 -0.1615 -0.0129 -0.0346
13141W        W29615   2.990  13.055  14.161  0.0798  0.5054  0.1431
13142W        W29616  13.953   7.279  11.074 -0.1085  0.1967  0.2886
13143W        W29617   1.593  15.482  12.834  0.2021 -0.2012  0.0575
13144W        W29618  14.342   7.694  11.195 -0.0484  0.1896  0.0273
13145W        W29619   2.278  12.731  15.572  0.3401 -0.0052 -0.0912
13146W        W29620   4.792   9.228   3.331 -0.0992 -0.3048 -0.4350
13147W        W29621   4.241  17.119   0.146 -0.0863  0.0211  0.0359
13148W        W29622   5.229  12.086  13.271 -0.1774 -0.0529  0.0893
13149W        W29623   1.129   7.302  15.181  0.0522 -0.1144  0.0198
13150W        W29624   2.318   4.117   1.118 -0.2664 -0.2857 -0.1600
13151W        W29625  11.444   8.179  13.924  0.1155  0.0295  0.4233
13152W        W29626  18.726  17.442  14.754  0.0847  0.1548 -0.1293
13153W        W29627   2.945   7.838   3.380  0.0715  0.0421  0.2611
13154W        W29628  14.544   0.447   1.717  0.1800  0.0748 -0.0076
13155W        W29629  17.323   2.736   0.900  0.2868 -0.2277 -0.1316
13156W        W29630  17.212  12.730   3.721  0.2243  0.3503 -0.2447
13157W        W29631  12.609   9.709   0.557  0.0886 -0.0134 -0.1000
13158W        W29632  12.579   4.091   0.563 -0.1649  0.0265 -0.0777
13159W        W29633   7.643  13.484  14.745  0.0687 -0.1920  0.0851
13160W        W29634  10.951  16.364   4.783  0.3776  0.1134 -0.0471
13161W        W29635  16.305  11.749   5.361  0.1323 -0.0382  0.1531
13162W        W29636   4.463   3.285   5.269  0.3192 -0.2773  0.0552
13163W        W29637  15.566  18.476  14.588 -0.0700  0.2336  0.4500
13164W        W29638   1.390   5.464  14.053  0.0804  0.1513  0.1849
13165W        W29639   6.785   1.549  13.682 -0.0794 -0.1836  0.2623
13166W        W29640   6.705   9.095   2.566 -0.0410  0.1441 -0.1129
13167W        W29641   1.075   5.401  11.586  0.2341 -0.0344 -0.1382
13168W        W29642  11.403   3.093   4.824 -0.3623 -0.0682  0.1742
13169W        W29643   8.858   8.091   4.429  0.3199 -0.0291 -0.2258
13170W        W29644  12.412  14.845  13.287 -0.1656  0.1117 -0.1589
13171W        W29645   7.497  18.592  14.018  0.0326  0.0389 -0.2166
13172W        W29646   0.008  14.550  13.667  0.0647  0.3237 -0.0790
13173W        W29647  10.910  16.171  14.344  0.2845  0.1836  0.3284
13174W        W29648  10.210  10.278   3.153 -0.2230  0.3770 -0.1657
13175W        W29649  13.723  10.672   1.505 -0.1407  0.0659  0.1557
13176W        W29650   5.917   5.233   2.629  0.2173  0.1268  0.2777
13177W        W29651   9.394   6.528  12.392 -0.0680 -0.1432  0.2419
13178W        W29652   4.660   3.319   1.022  0.2285  0.2242 -0.0163
13179W        W29653  16.000   8.620   1.498  0.2418  0.0257  0.1726
13180W        W29654   2.718  18.166  14.808 -0.3582 -0.0073 -0.1597
13181W        W29655   2.271   2.038   2.175 -0.1829  0.2434  0.1492
13182W        W29656   7.990  16.637   3.115  0.0853  0.1299 -0.0005
13183W        W29657  16.088  10.305   4.974  0.1227  0.0533  0.0228
13184W        W29658  13.044   8.029   2.613  0.4773 -0.2748 -0.0866
13185W        W29659  11.901   4.376  11.582 -0.2775  0.2851  0.0577
13186W        W29660  13.653   8.319  12.285 -0.0700 -0.3125  0.1622
13187W        W29661   9.224   2.491   3.322  0.0235  0.0079  0.0927
13188W        W29662   0.982  16.233   3.738  0.0976 -0.0245 -0.0661
13189W        W29663  11.432  13.940  12.055  0.0818 -0.4099 -0.1782
13190W        W29664  14.915  17.827  11.635  0.1869 -0.2866  0.0132
13191W        W29665  11.216  11.997   4.576  0.1261 -0.1911  0.1410
13192W        W29666   0.871  16.763  10.815 -0.0926  0.2935  0.2507
13193W        W29667  10.500   0.819  10.732 -0.1316 -0.0252 -0.1843
13194W        W29668   9.501   3.148   3.374  0.0611  0.1914  0.1160
13195W        W29669   5.967  11.507   0.380  0.0179  0.2784  0.1719
13196W        W29670   2.945  17.320  12.844  0.0477  0.2415  0.2126
13197W        W29671   7.252  10.936   1.823 -0.1465  0.0839 -0.0229
13198W        W29672  14.914  15.283  14.040  0.1417  0.0557 -0.1199
13199W        W29673  14.642   1.853  11.883 -0.3230  0.2469 -0.1868
13200W        W29674  17.425  17.045  12.272  0.0403 -0.3108  0.2106
13201W        W29675   9.835   4.293   0.597  0.0426  0.3852  0.0618
13202W        W29676   2.902  13.927  13.741 -0.1337  0.2335  0.0337
13203W        W29677   1.387  11.692   3.300 -0.4281 -0.1769 -0.0146
13204W        W29678  11.494  14.859   2.150 -0.1348  0.1340 -0.0451
13205W        W29679  16.790  13.172   0.142 -0.1332  0.0925  0.1721
13206W        W29680   2.016   0.631   9.582 -0.0113  0.4585  0.0403
13207W        W29681  14.190   8.380  12.428  0.0718 -0.5009  0.1715
13208W        W29682   9.287  14.738  11.843  0.0832 -0.0333 -0.0816
13209W        W29683  11.411   0.932   5.391  0.2775  0.0702  0.1166
13210W        W29684  11.485  15.341  12.564 -0.1079  0.0797  0.0844
13211W        W29685   9.274   1.882   2.648 -0.3183 -0.0345  0.0688
13212W        W29686   9.720   5.075   2.802 -0.0428  0.1020 -0.0669
13213W        W29687  11.310   2.964  11.427 -0.1851  0.0403  0.0751
13214W        W29688  18.307  15.011   3.006 -0.1028 -0.0211 -0.0814
13215W        W29689  13.449   2.707   1.625 -0.2300 -0.0906  0.0831
13216W        W29690  14.973   2.334   3.160 -0.2294  0.0146 -0.0721
13217W        W29691  11.318  12.463  11.869  0.0860 -0.2984  0.0656
13218W        W29692   0.103  12.199   0.942  0.1216  0.2770  0.0732
13219W        W29693   6.804   7.450   0.036  0.0944 -0.0099  0.0654
13220W        W29694   0.902  12.444  11.496  0.1377  0.1463 -0.2781
13221W        W29695   2.146   6.497  12.054 -0.0459 -0.1859 -0.0740
13222W        W29696   3.156   3.888   0.149 -0.3745 -0.1883  0.1701
13223W        W29697   0.207  14.125  12.565 -0.0457  0.2395  0.0369
13224W        W29698  10.471   9.975  14.465  0.1434 -0.0941 -0.3272
13225W        W29699  12.223  16.506   1.512  0.0242  0.1189  0.0855
13226W        W29700   9.895   7.652  11.684 -0.1318  0.3699  0.2662
13227W        W29701  16.201  14.829   5.162  0.0213  0.0703  0.0009
13228W        W29702  17.203   7.065  13.639  0.2125  0.1949  0.0954
13229W        W29703   5.569   1.903   0.997  0.0286  0.0733  0.0016
13230W        W29704   9.122  12.694   1.409  0.0101 -0.0639  0.0120
13231W        W29705   3.091   7.234   1.011  0.0986 -0.2375  0.0532
13232W        W29706  10.069  11.168   3.370  0.0022  0.0551  0.1383
13233W        W29707  11.922   5.416  14.709  0.0734  0.1715 -0.0299
13234W        W29708  16.179   9.179  11.948 -0.1529 -0.0765  0.0321
13235W        W29709   0.401   3.911   3.231  0.1927  0.0727  0.1518
13236W        W29710  11.096   9.749   2.561 -0.0581 -0.0048  0.1554
13237W        W29711   2.184  18.657   5.384 -0.0511  0.4051  0.2169
13238W        W29712  13.277   1.609   2.376  0.0769  0.1952  0.1062
13239W        W29713   4.300  12.312   0.971  0.0228  0.2957  0.0410
13240W        W29714  12.438   1.120   0.334  0.0317 -0.0141  0.4111
13241W        W29715  16.878   2.138  11.488 -0.1482  0.1328 -0.2292
13242W        W29716   0.350  11.499  12.949 -0.1823 -0.4543 -0.1050
13243W        W29717   3.392   6.572   5.590 -0.2702  0.1349 -0.0153
13244W        W29718  11.764   8.632  13.510 -0.0940  0.0809 -0.1821
13245W        W29719  14.243  16.054  12.296  0.4106 -0.0464 -0.0570
13246W        W29720  13.536   3.061  13.143  0.1195  0.1130 -0.1626
13247W        W29721  10.421  17.790   4.575  0.0461 -0.1202  0.0786
13248W        W29722   5.851   8.557  14.500  0.1773 -0.0541  0.0703
13249W        W29723  15.966   9.498   1.931  0.0050 -0.1882 -0.2254
13250W        W29724   9.268   2.675   4.100  0.0570  0.2514 -0.1328
13251W        W29725   5.833   0.679  11.236 -0.2115 -0.3452 -0.2733
13252W        W29726   1.196   0.188   0.228  0.2547 -0.0367 -0.0795
13253W        W29727  12.244   2.478   0.956  0.3544 -0.1603  0.2424
13254W        W29728  10.811  16.288   3.892 -0.2598  0.1191 -0.2124
13255W        W29729  18.080  15.190   0.852 -0.0181  0.1453  0.3410
13256W        W29730  18.627   4.602  14.565 -0.0530  0.0817  0.2219
13257W        W29731   8.976   7.559  15.302  0.2552  0.0989  0.2948
13258W        W29732  17.597   2.225   4.062  0.0184 -0.2453  0.1797
13259W        W29733  17.742  15.070  15.163  0.1006  0.0609  0.1749
13260W        W29734   7.562   2.462   0.258 -0.4104 -0.2776  0.2793
13261W        W29735  15.573   1.789   2.072  0.0903  0.0388  0.2297
13262W        W29736  18.643   7.345   2.200 -0.0244  0.1639 -0.1869
13263W        W29737   7.560   4.956  14.224  0.0947 -0.1647  0.0343
13264W        W29738   5.489  17.537  15.442  0.0202 -0.0862 -0.2471
13265W        W29739  14.388   4.234  14.528 -0.0937  0.1115 -0.1965
13266W        W29740  12.107  17.134   2.069 -0.2807 -0.0447 -0.2086
13267W        W29741   3.866  17.348   5.214  0.1562  0.0788  0.0195
13268W        W29742  18.609  17.404   5.211 -0.2584 -0.0605 -0.0695
13269W        W29743   9.481  14.296  11.893  0.0908  0.0007  0.2728
13270W        W29744  11.459  16.320   4.960  0.0422 -0.0785  0.1590
13271W        W29745  18.066  16.793   1.535 -0.3495 -0.0140 -0.1961
13272W        W29746  10.476  15.250   5.342 -0.1371 -0.0726 -0.0782
13273W        W29747   3.376  13.940  10.683 -0.2949  0.0221  0.1185
13274W        W29748   4.283   3.870  14.864 -0.1569  0.2551  0.0541
13275W        W29749   5.406   6.354  12.731 -0.0885  0.0781 -0.0819
13276W        W29750   4.137   6.237  14.686 -0.3588  0.0448  0.2523
13277W        W29751  13.922  18.213  12.844 -0.1445  0.0848 -0.1929
13278W        W29752  12.878   7.448   0.894  0.1619 -0.0149  0.1321
13279W        W29753   0.054  14.155  11.107 -0.0785  0.1728  0.0788
13280W        W29754   9.136   5.191   2.516  0.4340  0.0071  0.2504
13281W        W29755   3.277   0.239   3.285  0.2360  0.0612 -0.1204
13282W        W29756   8.242  15.981   4.468 -0.1003  0.1371  0.0516
13283W        W29757  17.214   8.364   2.751 -0.1878 -0.0837  0.1649
13284W        W29758  14.876  18.015   5.192 -0.0817  0.1440 -0.0727
13285W        W29759   9.593  12.067  12.079  0.1149 -0.3723 -0.1393
13286W        W29760  16.607   7.852   1.667  0.0639  0.0963 -0.0830
13287W        W29761  12.770   9.064   1.069 -0.1428  0.1104 -0.1284
13288W        W29762  15.354   4.808   5.549 -0.0198 -0.2228 -0.0181
13289W        W29763  12.782   4.582   1.588  0.1708 -0.0462 -0.0925
13290W        W29764   5.094   6.962  14.012  0.1851 -0.1097  0.0540
13291W        W29765  12.367   9.430   0.116 -0.3095 -0.2619 -0.3683
13292W        W29766  17.659   8.793   1.689  0.0184 -0.1644 -0.0572
13293W        W29767  13.368   7.179   2.607 -0.1941 -0.0782  0.0925
13294W        W29768  11.844   5.350   3.812  0.0157 -0.0522 -0.0257
13295W        W29769   2.280   3.924  11.355 -0.1929  0.0395  0.2444
13296W        W29770  16.625   6.714   5.372 -0.2700 -0.0188 -0.2266
13297W        W29771   9.364   4.077  14.559 -0.1402  0.1886  0.2293
13298W        W29772  18.230   5.763   9.524 -0.0668 -0.0226 -0.0597
13299W        W29773   9.868   9.993   1.140  0.0350  0.5867  0.2337
13300W        W29774   7.759   4.050   5.335  0.1035 -0.1913  0.4772
13301W        W29775   6.507   4.931   9.888 -0.2349 -0.0228 -0.2485
13302W        W29776   6.072  13.610  12.781 -0.0904  0.0209 -0.1045
13303W        W29777   4.200   3.792  15.349 -0.0884  0.2747  0.0058
13304W        W29778   6.471  10.197   2.051  0.0002  0.0806  0.0774
13305W        W29779   5.865   7.566   1.886  0.0244 -0.0539 -0.0918
13306W        W29780  15.819   0.482  13.264 -0.4252  0.0079 -0.2705
13307W        W29781  10.811   1.061  13.617 -0.0268  0.1671 -0.0508
13308W        W29782  16.775   3.926   1.010  0.1662 -0.2815 -0.1069
13309W        W29783  16.424  11.131  12.885  0.0534  0.1170  0.0292
13310W        W29784  11.557   4.178  13.868 -0.0856 -0.1359 -0.1085
13311W        W29785   4.209  12.464   5.166 -0.0653  0.2578 -0.1214
13312W        W29786  10.626  17.416  15.170  0.1594  0.0392 -0.0633
13313W        W29787   1.535   1.422  14.921  0.0694  0.2478  0.1158
13314W        W29788  12.684  10.730   4.287 -0.1062  0.0105 -0.1632
13315W        W29789   1.050   4.861  11.783  0.0301 -0.0007 -0.2404
13316W        W29790   2.555   4.276  11.848  0.1659  0.1769  0.0347
13317W        W29791  17.702   0.271  13.277 -0.0094 -0.1235 -0.2704
13318W        W29792   1.508   8.042  13.020  0.0013 -0.2815  0.1045
13319W        W29793   6.794   0.093   9.652 -0.0739  0.4363 -0.0540
13320W        W29794   6.253  11.012   2.747  0.1729 -0.0745 -0.2257
13321W        W29795   5.867  17.573   4.653  0.0392 -0.0763  0.2805
13322W        W29796   0.647   1.261  15.183 -0.0167 -0.0137  0.0457
13323W        W29797   6.348   2.500   0.664  0.4900  0.2562 -0.0926
13324W        W29798   4.033   7.400  14.998  0.4570  0.0092  0.0264
13325W        W29799   2.995   6.323  11.270  0.2560 -0.1154 -0.1025
13326W        W29800  12.913   1.927   2.687 -0.0226  0.1853 -0.1316
13327W        W29801  17.564  12.341   0.959 -0.0153  0.1575 -0.1421
13328W        W29802  13.542  17.350   1.240  0.0237  0.7659 -0.0367
13329W        W29803  17.367  13.953   2.893  0.0818  0.0944 -0.1167
13330W        W29804   0.004  10.606   2.724 -0.1120  0.3451 -0.1409
13331W        W29805   0.602  13.344  10.879  0.6493 -0.0783 -0.2197
13332W        W29806   9.287   1.939  14.997  0.2683  0.3579  0.1387
13333W        W29807  10.177  11.911  13.660  0.1735 -0.0854  0.0417
13334W        W29808   7.914  15.688   1.094  0.1366 -0.3515  0.1753
13335W        W29809  13.751   3.344   4.352  0.0201  0.2820 -0.0530
13336W        W29810   9.115  16.794  14.127 -0.2403  0.1808 -0.0269
13337W        W29811   4.518  14.425   5.133  0.1754 -0.2405  0.4444
13338W        W29812  11.672   4.514  14.328 -0.1039  0.2447 -0.0994
13339W        W29813   3.458  12.796  14.310 -0.7714  0.2788 -0.1306
13340W        W29814   3.110  11.898   1.234 -0.0971 -0.1985 -0.0954
13341W        W29815  10.805  11.044  14.555  0.0330  0.1489  0.1270
13342W        W29816  17.474   0.030   4.559  0.0602  0.0346 -0.2609
13343W        W29817  12.980  16.868   4.658  0.0622  0.1407 -0.0047
13344W        W29818  10.869   1.107   4.199 -0.1048 -0.2105 -0.1454
13345W        W29819  12.591  11.669  11.541  0.3365 -0.1386  0.0107
13346W        W29820   5.802  18.724  11.804  0.0834  0.0612 -0.1859
13347W        W29821  18.533   1.681   5.372 -0.2063  0.2273 -0.1830
13348W        W29822  16.375   4.456   1.622 -0.0291 -0.0761 -0.1671
13349W        W29823   8.637  15.021  11.567  0.2317  0.0801 -0.0001
13350W        W29824  12.652   3.509   4.920  0.0168 -0.1007 -0.2043
13351W        W29825   3.773   0.277  13.274 -0.3723 -0.1228 -0.0208
13352W        W29826   9.006   8.682  14.543 -0.1312 -0.0059  0.0690
13353W        W29827   1.317   4.939   2.997  0.0308  0.3468  0.0560
13354W        W29828  17.240  10.071  14.587  0.0336  0.0585 -0.2271
13355W        W29829  18.071   7.871   4.248 -0.3688 -0.2376 -0.2889
13356W        W29830   2.690   4.453   1.414 -0.2162 -0.0967 -0.2135
13357W        W29831   4.548   7.297   0.868 -0.0226  0.1004  0.2262
13358W        W29832  14.521   4.418  13.553 -0.2966  0.1121 -0.2189
13359W        W29833  10.099  13.742   3.598  0.0939 -0.2056  0.1334
13360W        W29834   7.739   3.025   9.639 -0.0414  0.1006  0.0092
13361W        W29835  18.218   5.037  10.096 -0.2528 -0.0198  0.0950
13362W        W29836  16.584  11.311   3.098 -0.2081 -0.1819  0.1436
13363W        W29837  13.766  15.981   3.658 -0.2825  0.3120 -0.2188
13364W        W29838   8.600   9.209  11.072 -0.0554 -0.1343 -0.0074
13365W        W29839   5.978  17.553   1.329 -0.0848  0.0572 -0.1546
13366W        W29840   6.529   2.131   1.139 -0.0066 -0.2455 -0.0999
13367W        W29841   1.919  17.386  11.645  0.0902 -0.0874 -0.0012
13368W        W29842   9.579   0.799   2.795  0.2994  0.1716  0.3695
13369W        W29843   2.639   3.729  11.657 -0.1788 -0.3412 -0.0487
13370W        W29844  14.050   6.218   4.612 -0.3117 -0.0110 -0.2966
13371W        W29845   0.937  11.021  14.125  0.1318  0.0818  0.0316
13372W        W29846  17.263   2.354   1.272 -0.1090 -0.0764  0.2158
13373W        W29847   9.323   8.775   3.908 -0.0638  0.0576  0.0763
13374W        W29848  15.753   6.293   3.141 -0.0317 -0.0398  0.2595
13375W        W29849   6.365   0.977  15.120  0.3104 -0.0143  0.1078
13376W        W29850   5.847   8.939  14.918  0.0478  0.0854 -0.2537
13377W        W29851  11.930   6.124   9.974 -0.0154 -0.1658 -0.2999
13378W        W29852   8.545  18.030  10.837 -0.2599  0.0915 -0.1742
13379W        W29853   1.662   2.068   0.479 -0.2960  0.4977  0.1457
13380W        W29854   6.920   4.244  12.516  0.4190  0.1206 -0.0387
13381W        W29855   5.211  18.127   0.697  0.0505 -0.0677  0.0495
13382W        W29856  10.968  17.837   1.919 -0.0424 -0.0291  0.1144
13383W        W29857   7.648  18.007  13.792  0.4009  0.3493 -0.0119
13384W        W29858   9.242   1.410  12.221  0.1452  0.1972  0.1669
13385W        W29859  13.430   9.561   0.788  0.1710  0.0522  0.4302
13386W        W29860  11.617   6.358  14.831 -0.1645  0.0037 -0.1774
13387W        W29861   3.404   9.475   1.916 -0.1117  0.2123  0.4168
13388W        W29862  14.607   1.028  15.491 -0.0626 -0.0583 -0.0806
13389W        W29863  15.783   8.828  12.834  0.2986 -0.2746  0.0325
13390W        W29864   0.391  10.220  13.272  0.2170 -0.0531 -0.2307
13391W        W29865   1.197  14.989  14.529 -0.0011  0.0718  0.0276
13392W        W29866  14.170  12.867  13.417 -0.0241  0.1334  0.0416
13393W        W29867   3.015   9.768  12.242 -0.2623  0.1499  0.1673
13394W        W29868  18.469   0.812  15.149  0.0980  0.3614 -0.1362
13395W        W29869  15.642  17.004   0.428  0.1129  0.0455  0.4680
13396W        W29870   2.167  12.371  14.102  0.1304 -0.1328  0.0083
13397W        W29871   9.226  15.509  13.026 -0.3557 -0.1926  0.2785
13398W        W29872   6.098   3.908   2.680  0.0735 -0.4944  0.1713
13399W        W29873  12.553  15.895  12.218  0.2463  0.1340  0.1294
13400W        W29874  11.986   8.573  15.381  0.2932 -0.1053  0.1959
13401W        W29875   4.433   2.692   3.592 -0.1169 -0.0305  0.1350
13402W        W29876   6.934  13.765  15.281 -0.1517 -0.0679  0.1216
13403W        W29877   8.196  16.015   1.809  0.0594 -0.0329 -0.3443
13404W        W29878  18.592   9.626   0.035  0.0436  0.3302  0.0651
13405W        W29879  11.435  16.837   0.110 -0.1127 -0.0353  0.0102
13406W        W29880  17.725  17.377  15.085 -0.0653 -0.0005 -0.1275
13407W        W29881  16.472   9.525   2.626 -0.0471 -0.0909  0.1673
13408W        W29882  13.745   9.878   4.794 -0.0858 -0.1863 -0.1413
13409W        W29883  17.905  16.095   3.619 -0.1992 -0.0577  0.0462
13410W        W29884   4.119  17.655  15.069  0.2264  0.0098  0.0314
13411W        W29885   6.652   4.799  11.145  0.0106 -0.0860  0.2856
13412W        W29886  14.401  11.758   2.335 -0.2013  0.0133 -0.1520
13413W        W29887  12.028   5.216  13.350 -0.3675  0.2205  0.0322
13414W        W29888  16.919   8.295  12.131  0.1968  0.3133 -0.1266
13415W        W29889  10.094  14.993  15.486  0.2065 -0.1967  0.0250
13416W        W29890   2.324  17.239  14.732  0.2840 -0.0664 -0.1135
13417W        W29891   0.535  14.256   0.745  0.0840 -0.0597  0.2487
13418W        W29892  13.590   3.807  11.990  0.5318 -0.2537 -0.0670
13419W        W29893  15.946  16.153  11.098  0.0388 -0.0894  0.2801
13420W        W29894   2.670   4.671  12.803  0.1560 -0.1102 -0.0654
13421W        W29895   8.175   6.410   4.480 -0.1181 -0.4584 -0.0417
13422W        W29896   4.842  11.538   1.079  0.1576 -0.0610  0.1992
13423W        W29897   1.624  18.212  11.878  0.1404  0.0685 -0.1934
13424W        W29898  13.443  13.993   0.986 -0.0089 -0.0287  0.4468
13425W        W29899   3.864  13.392   0.570  0.0773 -0.1871 -0.2103
13426W        W29900  13.293  18.716  10.911 -0.3038 -0.1349  0.1501
13427W        W29901  11.495  11.003   0.340  0.0898 -0.0216 -0.2223
13428W        W29902   6.239   7.741   2.685  0.0669  0.1046 -0.0481
13429W        W29903  15.513   0.895  12.275  0.3182  0.0789  0.1012
13430W        W29904   9.742   0.053   3.546 -0.0370  0.4077 -0.1384
13431W        W29905  13.799   9.893   3.727  0.2054  0.0330 -0.1637
13432W        W29906  16.550  17.852   5.841 -0.0478 -0.0997 -0.1321
13433W        W29907   7.848   7.015  11.501  0.1041 -0.0967  0.0295
13434W        W29908   9.518   1.609  15.341 -0.1180  0.0240  0.1076
13435W        W29909   0.709   3.238   9.897  0.3553  0.0367  0.1610
13436W        W29910   7.137  16.229   5.066 -0.0743 -0.0354 -0.3138
13437W        W29911   5.573   7.988  15.209 -0.0596  0.2771  0.0653
13438W        W29912   8.896  13.148  11.664  0.2876 -0.1552  0.1696
13439W        W29913  11.406   5.533  11.891  0.0230 -0.0446  0.2172
13440W        W29914  15.357   5.994   1.771  0.1298 -0.0225 -0.2599
13441W        W29915  13.755  15.234  14.400 -0.0800  0.2575  0.1371
13442W        W29916  16.797  10.480   3.917 -0.0037  0.0715  0.4204
13443W        W29917  13.478   0.258  11.220 -0.0075  0.1469  0.3262
13444W        W29918   3.698  11.639   0.032 -0.1180 -0.2237  0.0675
13445W        W29919   1.235   2.590  11.616  0.3019  0.0185  0.1349
13446W        W29920  12.344   8.336  11.780  0.0831 -0.0984 -0.1018
13447W        W29921   0.120   5.042   3.223 -0.1218  0.3254  0.0092
13448W        W29922  14.630   2.310   1.124 -0.0881  0.1133 -0.1854
13449W        W29923   9.239   6.572   1.551  0.0659 -0.1275  0.0444
13450W        W29924   1.107   7.605  12.074 -0.1617 -0.1915  0.3017
13451W        W29925  13.703   9.423  10.299  0.0751  0.2032  0.0568
13452W        W29926   1.343  10.591  11.355  0.0268  0.2516 -0.0507
13453W        W29927   6.781   9.519   5.016 -0.1348  0.3478 -0.3190
13454W        W29928   2.203   2.558   4.089  0.2299  0.1261  0.2421
13455W        W29929   4.604   2.364   0.439 -0.0008  0.1001  0.3404
13456W        W29930  12.752  10.887   0.516  0.1523  0.1389  0.0050
13457W        W29931  12.741  11.666   4.712 -0.0366 -0.0729  0.3309
13458W        W29932   5.559  14.641   3.435 -0.3694  0.0662 -0.2803
13459W        W29933  12.664   8.323  14.358 -0.0115  0.1340  0.3349
13460W        W29934   7.341  11.827  14.208  0.0572 -0.0463 -0.0160
13461W        W29935  15.411  17.101  14.523 -0.0951 -0.1915 -0.2448
13462W        W29936  18.062  14.441   2.200  0.0296 -0.2466  0.1068
13463W        W29937   4.158   4.751   2.525 -0.4068 -0.0702 -0.0537
13464W        W29938   7.201   4.259   3.592  0.0695  0.1684  0.2404
13465W        W29939   8.024   5.378   3.455  0.0514  0.0384 -0.0873
13466W        W29940  12.843   8.453  11.697 -0.1327 -0.1435 -0.0083
13467W        W29941  11.045   0.187   6.444 -0.0863 -0.0060  0.0868
13468W        W29942   5.046  13.119   2.857 -0.4340 -0.1025 -0.0616
13469W        W29943  13.839  13.571  10.308  0.3883 -0.0685 -0.0632
13470W        W29944   8.089   7.901  14.202  0.0373  0.0035  0.1334
13471W        W29945  15.777   1.038  10.850  0.2203 -0.0270  0.0211
13472W        W29946  14.510   1.034  12.605  0.1770  0.1238 -0.1346
13473W        W29947   0.087  11.624  10.977 -0.2199  0.0250  0.1347
13474W        W29948   9.618   0.420  11.813  0.1582  0.1533  0.2450
13475W        W29949  15.707   4.930   1.862  0.2854  0.2346  0.3082
13476W        W29950  17.941  14.286  14.461 -0.4073  0.0038  0.2122
13477W        W29951   9.991   2.284  12.378 -0.4209  0.1538 -0.0156
13478W        W29952   6.612   8.650   4.738  0.0744  0.1769  0.3393
13479W        W29953  16.117   8.319  15.123 -0.4583  0.1176  0.1060
13480W        W29954  14.512  16.895   4.492 -0.1328 -0.3324  0.2965
13481W        W29955   8.480   5.102   5.462 -0.2433 -0.1117 -0.1879
13482W        W29956  10.754  11.789   2.670  0.0707  0.1081  0.1643
13483W        W29957   8.593   2.589   5.094  0.0084 -0.0417 -0.0799
13484W        W29958  13.332  10.620  15.509  0.1009  0.1332 -0.0150
13485W        W29959   7.864   3.268   0.810 -0.1364  0.0861  0.3576
13486W        W29960  16.658   8.942   3.929 -0.2311 -0.1380 -0.4325
13487W        W29961  11.518   7.348   3.416 -0.0254 -0.0238 -0.0685
13488W        W29962   2.129  10.455  15.283  0.0346  0.1206  0.0503
13489W        W29963  16.982  15.797  14.934 -0.0646  0.0865 -0.0347
13490W        W29964   2.833  14.581   3.700  0.2044 -0.0782  0.0442
13491W        W29965   4.653   8.084   3.113 -0.1537  0.0111  0.2489
13492W        W29966   3.162   0.061  15.525 -0.1556  0.0135 -0.0551
13493W        W29967   4.465  13.532  11.431 -0.0022 -0.0315  0.0755
13494W        W29968   3.768   0.847   4.298 -0.0900 -0.1820 -0.0964
13495W        W29969   8.012   7.842  15.373 -0.0317  0.4046  0.1173
13496W        W29970   4.723   2.200  15.147  0.0148 -0.3227  0.2027
13497W        W29971  14.737  12.250  13.325  0.0887 -0.0997  0.3659
13498W        W29972   9.580  10.854  13.380  0.2505 -0.0524 -0.0007
13499W        W29973  13.850  11.238  15.034  0.2529 -0.2817 -0.0567
13500W        W29974  18.789   9.717  14.670 -0.1927 -0.2160 -0.2060
13501W        W29975   2.574   9.605  14.254  0.2588  0.2612  0.1051
13502W        W29976   5.736   8.316   3.116 -0.0384 -0.2178  0.1574
13503W        W29977   1.440  15.472  14.877 -0.3452  0.2268  0.0868
13504W        W29978  17.433   2.560  14.722 -0.0440 -0.1515 -0.1202
13505W        W29979  15.399  12.317   3.612  0.0623  0.3895 -0.0900
13506W        W29980   6.750   4.145   0.526 -0.1836 -0.0661 -0.2650
13507W        W29981   1.042   2.981   0.206  0.0947  0.0585  0.1366
13508W        W29982  11.120  14.654  12.009  0.2889 -0.1894 -0.2332
13509W        W29983  12.856   2.092   5.572  0.2517  0.2213 -0.0654
13510W        W29984   7.671   8.181  14.190  0.0541  0.0814  0.4549
13511W        W29985   9.838  15.312   4.102  0.0302  0.1007  0.0277
13512W        W29986   5.908  17.307  14.051  0.4427 -0.3345 -0.0379
13513W        W29987   1.825   5.855   3.914 -0.0104 -0.2306  0.2703
13514W        W29988   4.348   2.100   2.462 -0.1914 -0.3984 -0.2194
13515W        W29989   0.732  10.635  12.338 -0.0760 -0.0018  0.2392
13516W        W29990   7.798  10.136   4.217  0.1703  0.0495  0.1324
13517W        W29991  14.732   3.999  13.355 -0.1220 -0.2700  0.1014
13518W        W29992  18.139  15.118   1.416  0.0680 -0.0525 -0.0704
13519W        W29993   2.931   0.033  11.312  0.1908 -0.2136  0.1734
13520W        W29994  16.319  12.990  14.374 -0.0916 -0.0330  0.0580
13521W        W29995  14.862   0.886  14.963  0.2439 -0.0166 -0.0956
13522W        W29996   1.225   5.665   0.626  0.1409 -0.0145  0.0002
13523W        W29997  14.339  12.615  13.042  0.1622  0.0400  0.1809
13524W        W29998   7.067   6.489   2.033 -0.0145 -0.1432  0.2194
13525W        W29999  13.208   3.008  13.719 -0.0079  0.1591  0.1617
13526W        W30000   6.056  13.247   5.137 -0.0369 -0.2070  0.2457
13527W        W30001   8.159   3.735  10.894  0.2926  0.1609  0.0120
13528W        W30002  12.298  18.295   1.447  0.0929 -0.1832 -0.0869
13529W        W30003  14.104  16.452   4.598 -0.0614 -0.1990 -0.0171
13530W        W30004  17.801   6.200   0.899 -0.0074 -0.0348  0.0262
13531W        W30005   8.228  16.121  10.601 -0.1607 -0.2052 -0.1241
13532W        W30006   2.208  10.617   9.653 -0.0715  0.0636  0.2211
13533W        W30007  16.980  13.993  13.196 -0.2716 -0.1157 -0.0098
13534W        W30008  15.198   5.538  13.439  0.1452 -0.2260 -0.1364
13535W        W30009  18.312   8.655   0.013 -0.1880  0.0928  0.1798
13536W        W30010   2.960  18.558  11.877 -0.2881  0.0367 -0.2986
13537W        W30011  12.069   0.608  13.933 -0.0504 -0.0613  0.1584
13538W        W30012   8.461   8.668  15.075  0.0179 -0.2884  0.2054
13539W        W30013   3.318  18.416   4.005 -0.1533 -0.1099  0.0278
13540W        W30014  14.477   2.241   2.929  0.0880  0.0353 -0.0339
13541W        W30015   2.624   3.570  14.501  0.0721 -0.0299 -0.2760
13542W        W30016  15.859  17.465   2.541 -0.0445 -0.0362 -0.3271
13543W        W30017  18.383  14.976  11.877 -0.0334 -0.1608 -0.1440
13544W        W30018  10.960   9.264   2.674 -0.4081 -0.2582  0.0980
13545W        W30019   0.907  10.074  13.145  0.2108 -0.2903  0.3011
13546W        W30020   2.855   7.616  11.331  0.1725 -0.1805  0.1397
13547W        W30021  12.540  11.449   0.472 -0.0907 -0.0765 -0.2553
13548W        W30022   1.556  15.140  13.236  0.1204  0.2191  0.1508
13549W        W30023  12.646   8.599   4.518 -0.0277 -0.1432  0.1706
13550W        W30024   1.417   1.941   1.819  0.0441 -0.0295  0.0126
13551W        W30025  16.668   3.424   1.348  0.1292 -0.2851  0.3129
13552W        W30026   0.480  12.478  13.353  0.4568 -0.2438  0.2480
13553W        W30027  14.430  10.613  14.467  0.2527 -0.0710 -0.1992
13554W        W30028  10.006   0.008   5.404  0.1567  0.1051  0.0436
13555W        W30029   0.446   3.472   3.615 -0.0167  0.1378 -0.1342
13556W        W30030   1.437  17.307   0.172 -0.0757 -0.3484  0.0008
13557W        W30031  15.900   1.705  13.977 -0.2498  0.0618  0.1567
13558W        W30032   0.476   8.192   1.428 -0.2838 -0.1146 -0.1753
13559W        W30033   4.252  12.221  14.872  0.1712  0.1473 -0.0018
13560W        W30034  13.157  14.554  12.492 -0.0684 -0.0895  0.0438
13561W        W30035  15.532  14.443   3.324 -0.0314  0.3768  0.0632
13562W        W30036  18.686   6.925  12.891  0.2089  0.1753  0.2060
13563W        W30037  12.472   2.764  11.084 -0.2983  0.0610  0.3070
13564W        W30038  13.208   7.577  12.605  0.1665 -0.3301 -0.3500
13565W        W30039  15.637  18.780  12.678 -0.1165 -0.2775 -0.0276
13566W        W30040  13.097  18.696   2.316  0.1165  0.3474  0.1172
13567W        W30041  11.898  11.956   5.137  0.2054  0.2554 -0.0035
13568W        W30042   6.865  16.142   0.702  0.0838 -0.1341  0.2618
13569W        W30043  15.014  10.668  11.790  0.0411 -0.1008 -0.1150
13570W        W30044   2.004   3.293   1.253  0.3784  0.2999  0.0086
13571W        W30045   0.921  16.315  14.389  0.0427  0.2080  0.0208
13572W        W30046  11.659  10.835   2.799 -0.1226  0.0782 -0.1772
13573W        W30047  17.197   2.282   2.298 -0.0883  0.0908  0.0559
13574W        W30048   5.187   1.573  12.128 -0.2104  0.2741  0.0087
13575W        W30049   7.807   5.934  11.557  0.1151 -0.3378  0.1282
13576W        W30050  11.148   2.781  14.036  0.1002  0.0431  0.0185
13577W        W30051   9.116  17.766  14.467 -0.0769 -0.1702  0.0336
13578W        W30052  12.415   3.191   2.062  0.0769 -0.0020 -0.0035
13579W        W30053   9.384  18.068  14.071 -0.0402 -0.1477 -0.0405
13580W        W30054   3.838  16.846  14.726 -0.1133  0.1419  0.1943
13581W        W30055  17.646   7.561   2.990  0.2384  0.4126 -0.0401
13582W        W30056  11.203   7.738   3.342  0.2214 -0.0828  0.0760
13583W        W30057  10.779  15.883   0.084  0.3318 -0.1305 -0.1376
13584W        W30058   8.762   2.846   4.071  0.2239 -0.2902 -0.2520
13585W        W30059  17.474   8.709   2.388 -0.0226 -0.0150 -0.0524
13586W        W30060  17.928  15.674   4.035  0.0862 -0.1018 -0.0459
13587W        W30061  17.825  14.199   2.685  0.1060  0.1051 -0.0465
13588W        W30062  15.407   4.831  15.285 -0.0954  0.1362  0.1418
13589W        W30063  11.776   6.495   4.856  0.1843 -0.1047 -0.0373
13590W        W30064  11.247   6.609   4.044  0.1278 -0.0868 -0.0387
13591W        W30065   5.258   1.457   2.707  0.1710  0.0820 -0.1414
13592W        W30066   3.380   1.487  10.886 -0.1302  0.1393 -0.2194
13593W        W30067   3.007   8.731  12.499 -0.0442  0.0166  0.1327
13594W        W30068  13.778  16.859   1.563  0.0333 -0.0285  0.2965
13595W        W30069   9.102  15.613   5.322 -0.2515 -0.0527 -0.0566
13596W        W30070   4.091  16.002   2.077 -0.1711  0.1365 -0.1016
13597W        W30071   3.157   7.420  12.698 -0.2671 -0.0816  0.1026
13598W        W30072  11.680   1.488   0.629  0.1998 -0.2611 -0.0659
13599W        W30073   5.571   4.064  15.082 -0.0020 -0.2326 -0.3168
13600W        W30074  16.401   4.464   2.121 -0.0463  0.0499  0.1816
13601W        W30075   2.534   5.311  10.400  0.0634  0.3272  0.0494
13602W        W30076  14.522  17.544  14.045  0.3301  0.1505 -0.1522
13603W        W30077  12.133  10.566   3.551 -0.1540  0.0641  0.0542
13604W        W30078  15.461  16.324   2.088  0.1885  0.3338 -0.0565
13605W        W30079   1.224  16.457  15.168 -0.1337 -0.0466  0.1679
13606W        W30080  13.963   5.175   5.439 -0.1588  0.2793  0.0172
13607W        W30081  18.254   4.756   4.414 -0.1888  0.1681 -0.0373
13608W        W30082   0.256  12.635   0.714 -0.0370 -0.0183 -0.1879
13609W        W30083  11.133  17.349  14.351 -0.1787 -0.2805 -0.4995
13610W        W30084   4.140   1.549   0.260  0.2669 -0.1197 -0.3510
13611W        W30085   0.672  16.811   4.222  0.1343  0.0909  0.1747
13612W        W30086  14.253  13.290  14.483 -0.2012 -0.0418 -0.0775
13613W        W30087  17.215   9.147  12.002 -0.1139 -0.2710 -0.0580
13614W        W30088   7.986  10.056   1.517 -0.1175 -0.4815  0.0170
13615W        W30089  10.319   6.672   3.691 -0.0623  0.0985  0.2029
13616W        W30090   1.046   7.974   4.847 -0.2168 -0.3112  0.0337
13617W        W30091  12.468  16.803  12.569 -0.1240  0.4508  0.0883
13618W        W30092   1.072  11.915  14.952 -0.0126 -0.1890  0.1650
13619W        W30093   6.522   7.890  12.954 -0.0454  0.0286  0.0775
13620W        W30094   2.365  17.587  14.411 -0.0315  0.0612  0.2758
13621W        W30095   5.623   4.899   4.232  0.0466  0.1358  0.0398
13622W        W30096  15.550  11.244   3.593  0.0119  0.1738 -0.0830
13623W        W30097   5.025   0.572   4.567  0.0167 -0.1046 -0.1138
13624W        W30098   4.411  14.487  11.157 -0.1059  0.2428 -0.0771
13625W        W30099  14.945  14.626  13.627 -0.2474 -0.0513 -0.4274
13626W        W30100   0.855   2.892  12.829  0.0063  0.0082  0.0163
13627W        W30101   2.996  13.009   9.456 -0.1081 -0.0836  0.2568
13628W        W30102   8.047  15.600  12.630  0.2834  0.1067  0.1080
13629W        W30103   4.138   6.509   1.983  0.2118  0.2195 -0.1832
13630W        W30104  11.641   6.972   3.052  0.2315 -0.2318 -0.2072
13631W        W30105  11.093  15.749   5.889 -0.4455  0.0623 -0.0639
13632W        W30106  12.626  11.256  15.007 -0.0954 -0.1139 -0.2022
13633W        W30107  16.603  13.549   4.620  0.1707  0.1195  0.0691
13634W        W30108   4.581  10.800   3.495  0.1214  0.1047 -0.2708
13635W        W30109  10.589   0.566   5.647 -0.0682  0.1484 -0.0994
13636W        W30110   6.849   8.307   3.732  0.1102 -0.2586 -0.0150
13637W        W30111  14.427   0.297  12.176 -0.3091 -0.0884  0.0457
13638W        W30112  10.108  17.196   0.220 -0.3180 -0.1067  0.0790
13639W        W30113   1.359  11.413   0.013 -0.1353 -0.1386 -0.0430
13640W        W30114  11.608   4.626  11.930  0.1107 -0.0547  0.2043
13641W        W30115  13.313  17.023   3.818 -0.0149  0.1170  0.0472
13642W        W30116   5.650  13.354  11.562  0.0626  0.0751 -0.2177
13643W        W30117   7.813   7.938   1.967  0.0457  0.1645 -0.2078
13644W        W30118   7.943  13.828   4.192 -0.1006 -0.0621  0.1742
13645W        W30119   9.694  12.959   5.137  0.0869 -0.0675 -0.0319
13646W        W30120  16.548  13.815   3.764 -0.0771  0.0356 -0.0817
13647W        W30121  13.218   4.086  15.494  0.0130 -0.3260  0.0904
13648W        W30122  16.504  18.411   1.632 -0.2272 -0.1557  0.0029
13649W        W30123   5.286   5.923   1.647 -0.1905 -0.6274  0.0554
13650W        W30124   3.665   7.171   4.347  0.1506  0.0573  0.1359
13651W        W30125   5.673  17.757  13.860 -0.0531 -0.1242 -0.1410
13652W        W30126   8.590  14.092  14.052 -0.0114  0.4243 -0.2394
13653W        W30127  15.504  10.736   3.681  0.2243  0.2149  0.1598
13654W        W30128  18.350  17.092   0.945  0.3185 -0.1107 -0.0475
13655W        W30129  10.703   0.548   1.095  0.0161  0.2971  0.0442
13656W        W30130   4.293   4.396   0.112  0.1397 -0.1187  0.1173
13657W        W30131  12.936  16.812  14.495  0.3405 -0.1594  0.0680
13658W        W30132   6.397   9.932  14.049 -0.0281  0.0731  0.2651
13659W        W30133  13.759  16.295   4.982  0.0077 -0.2045 -0.0391
13660W        W30134   3.617   4.329   3.237  0.1957 -0.1618 -0.1134
13661W        W30135   3.052   7.130  15.109  0.1235  0.0091  0.2230
13662W        W30136  17.268  11.552  15.117 -0.1148 -0.0844 -0.2494
13663W        W30137   7.906   4.976  13.317 -0.1942 -0.0643 -0.2191
13664W        W30138   9.083   0.163  14.198  0.0831 -0.0644  0.1202
13665W        W30139  10.692   2.295  11.867 -0.1268 -0.3684  0.0123
13666W        W30140   4.861   8.531   2.809 -0.0523 -0.0047  0.0407
13667W        W30141  13.589  13.515   3.769  0.3073 -0.2802  0.0889
13668W        W30142  17.225   0.127  13.260  0.0468  0.1071  0.0256
13669W        W30143  12.355   5.878   0.813 -0.3101  0.1192 -0.0682
13670W        W30144  17.876   0.275   2.026  0.0545 -0.0587  0.2234
13671W        W30145   4.349   2.823   3.024 -0.1021  0.1505 -0.2089
13672W        W30146   4.450  15.239   3.539  0.0085 -0.1119  0.0326
13673W        W30147   5.173  14.472  13.695  0.0355 -0.0704  0.2027
13674W        W30148   3.507   0.193   3.760  0.1830  0.0558  0.1395
13675W        W30149   6.286  11.297   3.977  0.0605  0.2276  0.0878
13676W        W30150  15.167   7.687  14.119 -0.2719  0.0132 -0.0356
13677W        W30151   8.467   1.535   1.585 -0.1988  0.1518  0.1245
13678W        W30152   8.238   6.132   1.968 -0.2031  0.4168  0.0780
13679W        W30153  16.684  15.731  13.871  0.3323  0.0693 -0.0274
13680W        W30154  13.119   9.825  11.972  0.2854 -0.0319  0.3877
13681W        W30155   0.307  18.173  10.092  0.1784 -0.5431  0.1136
13682W        W30156   3.823   6.925  13.570  0.1127  0.1302 -0.0144
13683W        W30157  16.324  12.417   0.536 -0.1715 -0.4206  0.0482
13684W        W30158  12.750   7.482   3.757  0.0793 -0.0492  0.0576
13685W        W30159  18.256   7.718  15.313  0.2818 -0.0309  0.1775
13686W        W30160  11.373  17.468  11.635 -0.0668 -0.2694  0.2120
13687W        W30161  10.844   9.283  15.522 -0.0039 -0.0959 -0.2106
13688W        W30162  14.629  10.943  14.884  0.1731 -0.2500 -0.0213
13689W        W30163   6.140   3.595  11.848  0.0165 -0.0378 -0.0088
13690W        W30164   8.272  16.829   3.506  0.1623 -0.3626  0.4554
13691W        W30165   3.708  14.235  13.082  0.2834  0.1880  0.0786
13692W        W30166  17.704   5.086   1.225  0.0103  0.1667 -0.2652
13693W        W30167   0.657   4.839   9.986  0.0844 -0.2146  0.0301
13694W        W30168   2.035   5.927  11.404 -0.3026 -0.1211  0.0012
13695W        W30169  10.690   3.183  10.940  0.4143  0.1144  0.2555
13696W        W30170   3.956  16.480   1.962  0.0810  0.1803 -0.1318
13697W        W30171  13.790   8.276  11.549 -0.0171  0.1085 -0.0351
13698W        W30172   4.731   9.504  13.497 -0.1280 -0.6404 -0.1262
13699W        W30173   5.618   2.771  14.453 -0.1250  0.1686  0.2704
13700W        W30174  10.451   1.897   0.662 -0.0053 -0.0976 -0.0040
13701W        W30175   7.257  18.053   1.946  0.0669 -0.2714  0.0677
13702W        W30176   9.083  13.682   1.648 -0.2985  0.1027 -0.0330
13703W        W30177  12.149  18.468  13.053 -0.1098 -0.2616 -0.1175
13704W        W30178   1.788  17.071  11.311  0.2764 -0.0239  0.3554
13705W        W30179   1.669  17.261   3.385  0.1708 -0.1989 -0.0943
13706W        W30180  15.853   8.513   2.242 -0.1813 -0.1500 -0.0578
13707W        W30181   2.509   9.875   0.828 -0.3448  0.0087  0.1298
13708W        W30182   2.403   6.651  13.557 -0.1525  0.0042  0.1727
13709W        W30183   7.857   7.087   0.503  0.0543 -0.0181 -0.0532
13710W        W30184  15.032   8.316  13.526  0.0034 -0.1901  0.0744
13711W        W30185  15.324  18.625  10.336  0.2341  0.0268 -0.1366
13712W        W30186   6.859   4.886  14.970 -0.2402 -0.1254  0.0201
13713W        W30187   6.710  12.336  12.792 -0.0198  0.3184 -0.1266
13714W        W30188  14.135   5.969   3.055 -0.0203 -0.2087  0.1318
13715W        W30189  15.581   9.565   0.906 -0.0311  0.0643  0.0645
13716W        W30190   1.907  15.506  11.793  0.0597 -0.0555 -0.2320
13717W        W30191  16.119   1.431   2.122 -0.0085  0.2149 -0.3568
13718W        W30192   7.853  12.787  11.190  0.1566 -0.1512  0.0835
13719W        W30193   3.426  17.913  14.617 -0.2191  0.0006 -0.0541
13720W        W30194   3.528  16.949  12.545 -0.0327  0.0927 -0.2939
13721W        W30195   7.477   3.288  14.741  0.4171 -0.1396  0.1832
13722W        W30196   2.318   6.197  11.700  0.0482 -0.0954  0.0908
13723W        W30197   0.191  16.464   1.710 -0.0524  0.0812 -0.0983
13724W        W30198  18.142   3.370   4.929 -0.1511 -0.2193 -0.2233
13725W        W30199  15.413   9.451   5.262  0.0444  0.1911  0.1970
13726W        W30200  11.884   5.865   3.622  0.1199 -0.0021 -0.1941
13727W        W30201  15.959   2.637   4.061  0.4649 -0.3137 -0.0821
13728W        W30202   8.951   4.571   2.451  0.2077  0.2332  0.0510
13729W        W30203  13.890  16.708   3.834  0.0734 -0.1103  0.1063
13730W        W30204   5.032   7.660  12.561 -0.2928 -0.0106 -0.2678
13731W        W30205   7.070  17.548  10.724 -0.2427  0.4073 -0.2314
13732W        W30206   2.424  13.228  15.443  0.2468  0.0479 -0.2478
13733W        W30207   3.533  12.544   3.284 -0.1563 -0.3258  0.0369
13734W        W30208   1.566  13.953  10.242  0.1045  0.0061 -0.0714
13735W        W30209   0.617  16.287  13.780 -0.1523  0.1605 -0.1240
13736W        W30210   3.706  13.895   4.862 -0.0058  0.0113  0.0474
13737W        W30211  10.679   7.985  14.770  0.0098  0.1028  0.2563
13738W        W30212   1.772   3.125  11.479 -0.1681  0.1850  0.3557
13739W        W30213   5.030  11.972   6.066  0.1564  0.1468 -0.1102
13740W        W30214  15.363  16.685  13.007 -0.1965  0.1264 -0.3524
13741W        W30215   1.139  15.718   2.819 -0.1326 -0.1315 -0.3443
13742W        W30216  11.415   4.344  12.515  0.1230  0.1082  0.0818
13743W        W30217  18.202   5.796  13.846 -0.3548  0.2374  0.0221
13744W        W30218   9.807   1.219   2.890 -0.0272 -0.3787  0.0089
13745W        W30219  14.423  13.957  13.526 -0.1335 -0.2351 -0.2436
13746W        W30220  14.846  10.039  13.175  0.2743 -0.2452  0.0672
13747W        W30221  10.799   1.501   3.923  0.1281 -0.0533 -0.1073
13748W        W30222  11.349  11.092   1.189 -0.0754 -0.1808 -0.0190
13749W        W30223  10.823   0.627   0.609  0.0181  0.0094 -0.0641
13750W        W30224   9.501   8.965  11.064 -0.0295  0.0296 -0.3633
13751W        W30225   1.663   4.125   3.331  0.0787  0.0493  0.0377
13752W        W30226   4.268  11.328  13.361  0.1096 -0.2044 -0.1182
13753W        W30227  11.478  15.459   5.685 -0.1316  0.4038 -0.1591
13754W        W30228  15.381   5.271  15.569  0.0235  0.2380  0.2941
13755W        W30229   8.321  11.817  10.444 -0.0832 -0.0112  0.4752
13756W        W30230   0.827   3.000  13.894 -0.3160 -0.1421  0.3465
13757W        W30231  17.208  18.256  11.183  0.0260 -0.0956  0.2125
13758W        W30232  14.219   7.924  15.157 -0.0304 -0.3621 -0.3250
13759W        W30233   6.119  18.766   2.076  0.1691  0.2379  0.0279
13760W        W30234  13.371  15.059  11.410 -0.2922 -0.1229 -0.2135
13761W        W30235  17.124  17.907   4.456  0.1718  0.2495  0.0759
13762W        W30236  10.089   8.003  13.596  0.0383 -0.0529 -0.0228
13763W        W30237  10.172  18.578  14.052  0.0554 -0.3924  0.3141
13764W        W30238  17.539   6.651  13.092  0.0695 -0.1832  0.5194
13765W        W30239   8.533   2.010   3.785  0.2449  0.1113  0.0952
13766W        W30240  10.542  18.079  15.480  0.0096  0.3364 -0.0073
13767W        W30241  11.525   4.873   0.358  0.2173  0.0599 -0.0208
13768W        W30242   9.433   9.581  12.171  0.1500  0.1313 -0.2355
13769W        W30243  11.057   7.514  13.549  0.1516  0.1588 -0.1533
13770W        W30244   9.450  13.594   1.368 -0.2881 -0.0304 -0.0097
13771W        W30245   4.256  11.681  14.843 -0.3957 -0.2494 -0.2145
13772W        W30246  15.134   7.692  11.173 -0.0648  0.0808  0.1007
13773W        W30247   4.870   4.160  11.564 -0.3868  0.2232 -0.0216
13774W        W30248   6.229   1.228   2.622  0.0151  0.2317  0.2314
13775W        W30249  10.617   7.364   4.242  0.0751  0.1049  0.1142
13776W        W30250  13.934   5.036   5.962 -0.0418  0.3283 -0.1257
13777W        W30251  14.730   9.139   0.918  0.2987  0.1339 -0.0737
13778W        W30252  13.824   5.447   1.565  0.0791 -0.4383 -0.0138
13779W        W30253  15.965   3.143  14.517 -0.0868  0.2773  0.1657
13780W        W30254   4.536   8.878  11.187 -0.1875  0.1285  0.0182
13781W        W30255   6.146  13.528  11.712  0.2257  0.0319 -0.0216
13782W        W30256   7.732   9.179  13.673 -0.2110  0.0878 -0.0129
13783W        W30257   0.419   4.587   2.765  0.1205  0.1087 -0.2627
13784W        W30258   1.654   5.836   0.354  0.0111  0.0552 -0.0551
13785W        W30259   7.902   8.002   4.338 -0.1267  0.0527  0.0790
13786W        W30260   7.433  16.736   5.856 -0.4685 -0.2610  0.0797
13787W        W30261   1.967  15.716  15.119  0.0840  0.3631 -0.0801
13788W        W30262  15.992  12.306  11.666  0.1477 -0.1326 -0.0435
13789W        W30263  10.843   8.682  12.438 -0.1271  0.0382  0.2214
13790W        W30264  12.313  14.172   1.536 -0.1340 -0.0841 -0.1060
13791W        W30265  13.763   9.036  13.853 -0.0445  0.4729 -0.1058
13792W        W30266  17.293   3.185  13.838 -0.0354 -0.0631  0.1572
13793W        W30267  11.123  11.556  14.348  0.2342 -0.1470 -0.1956
13794W        W30268   2.315  16.632   4.131  0.0607 -0.0459 -0.0220
13795W        W30269   2.330   8.625  11.721 -0.0704 -0.0009 -0.2211
13796W        W30270   5.466  14.159   0.091  0.1792 -0.2919 -0.2780
13797W        W30271  12.600   8.227  10.442  0.1406  0.1299 -0.0801
13798W        W30272  15.082  15.950   5.454  0.0654 -0.1634  0.1861
13799W        W30273  14.861  14.386   2.218  0.0758  0.0748  0.1204
13800W        W30274   1.233   5.241  14.746  0.1647  0.2061  0.1188
13801W        W30275   1.551   8.635   0.895 -0.1460 -0.0178 -0.2433
13802W        W30276   5.205   8.745  13.059 -0.1733 -0.0546  0.2959
13803W        W30277  12.580   5.088   4.908  0.2335 -0.0840 -0.3269
13804W        W30278   7.633   7.681  10.599  0.1907  0.1417  0.1113
13805W        W30279   7.322   2.120  12.437 -0.0341 -0.5290  0.1288
13806W        W30280   0.385  10.040   0.467  0.0357 -0.0834 -0.3220
13807W        W30281   2.310   2.428   4.981 -0.0005  0.2221  0.1736
13808W        W30282   0.983   8.071   2.805  0.2081  0.1695  0.0714
13809W        W30283  17.123  14.217  12.114  0.1162  0.1894  0.2545
13810W        W30284  11.566   1.211   2.072 -0.0231  0.0148  0.3700
13811W        W30285  15.799   6.455  11.516 -0.2836  0.1731 -0.1071
13812W        W30286  17.696   0.750  11.394 -0.2873 -0.2222  0.1193
13813W        W30287   5.290  18.218  12.213 -0.1353  0.0601 -0.2590
13814W        W30288   4.069   3.936   0.318  0.1262 -0.1137  0.0648
13815W        W30289   5.994   7.529  11.656 -0.1175 -0.1825  0.0363
13816W        W30290  18.598   2.383   0.588  0.2436  0.4040 -0.0284
13817W        W30291  16.692   6.404  14.013  0.2312 -0.2696  0.0132
13818W        W30292   8.174  11.137   0.182 -0.0745  0.3923  0.0405
13819W        W30293  18.779   0.159   3.470 -0.0205  0.0763 -0.3904
13820W        W30294  13.127   9.186  13.042 -0.0475  0.1223  0.0756
13821W        W30295   3.797   7.756  15.390 -0.3616 -0.5000  0.1695
13822W        W30296   2.317   1.596   1.949  0.1961  0.3026  0.0925
13823W        W30297   2.067  16.890  11.765  0.2884  0.4126  0.1754
13824W        W30298   7.507   3.947   1.418  0.2491 -0.0972  0.2224
13825W        W30299  18.180  15.840  13.279 -0.0441 -0.2769 -0.0173
13826W        W30300   0.938  17.076   1.456  0.1297 -0.0694 -0.0289
13827W        W30301   1.217  14.281  14.990  0.0582 -0.1953  0.2932
13828W        W30302  11.961  14.024   2.512 -0.1207 -0.1016  0.0487
13829W        W30303   5.670  13.727  11.925  0.1584  0.4202  0.0561
13830W        W30304   8.509   5.153  13.230 -0.0908  0.0428 -0.2911
13831W        W30305   0.225  11.700  15.057 -0.0526 -0.1221  0.0109
13832W        W30306  15.019  13.072  13.663 -0.3656  0.0027 -0.0205
13833W        W30307   4.002   4.512  14.064 -0.2733 -0.0125 -0.1318
13834W        W30308   4.675   3.871   2.096  0.0477  0.1781 -0.6114
13835W        W30309  15.305   8.587   5.548  0.2057  0.2102  0.0180
13836W        W30310   8.317  11.138  15.283  0.1013  0.2684 -0.0924
13837W        W30311   6.296  12.855   1.880  0.0521  0.2322  0.0481
13838W        W30312  16.377  15.703  12.698 -0.0407 -0.0659  0.1029
13839W        W30313   6.361  11.828  11.875 -0.0345  0.0023  0.0583
13840W        W30314   9.893  13.013   2.867 -0.1164 -0.4337 -0.0484
13841W        W30315   1.782   6.200  11.853 -0.2802  0.0222  0.0945
13842W        W30316   0.233  17.608   4.334 -0.0363 -0.0084  0.3047
13843W        W30317  18.191   8.301   0.547 -0.3377 -0.2737  0.2727
13844W        W30318   0.596   1.557   4.010  0.3385 -0.1526 -0.1308
13845W        W30319  14.329  16.642   2.039 -0.0466  0.1754  0.0910
13846W        W30320  15.089   3.653  14.286 -0.0074 -0.1197  0.0300
13847W        W30321  12.564   5.992  15.233  0.2133 -0.0879 -0.0846
13848W        W30322   0.229   3.960   0.633 -0.0903  0.0077 -0.1868
13849W        W30323  15.148  18.083   2.113 -0.1546 -0.0616 -0.1887
13850W        W30324   7.063   6.075  12.135  0.2198  0.1587  0.4717
13851W        W30325  12.826   1.586  12.442  0.1466 -0.3842  0.0131
13852W        W30326  16.971   1.892  15.561  0.3677  0.1086  0.0140
13853W        W30327   1.104   8.279  12.719  0.2221 -0.0204 -0.2234
13854W        W30328  18.775   4.105   3.486 -0.1179  0.0764  0.0160
13855W        W30329  10.194   2.132  15.476 -0.1950  0.1115  0.2425
13856W        W30330  14.819   1.847  15.214  0.2209 -0.2943  0.0258
13857W        W30331  14.012   9.218   2.751  0.0219 -0.0632  0.1053
13858W        W30332  14.108   4.398   4.455  0.1183  0.2206 -0.2456
13859W        W30333   4.732  13.507  14.494  0.0588 -0.2444  0.2750
13860W        W30334  10.051   8.566   4.290  0.0861 -0.1140  0.0639
13861W        W30335  12.541   1.638   5.512  0.1008  0.1826 -0.0697
13862W        W30336  17.974   5.791   4.021 -0.2830 -0.2996  0.2977
13863W        W30337   9.952   9.578  12.822  0.0163  0.3637 -0.1709
13864W        W30338   0.562   2.047   3.996 -0.3215  0.6631  0.0535
13865W        W30339  16.790  11.984   3.037  0.4870  0.3685  0.1323
13866W        W30340  17.467  10.530   2.221  0.0417 -0.1353  0.0617
13867W        W30341  15.167  11.130   3.891  0.1536  0.1246  0.0194
13868W        W30342  14.379   7.407  15.122 -0.3462 -0.0751 -0.1266
13869W        W30343  12.371  16.668   2.023 -0.2408 -0.2189  0.0477
13870W        W30344   4.975   7.377   3.646 -0.0941 -0.0015  0.1217
13871W        W30345   5.638   6.396  15.540  0.0797  0.0405 -0.3315
13872W        W30346   3.765   2.005  11.272 -0.2548  0.2282  0.1381
13873W        W30347  12.809   1.185  13.699 -0.3974 -0.0572 -0.2815
13874W        W30348  11.228   9.653   4.393  0.0905 -0.0690 -0.1359
13875W        W30349  11.618  12.779   2.886  0.2753  0.1845  0.0133
13876W        W30350  13.126   0.107  11.534  0.1609  0.2031  0.0903
13877W        W30351  13.009  13.436   0.354  0.0136  0.1856 -0.3182
13878W        W30352   2.557   3.335   9.972  0.2247  0.1721  0.2751
13879W        W30353   1.868   9.742   2.902  0.2896 -0.0806 -0.0054
13880W        W30354   1.434  14.307  10.594  0.1184 -0.1684 -0.0313
13881W        W30355   2.115  15.880   0.357 -0.2621  0.2545  0.0299
13882W        W30356  17.455   9.065  13.443 -0.0399  0.2394 -0.2790
13883W        W30357   9.387  12.560  15.418  0.0952  0.1200 -0.0933
13884W        W30358   1.444   8.345   1.335 -0.2343 -0.0434 -0.1122
13885W        W30359   0.143   0.890   1.323 -0.0203 -0.1563 -0.3523
13886W        W30360  12.282   5.264  15.097 -0.2401 -0.0316 -0.3908
13887W        W30361  10.473  18.638   2.102 -0.0420  0.0336  0.2517
13888W        W30362  16.807  14.660   0.330  0.0015 -0.2606 -0.0068
13889W        W30363   9.644  16.598   5.127  0.1804 -0.3531 -0.1057
13890W        W30364  12.721  14.230   2.405 -0.1980 -0.1164  0.1228
13891W        W30365   6.592   6.326  11.238  0.0288  0.1339  0.3849
13892W        W30366  11.952  12.323  11.653  0.0276 -0.3101  0.1001
13893W        W30367   7.816  18.597  12.474  0.1692 -0.0241  0.1794
13894W        W30368   6.957  18.198   0.218  0.1309 -0.0296  0.2439
13895W        W30369  11.758   1.299   3.429 -0.0871 -0.0794  0.1798
13896W        W30370  15.331   7.133   1.801 -0.2053 -0.2841  0.1744
13897W        W30371  15.386  13.785  14.839  0.1694  0.0163 -0.0540
13898W        W30372   4.914   2.140   0.760 -0.0629 -0.4910 -0.0059
13899W        W30373  16.276  15.048   2.630 -0.1416  0.0810  0.1780
13900W        W30374   3.701  13.802  13.506  0.0366  0.1132 -0.1096
13901W        W30375   1.025   9.783  11.049  0.1583 -0.0604 -0.1104
13902W        W30376  18.184  17.656   1.066 -0.0523  0.0961 -0.4240
13903W        W30377  11.994  17.782  11.132 -0.0931 -0.0155 -0.3389
13904W        W30378   7.555  10.906  11.157  0.0074 -0.0659 -0.2864
13905W        W30379  16.129  17.238   1.672 -0.1174 -0.1227  0.0489
13906W        W30380  17.253   5.998   1.660 -0.0700  0.1037 -0.1982
13907W        W30381  17.183  10.754  15.360 -0.0339  0.1490  0.0778
13908W        W30382  10.412  11.298  12.845 -0.1115 -0.1649  0.0969
13909W        W30383   6.247   1.339  12.092  0.4820  0.3502  0.5469
13910W        W30384   9.680  13.775  15.172 -0.1538  0.1459  0.6576
13911W        W30385  10.530  17.998   5.595  0.0986  0.1396 -0.3965
13912W        W30386  11.992  18.601   3.291  0.0051  0.4548 -0.1735
13913W        W30387   8.166  14.295   0.927  0.2056  0.0730  0.0419
13914W        W30388   8.277  18.584   3.831  0.2263 -0.1857  0.0041
13915W        W30389  15.695   4.320  15.136  0.1925 -0.0258 -0.0046
13916W        W30390  15.660  14.266  10.633  0.2962 -0.2908 -0.0976
13917W        W30391   8.225  12.704   3.351 -0.0147 -0.1945  0.1763
13918W        W30392   9.105  10.130   0.098  0.0810  0.1336  0.0135
13919W        W30393  12.511  12.105   3.837 -0.0006  0.0062 -0.1595
13920W        W30394   7.615   7.657   4.626 -0.0854  0.0418  0.2714
13921W        W30395  15.133   7.110  12.163 -0.1876  0.2973  0.3692
13922W        W30396   4.918   4.744   9.716 -0.0809  0.1577 -0.0142
13923W        W30397   9.355   3.161  11.342  0.1845  0.2581  0.0956
13924W        W30398   1.460   0.454  11.820  0.1491 -0.0623  0.2605
13925W        W30399  11.207   0.243  14.872  0.1863  0.1091  0.1136
13926W        W30400  13.610  15.170  12.351 -0.1037 -0.0825 -0.2113
13927W        W30401  13.937   8.360  15.461 -0.1937 -0.1002 -0.1903
13928W        W30402  17.895   6.405   2.290 -0.1596  0.1529  0.1193
13929W        W30403  16.682   1.182   4.309 -0.3397  0.0803  0.2238
13930W        W30404   7.260   3.777   2.667 -0.4417 -0.2700  0.3053
13931W        W30405   5.456   3.701   2.449 -0.0151  0.2111  0.0650
13932W        W30406  13.114   4.755  13.651  0.0195 -0.0234  0.1498
13933W        W30407  17.116   9.126   2.298  0.0409  0.0610 -0.1940
13934W        W30408   5.418  11.106   2.888  0.1525  0.2290 -0.0539
13935W        W30409  18.137   3.020   4.028 -0.0979 -0.0295 -0.0897
13936W        W30410   0.709   2.171  14.314  0.0828 -0.1665 -0.1539
13937W        W30411   1.538  11.825  11.280 -0.0922  0.2778  0.0488
13938W        W30412  13.929   0.213   1.107  0.1752  0.0283 -0.1168
13939W        W30413  18.725  18.375  12.050  0.1739 -0.0801  0.0063
13940W        W30414  13.931  11.073  14.320 -0.1547 -0.0723 -0.1753
13941W        W30415  16.220   1.862   4.155  0.1482 -0.3427 -0.1334
13942W        W30416  10.095   1.133  11.409  0.5328 -0.4537 -0.0632
13943W        W30417   1.132  11.450   9.746  0.0902 -0.1416 -0.0294
13944W        W30418   5.842  16.689  14.494  0.0149  0.0859  0.1659
13945W        W30419   6.920   1.090   0.259  0.0583 -0.0109 -0.0230
13946W        W30420   1.036   1.881   3.877  0.0290 -0.0952 -0.4561
13947W        W30421   2.822  10.329   4.782 -0.0559 -0.3092 -0.0498
13948W        W30422  15.921  16.171  14.633  0.3895 -0.1205 -0.0882
13949W        W30423  17.966   7.291   3.387  0.1553  0.1360 -0.0354
13950W        W30424  17.851  10.333   5.902  0.0888  0.2766  0.1857
13951W        W30425  12.094  11.425   6.153 -0.1256  0.1845 -0.0252
13952W        W30426   2.285   2.933   1.094 -0.0344 -0.0501 -0.0237
13953W        W30427   9.110  17.064   3.898  0.3245  0.0741 -0.1357
13954W        W30428  15.029  15.312  11.802 -0.0137 -0.1804 -0.1348
13955W        W30429  16.893   3.502  13.068  0.1232 -0.1336 -0.0181
13956W        W30430   8.114  12.733   2.838 -0.3207  0.1056 -0.3169
13957W        W30431  11.037   9.727   5.303 -0.1186  0.1203 -0.1374
13958W        W30432  11.871  15.255   1.907 -0.2353 -0.0610 -0.2087
13959W        W30433   7.535   7.929   2.438  0.1459 -0.0387  0.0130
13960W        W30434  10.035  16.918   3.691  0.0592  0.0557 -0.0618
13961W        W30435  12.959   0.185  12.955  0.2102  0.3153  0.1182
13962W        W30436   2.911  14.603   5.033 -0.2163  0.2070 -0.0198
13963W        W30437   3.063  10.814  10.022  0.0967  0.1231  0.1392
13964W        W30438  14.594  18.042   5.644  0.2913 -0.0958  0.3636
13965W        W30439  14.760  16.173  13.632 -0.1146 -0.2682  0.0953
13966W        W30440   0.892   5.398  13.884 -0.2484 -0.1686  0.0423
13967W        W30441  15.427  15.416  13.724 -0.0076  0.1338 -0.0492
13968W        W30442   9.322   2.857  11.740 -0.2908  0.0055  0.1967
13969W        W30443  14.313   7.528  14.648  0.0937 -0.0599  0.3088
13970W        W30444   3.582  17.576  15.340  0.0258 -0.2408 -0.1204
13971W        W30445  10.158  16.582   5.286 -0.3987 -0.1425 -0.1136
13972W        W30446  13.965   6.773  11.257  0.1230 -0.2597 -0.1095
13973W        W30447   2.480   6.074   0.970 -0.1790 -0.0626  0.0548
13974W        W30448   3.162   7.455  11.700 -0.1683  0.4245  0.2258
13975W        W30449   9.396   6.409   2.055  0.1928  0.0038  0.3551
13976W        W30450  17.603  17.819   4.343  0.2987 -0.0884  0.0794
13977W        W30451   9.485  17.209   4.275 -0.1472 -0.1550 -0.2032
13978W        W30452   3.945  18.697  11.997  0.1265  0.0775  0.2612
13979W        W30453  13.330   8.408   1.546  0.2151 -0.0100 -0.1800
13980W        W30454  11.510  12.318   4.864 -0.1856  0.0386 -0.0275
13981W        W30455  18.035   3.453   3.598 -0.0730  0.1211 -0.1532
13982W        W30456  12.555  17.113   4.929 -0.0907 -0.0659  0.0668
13983W        W30457  10.753   4.305   1.403  0.0344 -0.1229 -0.0954
13984W        W30458  10.745  17.871  15.047 -0.1332 -0.1430  0.1752
13985W        W30459   4.258  15.453  12.169  0.0870  0.3995  0.2595
13986W        W30460  17.160  17.837   2.006  0.1391 -0.1212 -0.0795
13987W        W30461  12.193   3.058   2.505 -0.0793  0.2117 -0.0348
13988W        W30462  10.979  18.323  14.830 -0.1471 -0.1092  0.1348
13989W        W30463  10.092   5.739  12.725 -0.3793 -0.3401  0.1146
13990W        W30464  17.874  15.160   3.985 -0.0987  0.2225  0.0890
13991W        W30465   1.579  10.997  12.381  0.1237 -0.2568  0.1703
13992W        W30466   0.961   7.507   3.809 -0.1706 -0.1456  0.0502
13993W        W30467   7.702   0.871   0.125 -0.2335  0.2483 -0.0009
13994W        W30468   5.319  14.647  14.762  0.0589  0.1666 -0.0162
13995W        W30469  11.712   0.245  10.037 -0.2312 -0.0345  0.1017
13996W        W30470   6.405   7.321  11.404  0.0988  0.0727  0.0997
13997W        W30471  18.654   0.841   0.513  0.2132 -0.1290  0.0579
13998W        W30472  13.767   5.674  15.015  0.3470 -0.1022 -0.3583
13999W        W30473   4.439  11.073   1.157  0.0064 -0.2977  0.0185
14000W        W30474   6.739  17.589  11.986 -0.0344 -0.0192  0.2446
14001W        W30475   9.519   5.283   5.136 -0.0355  0.0365 -0.0728
14002W        W30476  17.100  15.427   3.456 -0.0971 -0.2878 -0.0284
14003W        W30477   1.903   6.519  14.579  0.0311 -0.4453  0.2261
14004W        W30478   8.669   1.371  12.697  0.2152 -0.0871 -0.0077
14005W        W30479   3.640   0.702   4.763  0.0385  0.6024 -0.2073
14006W        W30480   8.635   8.466  15.545 -0.1025  0.1531 -0.1190
14007W        W30481  13.202   4.028  12.297 -0.2286  0.0853 -0.0495
14008W        W30482  11.670   3.677  13.375  0.0744 -0.0607 -0.1206
14009W        W30483  11.463   5.553   4.859 -0.0206  0.0534  0.2750
14010W        W30484   8.354   2.938  13.954  0.3344 -0.1723  0.3255
14011W        W30485   9.725   4.962   3.700 -0.1887 -0.1368 -0.2332
14012W        W30486   0.667   8.450  10.907  0.1235  0.0053 -0.1712
14013W        W30487   6.031  10.476  11.421  0.2298  0.1654  0.1665
14014W        W30488  15.348   4.897   0.287 -0.0979  0.1771 -0.1932
14015W        W30489   3.526   2.122   0.936 -0.3346  0.0648  0.0432
14016W        W30490   6.927  12.958  11.490  0.0628  0.2218 -0.1565
14017W        W30491  16.335   7.317   0.706  0.2765 -0.0987 -0.1275
14018W        W30492  14.419   2.849   1.475  0.3753 -0.2240  0.2444
14019W        W30493  11.158   7.553  12.892  0.1643 -0.1166 -0.0430
14020W        W30494   8.573   0.992  15.394  0.0583 -0.3955  0.0062
14021W        W30495   8.386  13.888  13.050  0.4973 -0.0603  0.0829
14022W        W30496  16.035  11.898  15.501 -0.0364 -0.0516 -0.1613
14023W        W30497  10.278   6.054   1.183 -0.1931  0.0214  0.0570
14024W        W30498   2.535   7.251  12.226 -0.2115  0.1144  0.0433
14025W        W30499   3.102   7.248   3.292 -0.2481 -0.1170 -0.2269
14026W        W30500  11.302   8.011   3.819 -0.0379 -0.3269  0.0182
14027W        W30501   1.209   8.509  14.790 -0.3254 -0.0195 -0.0573
14028W        W30502   4.535   9.244   0.542 -0.1403  0.0978 -0.2811
14029W        W30503  16.351  10.158   3.199  0.1596 -0.2854  0.0758
14030W        W30504  15.354   4.743   1.604  0.1133 -0.3407  0.2497
14031W        W30505  15.317  12.781   1.159 -0.3249 -0.2960  0.2287
14032W        W30506  16.095  14.277  12.790 -0.0423  0.0046  0.2389
14033W        W30507   0.349   2.155   1.705  0.0592 -0.0492 -0.3569
14034W        W30508  10.223  14.405  12.279  0.2229 -0.1870  0.1371
14035W        W30509   7.567   9.391  12.081  0.0617  0.1967 -0.3609
14036W        W30510  11.324   5.848   0.211 -0.0928 -0.0967  0.0284
14037W        W30511  12.887   0.101  14.060  0.0418 -0.0817  0.0686
14038W        W30512   7.240   9.601  11.271 -0.0063  0.0345 -0.1749
14039W        W30513   1.910  10.708  12.188  0.2829 -0.1867 -0.0737
14040W        W30514   8.509   3.182   3.128 -0.3202  0.1001  0.2328
14041W        W30515   5.679  12.391  11.887  0.0096  0.2259 -0.0364
14042W        W30516   7.702   1.023  10.626 -0.1084  0.0765  0.0565
14043W        W30517   6.888   4.703  15.454 -0.1207  0.0256  0.0885
14044W        W30518   0.404  11.038   5.171  0.4227  0.0407  0.0977
14045W        W30519  15.728  12.879  12.647  0.1424 -0.2658  0.0540
14046W        W30520  17.405   5.577   2.021  0.0830 -0.0161  0.2432
14047W        W30521   4.140   4.767   5.299  0.3041  0.1624 -0.0420
14048W        W30522   4.918  12.359  12.823  0.2638 -0.1305 -0.3261
14049W        W30523  15.547   5.634  13.866  0.3718  0.0347 -0.1468
14050W        W30524   1.746  12.152  12.075  0.1608 -0.2084 -0.0950
14051W        W30525   5.513  12.016  12.240  0.0978 -0.1623 -0.1490
14052W        W30526  18.733  10.452  15.286  0.0679 -0.2811  0.2092
14053W        W30527  11.229  14.537  11.020 -0.2294 -0.0414  0.2330
14054W        W30528  12.793   9.086   4.456  0.1443  0.2376 -0.1074
14055W        W30529  14.794  12.070   2.014  0.2476 -0.0863 -0.0690
14056W        W30530   1.222  15.191  15.345 -0.0111  0.0130  0.1072
14057W        W30531  16.356  15.337  11.381 -0.2779  0.1104 -0.1594
14058W        W30532  16.583  13.237   3.050  0.1077  0.0068  0.1660
14059W        W30533  11.943   3.208  12.146  0.0537  0.0586 -0.0679
14060W        W30534  12.279   6.897  10.466 -0.1752  0.0133 -0.1981
14061W        W30535   7.940   2.585  14.423  0.2604 -0.0752  0.1735
14062W        W30536   9.679  14.555  15.062  0.0797  0.2229  0.0274
14063W        W30537   2.901   7.128  11.333  0.3602 -0.0833  0.1069
14064W        W30538  16.425   8.277  12.222 -0.0420 -0.0489  0.0640
14065W        W30539  14.749  16.582  11.271 -0.0796 -0.0296 -0.2409
14066W        W30540  11.936  14.546  10.214  0.0557 -0.2574 -0.1685
14067W        W30541  13.092   2.832  14.720 -0.2352  0.0741  0.1904
14068W        W30542   7.182  12.140   1.976  0.2250  0.1654 -0.0827
14069W        W30543   6.181  13.232   0.213  0.0160 -0.0141 -0.0715
14070W        W30544  14.515  10.394   2.954 -0.1124  0.1817  0.2160
14071W        W30545   8.506  16.660  14.623 -0.1660 -0.0201 -0.1038
14072W        W30546  12.300   9.676  13.007  0.2714  0.1033 -0.0173
14073W        W30547  13.869   4.617   3.809 -0.0315  0.0685  0.1719
14074W        W30548   2.920   2.034   1.620 -0.0832 -0.1505  0.1490
14075W        W30549  14.436  13.508   5.849 -0.4370 -0.2304  0.0469
14076W        W30550   2.812   6.981  13.377 -0.0257  0.0476 -0.1174
14077W        W30551  16.421  14.298  13.912  0.0688 -0.0010  0.1949
14078W        W30552   5.137  14.134   0.614 -0.0189  0.0674 -0.3528
14079W        W30553   8.799  17.431  14.782  0.0299  0.1832  0.1255
14080W        W30554  13.608  13.347  13.678  0.3746 -0.4363 -0.1500
14081W        W30555   5.401   0.250  13.749 -0.3255  0.3215 -0.0029
14082W        W30556   4.773  15.921  10.207 -0.1117 -0.3288 -0.0603
14083W        W30557  18.004   5.485  12.969  0.1545 -0.1051 -0.1018
14084W        W30558  15.522  14.880  12.366 -0.2400  0.1675 -0.0715
14085W        W30559   8.994   3.589  14.089 -0.0496 -0.3786  0.0207
14086W        W30560  17.323  15.492   0.377 -0.2168  0.1392 -0.3234
14087W        W30561   8.979  13.160  14.219 -0.2800 -0.1517 -0.0112
14088W        W30562   7.900   0.053   3.979 -0.1301  0.0024  0.0026
14089W        W30563  12.500  17.911  14.643  0.0971  0.0415  0.0843
14090W        W30564  10.300   3.800   4.403  0.0281 -0.0809 -0.5214
14091W        W30565  13.099   0.432  12.500  0.1703  0.2581 -0.0475
14092W        W30566   3.622  14.464  13.511  0.2117 -0.1149  0.1945
14093W        W30567   0.143  17.730  12.532  0.0613  0.0560  0.1285
14094W        W30568  14.150   4.802  15.367  0.1302  0.0202 -0.0311
14095W        W30569  18.469   2.758  14.751 -0.0888 -0.3808  0.1024
14096W        W30570   4.049  15.731  14.610  0.0086  0.1860  0.0006
14097W        W30571   4.187   7.465   5.127  0.1160  0.1521 -0.1122
14098W        W30572   6.225   9.937  10.533  0.1782  0.1823 -0.4330
14099W        W30573   1.141  18.462  13.060 -0.2442  0.0151 -0.2363
14100W        W30574  12.089  11.570  10.488  0.2087  0.1245  0.3442
14101W        W30575  11.471  16.358   2.066 -0.0365  0.0784 -0.0500
14102W        W30576  10.617  17.175   2.935  0.1371  0.2367 -0.0845
14103W        W30577  14.037  12.184   3.923 -0.2018  0.0596 -0.0627
14104W        W30578  18.564  10.532   1.148 -0.1168  0.0981  0.1677
14105W        W30579   0.518   5.714   1.793  0.0994  0.0849  0.2062
14106W        W30580  11.456   4.116  11.628 -0.3631 -0.0517 -0.3113
14107W        W30581  17.232  16.430  14.881 -0.1959 -0.0813  0.4291
14108W        W30582  17.010   1.032   3.598  0.0960  0.1627 -0.0883
14109W        W30583  13.780  11.811   1.981  0.2236  0.2542 -0.3367
14110W        W30584  11.450   0.938   4.016  0.1072  0.0304 -0.1905
14111W        W30585  14.658   4.303  12.914 -0.3206  0.1167 -0.0730
14112W        W30586   5.459   6.896   1.246 -0.0870 -0.0584  0.2779
14113W        W30587   8.029   3.918   2.708 -0.0002  0.0304  0.0170
14114W        W30588   1.558   0.937   1.641 -0.0788  0.0639  0.0053
14115W        W30589   5.501   6.476  13.216  0.0091  0.0370 -0.2568
14116W        W30590  10.951   0.052  13.256  0.3317  0.2143 -0.1909
14117W        W30591  16.094  11.233   3.085 -0.2918 -0.0297 -0.1086
14118W        W30592  10.659   5.606  12.741 -0.2324  0.1226 -0.2939
14119W        W30593  14.495  15.431  10.720 -0.0261  0.0234 -0.0652
14120W        W30594   9.540   4.690   0.276  0.0185 -0.0341 -0.2248
14121W        W30595  17.140   5.835  12.552 -0.0767 -0.1724 -0.1411
14122W        W30596  15.794   0.461  12.264 -0.0889 -0.0755  0.2443
14123W        W30597  14.635   6.948  12.476  0.0516  0.1568  0.1476
14124W        W30598   1.361  11.489   0.844 -0.0482  0.4255 -0.6460
14125W        W30599  14.419   1.057   3.404 -0.0891 -0.0794 -0.1281
14126W        W30600   5.532   9.106  13.404 -0.0995 -0.1603  0.4311
14127W        W30601   2.078  15.815   2.697 -0.0765 -0.1272 -0.0841
14128W        W30602   8.325   3.326  12.727  0.2298  0.0805  0.0767
14129W        W30603  11.207  14.415  14.136  0.2335  0.0685 -0.1297
14130W        W30604   5.935   5.306   3.844  0.0055  0.3650 -0.2274
14131W        W30605   7.326   7.172  11.692  0.1235  0.1709  0.3303
14132W        W30606   6.121   5.819   0.992  0.2622 -0.2729  0.1368
14133W        W30607   4.082   8.115   2.548 -0.1267 -0.1101  0.2068
14134W        W30608  17.113   8.601   3.697 -0.0131 -0.0515 -0.0482
14135W        W30609  15.189   7.241  14.401 -0.0948 -0.4158  0.5715
14136W        W30610  12.585   3.477   3.016 -0.2497  0.1930 -0.0175
14137W        W30611   7.764   3.982   0.519  0.0879 -0.0236  0.1450
14138W        W30612   6.460   5.898  10.993 -0.0064  0.0342  0.0179
14139W        W30613   4.531   2.985  13.806 -0.1638  0.2335  0.0598
14140W        W30614   6.423   4.666   3.872 -0.1093  0.1637 -0.0787
14141W        W30615   7.209  17.273   4.486 -0.0102 -0.3136 -0.2815
14142W        W30616   9.305  11.565   4.374  0.1005 -0.1995  0.0997
14143W        W30617   2.552  17.424  11.011  0.0020 -0.3402  0.0431
14144W        W30618   4.809  17.943   3.730 -0.0755  0.0769 -0.2405
14145W        W30619  12.488   0.233  11.669  0.0839  0.0098  0.0298
14146W        W30620   2.155   6.949  11.912 -0.0104 -0.0223  0.1461
14147W        W30621   2.724   2.603   2.827  0.0873 -0.0878  0.1034
14148W        W30622   0.840  18.456  12.193 -0.0836  0.2468  0.3800
14149W        W30623   4.512   8.219   2.156  0.0376 -0.1706  0.2552
14150W        W30624   2.856   0.894   4.663 -0.3047 -0.0260  0.1694
14151W        W30625  11.883  14.310   3.561  0.0074  0.1543 -0.1437
14152W        W30626   8.603   9.304  13.215  0.2755  0.3137  0.1354
14153W        W30627  18.189  12.188  12.085 -0.0846 -0.2308 -0.0750
14154W        W30628  10.033  12.743   3.788  0.1906 -0.0317 -0.3100
14155W        W30629   4.582   3.300   2.000  0.2737  0.0412  0.0225
14156W        W30630   0.859   8.969  13.812 -0.1067 -0.3233 -0.0188
14157W        W30631   2.633  12.517   2.626  0.0200 -0.1762 -0.0168
14158W        W30632  13.325   0.895   3.756 -0.3757 -0.0197 -0.2465
14159W        W30633  13.501   5.364  15.491 -0.1843  0.0528  0.0296
14160W        W30634  11.898  12.332   1.497 -0.1195  0.0607  0.0198
14161W        W30635   8.958  15.270  12.407 -0.2388 -0.0451  0.2312
14162W        W30636   6.936   4.906   3.985 -0.1442 -0.0578 -0.0731
14163W        W30637  13.350  18.523   3.801 -0.1004 -0.2217 -0.0558
14164W        W30638  10.646   2.921  13.952  0.0133  0.0658 -0.0290
14165W        W30639   1.587  18.170   2.566 -0.0239  0.0216  0.0903
14166W        W30640  16.901   4.293  14.984 -0.1475  0.1414  0.0301
14167W        W30641   0.885   7.042  14.822  0.0328 -0.0646  0.0760
14168W        W30642  11.372  14.323   0.304 -0.1078 -0.0542 -0.1024
14169W        W30643  14.980  12.445   5.943  0.2191  0.3376 -0.1556
14170W        W30644   8.052   6.787  13.585  0.1148 -0.0783  0.1869
14171W        W30645   1.948  10.463   2.335  0.0471 -0.2394 -0.0436
14172W        W30646   6.933   0.811   3.251  0.0860 -0.2727  0.3127
14173W        W30647  17.238  11.000   3.075  0.2913  0.0551  0.1317
14174W        W30648  13.888   6.252   5.852 -0.3497  0.1513  0.1150
14175W        W30649  17.755   6.565  15.169  0.0209  0.3000 -0.0595
14176W        W30650  13.809  14.128   0.231 -0.3196  0.0337  0.0146
14177W        W30651   0.844  13.504   1.247 -0.1110 -0.0875  0.0800
14178W        W30652  10.329  11.005  15.144 -0.2321 -0.1533 -0.1194
14179W        W30653   0.151   9.786   2.869 -0.0208 -0.1540  0.0391
14180W        W30654   6.913  12.497   2.459 -0.1602 -0.3786  0.2560
14181W        W30655  11.598  10.207  15.196 -0.0568  0.0893 -0.1980
14182W        W30656   3.067   4.046  11.796  0.0058 -0.0346 -0.0574
14183W        W30657   7.060   9.340  12.329 -0.0904  0.0825  0.2145
14184W        W30658  11.494   7.134   0.766 -0.3470  0.1732  0.1531
14185W        W30659  10.400   3.261   2.107 -0.0481  0.0016  0.0079
14186W        W30660   0.958  11.996   2.436  0.1632  0.2458  0.4025
14187W        W30661  15.934  11.959   1.249 -0.1881 -0.0877  0.0878
14188W        W30662  12.793   0.149   4.211  0.0984 -0.2147 -0.0368
14189W        W30663  16.878   5.383  11.688  0.2096  0.2155  0.3770
14190W        W30664  16.318  12.699   3.484 -0.3006  0.0624 -0.2572
14191W        W30665   4.918  12.938   3.276  0.1101 -0.1037  0.0453
14192W        W30666   5.396  13.209  14.672 -0.2349  0.1258  0.3921
14193W        W30667   6.446   4.961   2.600 -0.1189  0.1070  0.0798
14194W        W30668   6.430   4.891   1.776  0.1788 -0.4050  0.0899
14195W        W30669  17.832  13.584   1.926  0.0446  0.0889  0.1564
14196W        W30670   4.075  11.744   1.690  0.0116 -0.1791 -0.2761
14197W        W30671   1.659  14.826   2.113  0.1567 -0.1402 -0.0600
14198W        W30672   3.884   1.327  12.761 -0.5527  0.0037  0.1706
14199W        W30673   5.063   0.906   2.019 -0.1516  0.0735 -0.0573
14200W        W30674   8.853  15.271   5.120  0.0183 -0.0604 -0.2152
14201W        W30675   0.945  10.618  14.432 -0.0265  0.0108 -0.2222
14202W        W30676   0.842   5.253  13.400  0.2391  0.1308 -0.0515
14203W        W30677   2.918  16.176  13.529 -0.2265 -0.2995  0.2634
14204W        W30678   4.337  10.435  12.647 -0.0807  0.1971 -0.0830
14205W        W30679   7.051  13.598  13.432  0.0273  0.2045 -0.1611
14206W        W30680  12.158  17.725   4.832  0.1141 -0.0785 -0.2034
14207W        W30681  12.904   8.200   3.301  0.0775 -0.4114  0.0413
14208W        W30682   1.585  17.752   1.701  0.2089  0.1279 -0.3419
14209W        W30683  17.427   7.414  12.611 -0.0603  0.0801  0.2279
14210W        W30684   5.741   4.372   1.493  0.0669  0.2535 -0.0588
14211W        W30685   4.669   0.530   4.135  0.1484 -0.1493 -0.1479
14212W        W30686  15.322   7.972  11.528 -0.3122  0.2300  0.2182
14213W        W30687   7.368  10.540   1.613 -0.2969 -0.1226 -0.0845
14214W        W30688   4.909  16.893  10.254 -0.0221  0.1296  0.4514
14215W        W30689   8.240   1.251  13.507  0.1550 -0.2339  0.1446
14216W        W30690  17.222  12.201  12.472  0.1260 -0.1509  0.0722
14217W        W30691  13.771  14.252   0.732  0.1000  0.0977  0.3435
14218W        W30692   3.904   3.506  14.098  0.0174  0.2181 -0.1180
14219W        W30693   9.061  13.163   1.646 -0.4176 -0.1155 -0.3473
14220W        W30694   3.638   3.185   2.781  0.1632 -0.1806  0.1139
14221W        W30695  12.598   5.445  11.938  0.0966 -0.0670  0.0677
14222W        W30696   8.018  16.580   0.116  0.0008 -0.2208  0.2094
14223W        W30697   4.967   5.797   2.044 -0.0976 -0.1381  0.0367
14224W        W30698   2.102  18.663  14.260 -0.3970 -0.0790 -0.0893
14225W        W30699   2.657   7.881   2.543  0.0978  0.2300 -0.0910
14226W        W30700   7.572  10.335   3.604 -0.0877 -0.0582  0.1861
14227W        W30701  18.262   7.226   1.580  0.1865  0.1248  0.1573
14228W        W30702   0.411   8.808  13.664  0.1335  0.5161  0.0450
14229W        W30703   4.386   6.063   3.035  0.3410 -0.0243  0.0347
14230W        W30704  12.832   2.673  13.900 -0.0540 -0.2741 -0.0627
14231W        W30705  10.582  15.199  12.473 -0.6114 -0.0590  0.1287
14232W        W30706   9.403   8.015   4.546  0.0428 -0.2744  0.3285
14233W        W30707   8.287  10.905   2.943  0.0632  0.2750 -0.1050
14234W        W30708   6.757   6.472  12.741 -0.1117 -0.2020  0.3090
14235W        W30709   3.494   3.417  14.947 -0.0981  0.1856 -0.2224
14236W        W30710  10.840  14.312  13.239  0.1677 -0.2141  0.0970
14237W        W30711  10.752   1.609  13.415  0.2156  0.0102  0.2554
14238W        W30712  10.167   6.982  11.983  0.1268  0.0721  0.1463
14239W        W30713  10.740  11.222   5.084 -0.0584  0.1587 -0.0664
14240W        W30714   4.120   5.848   3.513  0.4218  0.1498  0.0452
14241W        W30715   2.753  16.623  10.307 -0.2568 -0.1658 -0.0317
14242W        W30716   3.950  18.232  13.898 -0.0190  0.0395 -0.1934
14243W        W30717   4.937   5.484   1.713  0.1460  0.0565 -0.1220
14244W        W30718   6.140   2.459   0.202  0.1797 -0.1223  0.0213
14245W        W30719  14.316  11.151  13.501 -0.2121  0.0264  0.0933
14246W        W30720  10.015  15.878   5.554  0.2800  0.2927 -0.3045
14247W        W30721  17.934  11.488   2.416  0.2294  0.2152  0.0571
14248W        W30722   2.117   9.521  14.520 -0.1749 -0.2169  0.1045
14249W        W30723   2.107   9.779   1.441 -0.1824  0.0323 -0.2736
14250W        W30724  12.106  12.892   2.899  0.0996 -0.0044 -0.0706
14251W        W30725  13.332  14.791  13.275  0.0830  0.2159  0.1426
14252W        W30726  16.565  16.911  12.159  0.0810  0.3377 -0.0435
14253W        W30727   3.988   9.417   1.212  0.0859  0.2251 -0.3840
14254W        W30728   3.273  11.386   3.837 -0.2618 -0.2064  0.2700
14255W        W30729  12.827   3.793  10.973  0.3585  0.0085 -0.2001
14256W        W30730   1.853  11.565  15.522 -0.1333 -0.1655 -0.0937
14257W        W30731  12.461   6.787   0.337 -0.1508 -0.0291 -0.1929
14258W        W30732   8.504   0.137  12.173  0.0129  0.0080  0.2529
14259W        W30733   2.760   4.634   0.439 -0.0639 -0.1174 -0.0870
14260W        W30734   1.369  14.671  11.974  0.0136 -0.3015 -0.3236
14261W        W30735  14.903   0.275   0.512  0.1889 -0.1754  0.1034
14262W        W30736  14.782   7.702  10.781  0.3717  0.1966 -0.2518
14263W        W30737   0.565  18.376   4.666  0.1860 -0.2164  0.1051
14264W        W30738  12.090  11.395   0.807 -0.0756  0.3705 -0.4039
14265W        W30739   4.337  13.418   2.333  0.1848 -0.0573  0.1631
14266W        W30740  11.330  14.384  15.263  0.3038 -0.0309 -0.1714
14267W        W30741   9.111  18.054  12.716  0.0189  0.0967  0.2337
14268W        W30742   6.423  13.184  15.173  0.1479  0.0913 -0.1156
14269W        W30743   8.389   3.675   3.157  0.0526 -0.2231 -0.3503
14270W        W30744  11.676  14.509   2.996  0.1216 -0.1867 -0.0274
14271W        W30745   7.299   3.766  10.733 -0.0186 -0.0760 -0.2216
14272W        W30746   9.915  14.615   3.788  0.0152  0.3306  0.4187
14273W        W30747  10.405  16.787  13.839 -0.1061 -0.2539 -0.0217
14274W        W30748  13.313  11.986   1.980  0.3447  0.1043  0.0856
14275W        W30749  12.910   7.247  12.123 -0.0529  0.0923 -0.2402
14276W        W30750   2.162  11.050  14.856  0.0049 -0.0769 -0.3094
14277W        W30751  15.982  13.050  15.179 -0.1296  0.2628  0.1480
14278W        W30752   2.086   8.274  11.006 -0.0917 -0.1369  0.4247
14279W        W30753   0.678  12.814  13.017  0.2340  0.2866 -0.1774
14280W        W30754  16.905   5.583   1.888 -0.1706 -0.0225 -0.5166
14281W        W30755  12.138   4.337   0.740 -0.1744  0.1093  0.2592
14282W        W30756  15.180  10.168   2.565 -0.0787  0.1080 -0.1286
14283W        W30757   8.866   2.326   5.552  0.1437 -0.0870 -0.0758
14284W        W30758  12.475  16.648   5.511  0.2041  0.1449 -0.4083
14285W        W30759   7.034   3.923  12.159  0.0813  0.2540 -0.2835
14286W        W30760  17.319  17.547  12.996  0.1412 -0.4745 -0.1602
14287W        W30761  16.573  15.561   2.544  0.0340  0.0680 -0.0671
14288W        W30762   0.090   8.833   0.728 -0.2350  0.2539 -0.2284
14289W        W30763  13.259  15.050   2.077  0.2528  0.0498  0.0680
14290W        W30764  10.675  13.813   1.100 -0.3429 -0.1239 -0.0909
14291W        W30765  10.128  16.417   1.041  0.2226  0.0887 -0.1038
14292W        W30766   3.046  11.248   2.528  0.1562 -0.0706  0.0814
14293W        W30767   8.054   1.031  14.011 -0.0015 -0.0667  0.1838
14294W        W30768  18.460  15.944  10.580  0.4565  0.0268 -0.1954
14295W        W30769   4.365   9.192  11.522  0.4251 -0.1256 -0.1261
14296W        W30770  10.842   1.583   0.499  0.0000 -0.0840 -0.1097
14297W        W30771  15.041  18.433   2.522 -0.0875  0.0470  0.3088
14298W        W30772   5.216   3.291  15.335 -0.2253  0.0514 -0.0297
14299W        W30773  15.675   2.449  10.678  0.0239 -0.0163 -0.0879
14300W        W30774  12.239   6.873   3.082  0.1027  0.0185  0.0012
14301W        W30775   3.116   0.055  12.853  0.1772 -0.2412 -0.0566
14302W        W30776   2.117  12.983  14.476  0.0652 -0.3995 -0.1392
14303W        W30777   3.484   4.347   4.676 -0.0986  0.1077  0.3876
14304W        W30778   7.776  13.727   3.541  0.1490 -0.3217  0.0248
14305W        W30779   3.929   1.818   2.226 -0.1497 -0.2738  0.1765
14306W        W30780   2.617  18.686  12.769 -0.1352  0.0118 -0.1718
14307W        W30781  14.534  16.610   2.494 -0.1795  0.0021 -0.2117
14308W        W30782  16.404   1.279  12.636  0.1205  0.0603 -0.0790
14309W        W30783  12.835   6.539   1.540 -0.0807 -0.0049 -0.1147
14310W        W30784  18.514   2.585  11.831  0.1763  0.3105 -0.2085
14311W        W30785  15.559   7.573   1.995 -0.2097  0.2049 -0.1091
14312W        W30786  13.030  15.300   3.968 -0.2821  0.4412  0.1585
14313W        W30787   3.162  10.527  12.727  0.0330 -0.0069  0.0716
14314W        W30788  14.772   3.617  12.464 -0.0790  0.0029  0.1597
14315W        W30789   4.233   5.311   3.295  0.3223  0.0763 -0.1278
14316W        W30790  12.595  11.360  11.945 -0.1264  0.0801 -0.0311
14317W        W30791   0.395   9.224   4.647 -0.1484  0.2880  0.0958
14318W        W30792  14.537   5.653  14.350 -0.2149  0.1528 -0.0269
14319W        W30793  10.353   9.084  14.225  0.0428 -0.0401 -0.3085
14320W        W30794   4.344   0.839  10.096  0.1574  0.0471 -0.0295
14321W        W30795  12.459   5.948  14.172 -0.2254 -0.2979  0.2197
14322W        W30796   0.019  15.003  11.606  0.1283  0.1255  0.2072
14323W        W30797  10.930  10.190  11.233  0.2162 -0.1028 -0.1197
14324W        W30798  12.198  15.629  13.401 -0.3388 -0.0733 -0.0215
14325W        W30799   2.901  10.299  12.300  0.1827 -0.0134  0.0824
14326W        W30800   8.067   6.303  15.027 -0.1029 -0.0565  0.0413
14327W        W30801  15.793   0.476  12.729 -0.1146  0.0968 -0.1428
14328W        W30802  14.517   1.863   3.869 -0.1180  0.0856 -0.0875
14329W        W30803  17.189  14.433   0.032 -0.3036 -0.0064  0.1380
14330W        W30804  16.343   0.997  11.139 -0.2756 -0.1966 -0.3929
14331W        W30805  10.176   1.523  11.749 -0.2548 -0.0824  0.3154
14332W        W30806   6.455   8.729  12.855 -0.2387 -0.0963 -0.0533
14333W        W30807  17.110  10.128  11.411 -0.0510 -0.2185  0.3385
14334W        W30808  11.736  17.539   1.936  0.2528  0.2186 -0.4030
14335W        W30809   3.805   1.132  13.617  0.0037 -0.1326  0.5010
14336W        W30810   8.637   6.176   4.531 -0.2715 -0.1230 -0.0179
14337W        W30811  14.648  11.193  15.363  0.2606  0.0646  0.0099
14338W        W30812   6.805  13.571   4.192  0.0427  0.3474 -0.2561
14339W        W30813   3.481   8.973   0.697  0.0420 -0.1134  0.0080
14340W        W30814   7.516   2.404  14.773 -0.0099  0.1019 -0.1294
14341W        W30815   8.576  17.560   4.656  0.0534  0.1085 -0.2404
14342W        W30816   7.841  12.863  12.431 -0.3192 -0.1335 -0.0942
14343W        W30817   0.715  12.856   3.476  0.1555 -0.0766 -0.1912
14344W        W30818   8.653   6.301  15.224  0.2128 -0.2649  0.0022
14345W        W30819   5.773  11.035   1.657  0.1602  0.0339 -0.0827
14346W        W30820   2.137  14.945  12.623 -0.0033 -0.2755 -0.0208
14347W        W30821  17.178   4.702   5.030  0.2573  0.0384  0.2246
14348W        W30822   2.547   3.077  14.612  0.0554 -0.1445  0.0541
14349W        W30823   7.619  18.378  10.948  0.2261  0.1454  0.3740
14350W        W30824  14.371  13.635  10.276  0.1407 -0.1169 -0.0299
14351W        W30825   5.500   4.968  14.387 -0.1357 -0.1550 -0.0705
14352W        W30826   6.974   3.179   9.582 -0.0631 -0.1510  0.0719
14353W        W30827  13.989   0.783   5.060 -0.3938 -0.1782 -0.1133
14354W        W30828  15.309   4.735  14.437  0.1112 -0.1647  0.0310
14355W        W30829  10.887   6.156   5.354 -0.0228  0.1639  0.2024
14356W        W30830  11.028   7.935  13.229 -0.0016  0.0910  0.0623
14357W        W30831   0.792  10.709  13.432  0.2286 -0.0319 -0.1755
14358W        W30832  13.675  18.720   5.218 -0.1398  0.3816 -0.0977
14359W        W30833   8.879   3.202  10.558  0.0493  0.2016  0.2342
14360W        W30834  12.928  12.977  12.682 -0.2215  0.1421 -0.2240
14361W        W30835  10.275   7.466  11.960 -0.1671  0.0546  0.1138
14362W        W30836   6.618  12.656  15.122 -0.0103  0.1131  0.0830
14363W        W30837  13.500  16.457  14.349 -0.1045  0.1540  0.1028
14364W        W30838   0.650   5.455   0.683  0.0111  0.2155 -0.0016
14365W        W30839   2.626   9.030   1.935  0.0258  0.1997 -0.0083
14366W        W30840   4.898   3.932  12.102  0.0637 -0.0981  0.2240
14367W        W30841  13.970  12.629  14.004  0.0630  0.0082 -0.2515
14368W        W30842   5.627  14.786   2.948 -0.0118  0.0302 -0.1541
14369W        W30843   0.090  11.617   1.176 -0.0817  0.2275 -0.3047
14370W        W30844   3.391   0.952   2.754  0.1756  0.3101 -0.0635
14371W        W30845  13.278   9.762  14.326 -0.0001  0.0985  0.1610
14372W        W30846   4.339  13.365   0.353  0.0116  0.0261  0.1932
14373W        W30847   2.472   6.379   2.183  0.0906 -0.3095  0.1254
14374W        W30848   9.895  13.665   2.213  0.0334 -0.0318 -0.0293
14375W        W30849   2.281  11.968   0.603  0.1028  0.2490  0.1775
14376W        W30850   4.832  17.707  13.604 -0.0003  0.2382  0.1204
14377W        W30851  14.306   8.358  14.273  0.0728 -0.1159  0.1149
14378W        W30852   6.043  17.095   4.526 -0.0309  0.5358  0.5800
14379W        W30853   4.744  12.436   4.408  0.0355 -0.0953  0.0066
14380W        W30854  15.092   1.714  14.887 -0.3261 -0.2371  0.0780
14381W        W30855  18.270  12.487   2.496 -0.0499  0.4474 -0.3971
14382W        W30856  14.648   5.986  12.954  0.0046  0.1721  0.1517
14383W        W30857   6.856  18.574   0.435  0.0516 -0.3626 -0.2538
14384W        W30858  11.294  10.181  12.490 -0.1369  0.2356 -0.1179
14385W        W30859   6.297  18.483  14.677 -0.1005 -0.3679  0.2367
14386W        W30860  11.324   8.721   0.945 -0.1127 -0.0767  0.0245
14387W        W30861   7.089  13.964  12.495 -0.1259 -0.0991  0.1213
14388W        W30862   8.382   1.824  12.024 -0.7251 -0.1417 -0.0432
14389W        W30863  12.152   8.847  12.005  0.2441 -0.2254 -0.1794
14390W        W30864  18.577   1.036  12.689 -0.0401  0.1304  0.0394
14391W        W30865   6.205  11.385  15.515 -0.1506 -0.0387  0.0296
14392W        W30866  17.221   8.735  12.299  0.1116 -0.0061  0.0461
14393W        W30867   0.304   7.407   1.726  0.3016  0.0526 -0.1243
14394W        W30868   3.119  10.174  13.713  0.5179  0.0323 -0.4367
14395W        W30869   6.658  13.287   0.481 -0.3292  0.2510  0.1014
14396W        W30870  14.510   4.729  10.978  0.0228  0.0523 -0.1791
14397W        W30871   7.079   0.431   4.261 -0.1674 -0.1616  0.2223
14398W        W30872   5.829   6.032   1.779 -0.0654  0.2433 -0.2434
14399W        W30873   4.623  10.103  11.429  0.0786  0.0928  0.1824
14400W        W30874   1.661   6.707  12.884 -0.0874  0.0690 -0.0506
14401W        W30875  17.560  11.299  14.616  0.0389  0.2508  0.0378
14402W        W30876  15.639   5.540   4.230 -0.0591  0.0533  0.0168
14403W        W30877   7.406   1.592  12.452 -0.0849 -0.1093 -0.0419
14404W        W30878  16.096   5.527   4.740 -0.0007  0.0449  0.0097
14405W        W30879  10.637  15.918   1.884 -0.0889  0.1432 -0.3211
14406W        W30880  11.185   1.508  13.778  0.0043 -0.0434  0.4533
14407W        W30881   0.409   7.547  11.577  0.1875 -0.0261 -0.1608
14408W        W30882  18.085  16.149  14.877  0.1587 -0.1448 -0.0718
14409W        W30883  13.054  14.344   2.821 -0.1693  0.2715 -0.0275
14410W        W30884   2.706   8.837  10.953  0.0909  0.0428 -0.4394
14411W        W30885  12.197   9.488  11.396  0.1999 -0.0382 -0.1082
14412W        W30886   2.887   3.668   3.194 -0.2962 -0.1693  0.4822
14413W        W30887   5.423   3.912  10.770 -0.4101  0.0021 -0.1860
14414W        W30888   8.699   6.277   0.571 -0.0021 -0.0012  0.2759
14415W        W30889   8.892  18.470  15.041  0.1241 -0.0579 -0.0133
14416W        W30890   8.739   6.082  11.869 -0.0115  0.0184 -0.1488
14417W        W30891  10.199   4.736   3.691  0.0208  0.1198 -0.0436
14418W        W30892   4.750   1.108   1.707 -0.0721  0.1049  0.0355
14419W        W30893  11.074  12.021  12.548 -0.0125  0.3694  0.1007
14420W        W30894   8.042  10.651   0.902 -0.1567 -0.1677 -0.1644
14421W        W30895   1.534   5.118   3.432 -0.2069 -0.1429  0.0229
14422W        W30896   3.779   7.074  11.232 -0.1593 -0.2959  0.0775
14423W        W30897   3.766   8.992   1.144 -0.3678 -0.3141  0.0892
14424W        W30898   8.627   3.630  14.476  0.0281 -0.0138  0.3252
14425W        W30899   5.410  16.917   2.653  0.0725  0.0194  0.1464
14426W        W30900   9.884   1.828  13.059 -0.0344  0.0813 -0.5541
14427W        W30901  17.098  15.604   5.564 -0.0969 -0.1089 -0.1356
14428W        W30902   8.012   4.283   3.524 -0.0906  0.3822 -0.0781
14429W        W30903  15.983   0.020  14.486  0.0193  0.0033  0.0355
14430W        W30904   5.447   8.638   4.201 -0.0655 -0.0815 -0.0383
14431W        W30905   2.127   2.468   1.233 -0.0464 -0.4056  0.0649
14432W        W30906  15.470  12.366   2.610  0.0904  0.1199 -0.1811
14433W        W30907  11.161  10.614  12.830 -0.2660 -0.1961 -0.0669
14434W        W30908   2.653   8.094  11.453  0.4282 -0.0377 -0.0019
14435W        W30909   4.037   4.154   3.528 -0.2407 -0.1258  0.4285
14436W        W30910  13.827   7.564   4.048 -0.0708  0.1592  0.1290
14437W        W30911  16.099  12.341   1.500  0.0046  0.1012  0.0055
14438W        W30912  11.434  10.312   0.531 -0.0568  0.0672  0.3701
14439W        W30913  10.407  10.002   2.339  0.0044  0.0944 -0.1797
14440W        W30914  18.565   9.677   2.532 -0.0179  0.1171  0.3379
14441W        W30915   3.150  18.055   3.058  0.1999  0.3021  0.1813
14442W        W30916   3.585  18.694   3.058 -0.0377 -0.2134  0.1822
14443W        W30917   3.958   6.835  11.859 -0.0701 -0.0444  0.0326
14444W        W30918  13.429  13.019  12.479 -0.0684  0.0030  0.2264
14445W        W30919   2.244   1.550   4.338  0.0131  0.4758  0.3137
14446W        W30920   8.581   1.135   3.616 -0.0163  0.1084  0.0966
14447W        W30921   8.844  11.521  13.343  0.0521 -0.0782 -0.0423
14448W        W30922  15.298   4.424   4.134  0.1164  0.5014  0.0182
14449W        W30923   3.665   5.401  10.857 -0.0975  0.2258 -0.0396
14450W        W30924  14.762  15.635   3.798 -0.0135 -0.0725  0.1992
14451W        W30925   1.369   7.791   2.547 -0.1897  0.2449 -0.0709
14452W        W30926   4.029  14.528  14.541  0.3048 -0.1663  0.0361
14453W        W30927  12.591  16.589  13.435 -0.1990 -0.2213 -0.0570
14454W        W30928   3.542  11.188  12.080  0.2516 -0.2671  0.0112
14455W        W30929  18.390   4.266   2.006 -0.0301 -0.2756 -0.0907
14456W        W30930  15.337  13.942   2.419 -0.0084  0.0463  0.0313
14457W        W30931  18.783   2.418  12.299  0.0818  0.2069 -0.1908
14458W        W30932   7.866   3.557   3.983 -0.0495  0.4616  0.1696
14459W        W30933  16.427   3.276  11.819  0.0951  0.0122 -0.0614
14460W        W30934   4.101   4.857   0.898  0.0556 -0.3577 -0.0317
14461W        W30935   0.119   5.706   3.813  0.2684 -0.4945  0.0720
14462W        W30936   8.751   5.579   2.269 -0.3383 -0.0835 -0.1428
14463W        W30937   8.372   3.063  15.110  0.0238  0.2899 -0.3948
14464W        W30938  13.165  11.515  12.713  0.0993 -0.0641 -0.0509
14465W        W30939  14.287   3.440   2.408 -0.1284 -0.2475  0.0120
14466W        W30940  17.660  15.168  13.550 -0.0026  0.4119 -0.1254
14467W        W30941   4.305  13.449  12.273  0.0811 -0.3288 -0.3865
14468W        W30942   4.932  11.103   3.650  0.1314  0.1448 -0.1157
14469W        W30943   1.787  15.253  15.230 -0.2331  0.2078 -0.0859
14470W        W30944   6.834   1.051   2.081 -0.3323  0.1177 -0.2237
14471W        W30945  15.648  12.192   3.112  0.1072  0.0702  0.0640
14472W        W30946   8.382  10.680  11.451  0.1223  0.2653  0.0262
14473W        W30947   2.870   6.354   0.740  0.0813 -0.2848 -0.1589
14474W        W30948   8.983  18.434   0.800 -0.1861  0.1933 -0.0798
14475W        W30949  15.504   3.971  12.734  0.0726  0.2905 -0.1260
14476W        W30950   7.650   5.479   2.974 -0.1733  0.1213 -0.0061
14477W        W30951   7.775  18.556   1.474  0.0977  0.3346 -0.0679
14478W        W30952  17.040  12.249  12.969 -0.0857  0.3600  0.0483
14479W        W30953  11.343  10.165   4.384  0.0462 -0.0577  0.2435
14480W        W30954   6.855  17.616   4.585  0.1391 -0.2360 -0.0676
14481W        W30955  14.776  16.232   2.752 -0.2802 -0.0099  0.2607
14482W        W30956  17.720   4.734   2.088 -0.0793  0.0514  0.0575
14483W        W30957   4.570  13.666   4.521 -0.6245 -0.1784 -0.2029
14484W        W30958  13.687   1.983  13.928  0.2850  0.1337  0.0184
14485W        W30959   3.348   1.998   5.158  0.0051 -0.0796 -0.0629
14486W        W30960   7.330  10.337   4.401 -0.2846  0.2929  0.0445
14487W        W30961   0.571  18.625   3.834 -0.0606  0.1131 -0.0876
14488W        W30962   7.749  13.330   4.340  0.0904  0.0295 -0.4079
14489W        W30963  13.287  18.404  12.015  0.0590 -0.3940 -0.0456
14490W        W30964  18.580   1.443  11.573  0.0442  0.0483  0.0439
14491W        W30965  10.812   7.405   3.255  0.1127 -0.0397 -0.0327
14492W        W30966   7.292  13.162   2.116 -0.3904  0.0626 -0.2057
14493W        W30967   0.899  12.746   1.019 -0.2744 -0.0820  0.2529
14494W        W30968   3.255  15.383  13.552  0.0035  0.2082 -0.1044
14495W        W30969  11.834   4.011  14.331  0.2350  0.2323  0.0190
14496W        W30970  15.146  12.126   1.656 -0.1104  0.0696 -0.1767
14497W        W30971   3.793   5.396  12.318 -0.5188  0.3653  0.0393
14498W        W30972  10.716  14.442  14.570  0.0217  0.1053  0.0631
14499W        W30973   1.244   9.514   0.696  0.1298 -0.0942 -0.0450
14500W        W30974   1.702   9.935   5.568  0.1797 -0.4898 -0.0862
14501W        W30975  18.687  15.422  14.301  0.0020 -0.0391  0.1458
14502W        W30976   9.010   6.851   5.279 -0.1693 -0.0449 -0.1377
14503W        W30977   1.327  14.795  10.802  0.1572 -0.2270 -0.3412
14504W        W30978   5.529  16.366   3.728 -0.0233 -0.1740 -0.0300
14505W        W30979  11.617   9.359  13.998  0.1239  0.1949 -0.0591
14506W        W30980   5.642  14.915   5.468  0.0722  0.0627  0.0732
14507W        W30981   9.989   8.288  12.150 -0.0715 -0.0908 -0.2739
14508W        W30982  14.131  12.568   5.268  0.0273  0.0027 -0.1652
14509W        W30983   8.157   1.317  14.422  0.0596 -0.3014  0.1521
14510W        W30984  13.275  11.976   4.853  0.0740 -0.1367 -0.1368
14511W        W30985   4.534   0.371  10.953 -0.1988  0.0289 -0.1095
14512W        W30986  17.489  11.213   5.654  0.0736 -0.3714  0.1603
14513W        W30987  10.006  12.556   5.166  0.1861  0.1414  0.0529
14514W        W30988   5.379   5.284  13.408  0.0797  0.1553  0.0870
14515W        W30989  10.493   0.302   5.201 -0.1703  0.3813  0.1381
14516W        W30990   0.183   4.786   1.328 -0.0932 -0.3492  0.1631
14517W        W30991   5.217  10.551   0.557 -0.0712  0.2205 -0.0539
14518W        W30992   7.553   4.309  12.194 -0.1280  0.1442  0.1108
14519W        W30993   8.233  11.411  11.669  0.1463 -0.0059 -0.2104
14520W        W30994  10.400   9.719  13.369 -0.6625 -0.0200 -0.2965
14521W        W30995   3.386   6.110   1.724  0.0883  0.1491  0.0517
14522W        W30996  11.858   3.167   2.066 -0.0002  0.1152 -0.0197
14523W        W30997   7.498  18.489   5.571 -0.2149 -0.1485  0.0196
14524W        W30998   8.448  16.406   1.687 -0.1062 -0.2733 -0.0231
14525W        W30999  15.613   2.831  12.905  0.0202 -0.2239  0.0918
14526W        W31000   9.777  15.281   1.707 -0.2971 -0.0213  0.1978
14527W        W31001  17.736   8.600  10.726  0.1352  0.3146 -0.1600
14528W        W31002   9.066   4.948   3.433  0.0496  0.2387 -0.1479
14529W        W31003   8.092  13.838  11.471 -0.1345  0.2732 -0.1125
14530W        W31004   5.552  16.412   4.365 -0.2317  0.2850  0.0087
14531W        W31005  11.912  10.218  14.229 -0.1147  0.2986  0.0517
14532W        W31006  14.776  16.929  11.746  0.0746  0.1063 -0.3451
14533W        W31007  15.622   8.173   0.702  0.0698  0.1780 -0.0608
14534W        W31008   3.315   7.374  14.229  0.2363 -0.3345  0.0619
14535W        W31009  12.322   1.040   3.997 -0.3861  0.2162  0.0523
14536W        W31010  14.236  17.474   1.067  0.1576  0.1703 -0.0096
14537W        W31011   9.314   0.993   1.575 -0.0490  0.0941 -0.1520
14538W        W31012  17.033   0.461  14.600  0.1452 -0.1799  0.1235
14539W        W31013  18.651   6.946   1.326  0.0649 -0.0557  0.0699
14540W        W31014  13.277   6.885   3.155 -0.2222  0.1597 -0.3554
14541W        W31015   4.610   5.547  13.281 -0.0717 -0.0861 -0.2499
14542W        W31016   4.169  12.820   5.526 -0.1490 -0.0835 -0.0558
14543W        W31017   3.456   6.316   1.273  0.3216  0.0461  0.0519
14544W        W31018   7.589   5.528  14.122  0.0364 -0.0248  0.0809
14545W        W31019   5.787   8.057  12.506 -0.1373 -0.4604  0.1131
14546W        W31020   8.175   3.793   3.625 -0.2410 -0.0873 -0.0767
14547W        W31021  16.466  16.562  12.543 -0.0598 -0.0230 -0.1049
14548W        W31022   3.638   2.982   3.931 -0.1434  0.4310 -0.2330
14549W        W31023  13.819  10.653  13.704  0.3249  0.4172 -0.0452
14550W        W31024  12.698   9.449  15.217  0.2069  0.0172  0.0975
14551W        W31025  16.765   9.782   5.083 -0.0457 -0.0014 -0.0843
14552W        W31026  12.403  14.365  11.480  0.0269  0.2464 -0.1281
14553W        W31027   2.963  12.604   4.864 -0.2006  0.1557  0.1765
14554W        W31028  11.424   2.762  12.121 -0.0851 -0.1593 -0.2917
14555W        W31029   1.673  11.855  12.901 -0.1674  0.1550  0.1067
14556W        W31030   0.970   7.849   3.313 -0.1503 -0.3016  0.1239
14557W        W31031   0.013   1.184   5.564  0.1510 -0.0462 -0.1944
14558W        W31032   8.876   8.422  15.025  0.0987  0.2698  0.1784
14559W        W31033   4.733   4.987   3.078  0.2658 -0.1996  0.2158
14560W        W31034   8.943  13.223   0.307  0.1566  0.0514 -0.0698
14561W        W31035   9.481   7.761  14.545  0.2575 -0.0074 -0.0107
14562W        W31036  15.698  18.400   3.145  0.0332 -0.0520 -0.0540
14563W        W31037   0.655  17.132  14.746  0.1065  0.0900  0.1689
14564W        W31038   0.673  15.163   1.153  0.0026 -0.2326  0.1697
14565W        W31039   0.163  17.617  15.287  0.1336 -0.1428 -0.1093
14566W        W31040  11.070  11.276   1.853  0.1295 -0.1633 -0.1186
14567W        W31041  16.847   0.594  13.063 -0.0153 -0.1386  0.0501
14568W        W31042  18.035   0.995  15.254  0.0227 -0.2561  0.0300
14569W        W31043   4.920   4.522   0.866  0.0601 -0.0853  0.1525
14570W        W31044   1.771   9.618   1.087 -0.0332 -0.2423 -0.1026
14571W        W31045  16.118   6.053   4.212 -0.2027 -0.2077 -0.1297
14572W        W31046   5.089   7.091   2.656  0.1392  0.2652  0.0599
14573W        W31047  10.932  12.521   3.280 -0.1274  0.2432  0.0229
14574W        W31048   9.587   3.636   3.636  0.1377 -0.0500 -0.1968
14575W        W31049  18.691   8.718  13.253 -0.1028 -0.3899 -0.0245
14576W        W31050   8.651  17.278   3.790  0.1039 -0.4099 -0.2372
14577W        W31051   5.749  13.987  14.318  0.3306 -0.0549 -0.1312
14578W        W31052   8.130  11.907   2.738 -0.0315  0.1327  0.1567
14579W        W31053  13.695   9.959   2.234 -0.1309  0.0493 -0.0315
14580W        W31054   2.024   9.340  11.161 -0.0523 -0.0568 -0.0055
14581W        W31055  12.193   3.795   4.977 -0.0309 -0.2751 -0.1914
14582W        W31056  14.725   7.947   4.528  0.4646  0.0299  0.1032
14583W        W31057   6.632  12.252   3.370  0.0213 -0.0704 -0.4298
14584W        W31058  11.803  18.185   2.971  0.1084  0.3224  0.2265
14585W        W31059  18.606  16.067   1.844 -0.3650  0.1926 -0.1341
14586W        W31060  10.192   8.652   3.368  0.0963  0.1754  0.1778
14587W        W31061  16.943   6.556  14.461  0.1273  0.3116 -0.1967
14588W        W31062   2.132   8.138  11.477 -0.4749  0.1301  0.0362
14589W        W31063  14.657  10.019   2.499  0.1076 -0.0511  0.2963
14590W        W31064   1.065   6.286   9.233 -0.0941  0.0892  0.2563
14591W        W31065  10.628  13.371   4.999  0.0615  0.0961  0.2667
14592W        W31066  16.421  12.659   2.977 -0.1970  0.3014 -0.1170
14593W        W31067   9.137   8.814  11.411  0.3392 -0.4572  0.0269
14594W        W31068  17.976   8.434   2.650  0.0478 -0.1518  0.3197
14595W        W31069  10.119   5.125   4.013 -0.2542 -0.0244 -0.2067
14596W        W31070  17.994   6.806   3.580  0.1142 -0.0166 -0.2480
14597W        W31071   1.453  13.147  15.205 -0.1607 -0.0235 -0.0049
14598W        W31072  17.394  14.167   5.275  0.0988 -0.1558  0.1728
14599W        W31073  11.727   3.728   4.033  0.2165  0.2519  0.2681
14600W        W31074  17.356  16.763  13.953  0.0159 -0.0806  0.1961
14601W        W31075   4.102  18.618  12.531 -0.1718  0.0626  0.1273
14602W        W31076   0.694   3.755   1.452  0.1107 -0.1520  0.2337
14603W        W31077   4.581   4.781  10.285  0.0125 -0.0211  0.6140
14604W        W31078   8.117  16.502   0.881 -0.0076 -0.0340 -0.2104
14605W        W31079   1.252  10.260   2.864  0.1343  0.2220  0.0307
14606W        W31080   7.387  13.351  10.847 -0.0760 -0.2812  0.1143
14607W        W31081   3.814   3.810  11.453 -0.0393 -0.1751  0.0026
14608W        W31082  16.224  11.995  14.368 -0.0551 -0.1108 -0.0356
14609W        W31083   8.641  15.485   3.675  0.1986 -0.0445 -0.0008
14610W        W31084   8.803  11.985  10.281  0.3970  0.0718 -0.0194
14611W        W31085  18.790   9.761  11.110  0.1857  0.0858  0.3532
14612W        W31086   8.144   8.864  11.330  0.0852 -0.2090 -0.0422
14613W        W31087   0.188  12.842   3.677  0.1895  0.0419  0.0645
14614W        W31088  12.804   8.705   6.262 -0.0440 -0.0266 -0.1161
14615W        W31089   2.359   9.532  11.473 -0.2063 -0.3672 -0.2246
14616W        W31090  12.870   8.309  10.031  0.2149 -0.1589 -0.1996
14617W        W31091  18.328  10.703   4.948  0.1211 -0.0338  0.1195
14618W        W31092  14.136  12.384   1.428 -0.1228  0.1528 -0.0209
14619W        W31093   1.946   1.331   0.763 -0.2968 -0.0207 -0.1950
14620W        W31094  15.018  15.237   5.991  0.2378  0.3114 -0.1163
14621W        W31095   6.435  14.033  10.408  0.0984  0.1754  0.0607
14622W        W31096   9.965   1.199  13.994 -0.3834  0.1362 -0.0972
14623W        W31097  16.355  14.126   6.023  0.1489  0.1831 -0.0907
14624W        W31098   3.498   7.134   1.757  0.1349  0.2741 -0.0597
14625W        W31099   8.638  17.722   3.317 -0.0078  0.0285 -0.0671
14626W        W31100  16.026   6.753   2.243  0.2859  0.2218 -0.0713
14627W        W31101  13.831   5.769  13.164 -0.1311 -0.1591  0.0029
14628W        W31102   8.853  18.065   4.959  0.1265 -0.2872 -0.2777
14629W        W31103   1.060  14.315   0.797 -0.0384  0.2412 -0.1361
14630W        W31104  12.222   0.398   2.815 -0.3900 -0.2490 -0.1706
14631W        W31105   0.375   6.313   1.551 -0.0529 -0.0103  0.1623
14632W        W31106   6.006  16.222   0.828  0.0198 -0.1446  0.0384
14633W        W31107  14.558   8.782  11.429  0.0617  0.1712 -0.2404
14634W        W31108  13.369  16.013   4.873 -0.0176 -0.0313 -0.0246
14635W        W31109   8.316   8.245  13.342  0.0079 -0.1681  0.1481
14636W        W31110  11.700   4.149   0.978 -0.0569  0.2705 -0.1635
14637W        W31111  18.497  16.925   2.950 -0.1268 -0.0095  0.1611
14638W        W31112   5.673   9.026  13.891 -0.0591 -0.0682 -0.1271
14639W        W31113  16.494   4.150  11.363  0.1339  0.1882 -0.0112
14640W        W31114   2.491   2.650   1.506  0.6283 -0.0606  0.1642
14641W        W31115   2.679  14.604  14.881 -0.3093 -0.2807  0.1349
14642W        W31116   3.438   2.002  10.325  0.0878  0.2359 -0.0624
14643W        W31117   3.376   2.146   4.139 -0.0092  0.2188  0.0150
14644W        W31118  13.313  12.623   4.260  0.1528  0.0015 -0.0025
14645W        W31119   0.639  18.012  15.141 -0.2300  0.2313  0.2870
14646W        W31120  12.272   5.506   4.247  0.1166  0.1909  0.3839
14647W        W31121  14.227  15.672   3.709  0.1269 -0.2216 -0.1779
14648W        W31122  14.078   6.640   1.100 -0.0874  0.2972 -0.3546
14649W        W31123  11.302  10.544   1.504 -0.1158  0.1929  0.0689
14650W        W31124   6.041   0.184  13.226 -0.2075 -0.0010 -0.1938
14651W        W31125   0.135   8.367  15.374  0.3854  0.2363 -0.2295
14652W        W31126  18.478   1.105  13.736  0.0870  0.0923 -0.1069
14653W        W31127   9.052   9.988   4.796 -0.1405 -0.0815  0.0580
14654W        W31128   8.381   4.376   5.360 -0.2888 -0.0537  0.2446
14655W        W31129   3.739  10.854  13.769 -0.1960  0.2696 -0.2665
14656W        W31130  11.294  15.068   1.211 -0.1326 -0.1977  0.0375
14657W        W31131   9.671  12.704  10.587 -0.0091 -0.2210 -0.3113
14658W        W31132   1.085   5.622   1.920 -0.1107  0.0674  0.0444
14659W        W31133   3.785  10.898   3.673  0.1137  0.4675 -0.0730
14660W        W31134  15.122  14.508  12.241  0.0611  0.2078 -0.1231
14661W        W31135   2.823   8.135   1.544  0.1361  0.0790 -0.2188
14662W        W31136   2.580  15.058  10.648 -0.0572  0.1137  0.0300
14663W        W31137   5.314   2.421  12.319  0.0757 -0.1961  0.0118
14664W        W31138   9.871  13.881  14.328 -0.1335  0.0236 -0.0690
14665W        W31139   2.448   2.085   1.161 -0.0128 -0.2681 -0.1028
14666W        W31140   6.473  15.706  12.205  0.1795  0.0842  0.0799
14667W        W31141  14.083  18.458   4.273  0.2224 -0.0340  0.5731
14668W        W31142  14.888   2.238  13.346 -0.0070  0.0945 -0.0819
14669W        W31143  16.749  17.589   2.335 -0.0888 -0.0355  0.1260
14670W        W31144   3.521   1.284  15.561  0.3269  0.0516  0.1779
14671W        W31145  16.712   9.702   5.593 -0.2086  0.0831 -0.2760
14672W        W31146   2.955  15.947   0.856  0.0524 -0.1246 -0.0166
14673W        W31147   4.384  15.763   3.490  0.0377 -0.2129  0.1343
14674W        W31148   8.685   6.069   2.287 -0.2074  0.2004  0.1374
14675W        W31149  17.354  14.665   4.675 -0.0190 -0.0017 -0.0097
14676W        W31150  12.523   0.423  13.840  0.0165 -0.1643  0.1055
14677W        W31151   6.245   3.159  11.492  0.1819  0.0698  0.0599
14678W        W31152   3.814  17.450   2.694  0.1858 -0.0778  0.1433
14679W        W31153   4.841   5.790  11.214 -0.1157 -0.2316 -0.2034
14680W        W31154  14.259   2.537  10.391 -0.4688 -0.1270 -0.2106
14681W        W31155   7.375  13.778  13.103 -0.2534 -0.0348 -0.3152
14682W        W31156  17.387  11.339  14.040 -0.0154 -0.0968 -0.1380
14683W        W31157  18.681   9.896   0.468  0.2436 -0.1864  0.0108
14684W        W31158  16.154  18.555  13.682  0.1103 -0.0676 -0.1203
14685W        W31159   2.247  13.564  13.746 -0.0502 -0.2902 -0.2564
14686W        W31160   2.156   8.378  15.288  0.1706 -0.0624 -0.0918
14687W        W31161  13.583  13.863  11.999 -0.1742 -0.0385 -0.3980
14688W        W31162   6.047   5.772  11.972  0.0597 -0.0379  0.1247
14689W        W31163  16.645   0.733  11.904  0.0308 -0.0069  0.0943
14690W        W31164   3.048  11.735   2.370  0.2357  0.2470  0.0645
14691W        W31165  12.889  17.440   4.562 -0.0268  0.0002  0.0961
14692W        W31166   9.537   1.472  13.059 -0.1844 -0.1570  0.1678
14693W        W31167   9.589  17.777   4.175  0.0882 -0.0522 -0.2075
14694W        W31168   2.920  17.054  11.699 -0.5360 -0.1036  0.1304
14695W        W31169   6.388   3.969  14.292 -0.1462 -0.4570  0.4016
14696W        W31170   6.623   3.218  14.099  0.0802  0.0504 -0.0308
14697W        W31171   7.607   8.383   4.179  0.0583  0.1532 -0.1297
14698W        W31172  13.785   5.885   1.795 -0.1907 -0.1904  0.0113
14699W        W31173  17.413   6.742  12.116 -0.0984 -0.0742 -0.0975
14700W        W31174   7.022   6.903  15.055  0.3243 -0.3077 -0.0267
14701W        W31175  13.083   5.009   1.460  0.0939 -0.1913  0.2278
14702W        W31176  12.593   2.464   3.806 -0.0025 -0.0872  0.2501
14703W        W31177   0.560  15.650  11.756 -0.0592 -0.0575 -0.1834
14704W        W31178  13.430  18.088  15.081 -0.2392  0.0945 -0.2451
14705W        W31179   5.660   0.340   2.103  0.0929  0.2148  0.1220
14706W        W31180  16.525   7.875  14.380  0.2158  0.0983  0.3485
14707W        W31181  17.723  12.207  12.265  0.2121  0.1266  0.1515
14708W        W31182  18.432  16.303   0.729 -0.0661  0.1289 -0.2074
14709W        W31183  13.017  11.517   3.988  0.2885  0.2055  0.0970
14710W        W31184  16.466  14.032  12.560 -0.2468  0.0790 -0.1501
14711W        W31185  18.776  15.268   3.080  0.1417 -0.0749 -0.0031
14712W        W31186  14.919   7.738   2.985 -0.0274 -0.1359 -0.2336
14713W        W31187   9.366   7.901   3.659 -0.1574 -0.1514  0.1381
14714W        W31188   2.020   4.919   2.692 -0.3183  0.2000 -0.0350
14715W        W31189  10.747  16.985  11.282 -0.0553 -0.1552 -0.3962
14716W        W31190  18.747   1.882  14.384 -0.0094  0.1385 -0.3141
14717W        W31191  13.592  17.853   0.303  0.2967 -0.2538 -0.0763
14718W        W31192   3.350  12.342   1.378 -0.1641  0.0334  0.0090
14719W        W31193   5.921   2.994   4.475 -0.1520  0.0248  0.1052
14720W        W31194   7.151   3.274   2.589 -0.0873  0.0606 -0.0287
14721W        W31195   7.829  17.031   2.329  0.0724  0.1192  0.2408
14722W        W31196  16.338  18.103  14.001  0.0709 -0.0493  0.1918
14723W        W31197   8.350  18.624   4.476 -0.1910 -0.3388 -0.0480
14724W        W31198   5.267   9.434  12.130 -0.2628 -0.1108 -0.1668
14725W        W31199   1.663   5.844  14.169 -0.1306 -0.0430 -0.0135
14726W        W31200   2.068  17.537  11.172 -0.0624  0.0737  0.0937
14727W        W31201   3.275  18.758   2.543  0.0339 -0.2274  0.2755
14728W        W31202   3.054   5.711  11.895  0.0117  0.3033 -0.2081
14729W        W31203  13.653  15.715  14.251  0.0974  0.0978 -0.3839
14730W        W31204  13.811  18.742   3.688  0.1094  0.2571 -0.2519
14731W        W31205  10.443   6.867   4.203  0.0250  0.2348  0.0144
14732W        W31206   4.563  17.510   2.802 -0.0293  0.1822  0.0544
14733W        W31207  15.904  11.467  15.149 -0.2249  0.1960 -0.0966
14734W        W31208   7.732   1.483   0.574  0.0872 -0.1593  0.0630
14735W        W31209   2.514  16.431   3.395  0.0107 -0.0856 -0.2211
14736W        W31210   9.482  16.570  11.192 -0.0627  0.1935  0.1133
14737W        W31211   1.602  11.155   2.885 -0.0986  0.0848 -0.0894
14738W        W31212  10.286  14.450   4.070  0.0520 -0.0374  0.0580
14739W        W31213  11.060  16.521   2.540  0.0751  0.0508 -0.0982
14740W        W31214  17.134   5.323  12.955 -0.1763 -0.0339 -0.2847
14741W        W31215  15.471  11.501   5.907 -0.0911  0.3424  0.4297
14742W        W31216   4.653  10.898  11.698 -0.0035  0.0957 -0.2478
14743W        W31217  13.433  14.569   1.939 -0.2309  0.0684  0.0262
14744W        W31218  14.030   4.442   2.481 -0.1849  0.1916 -0.1142
14745W        W31219  11.857   8.221   3.236  0.1676 -0.2816 -0.0190
14746W        W31220   9.993  11.028   4.191  0.0500  0.0740 -0.0939
14747W        W31221   6.531   9.929   2.847  0.0929 -0.0356 -0.1693
14748W        W31222   8.708   7.853   1.713 -0.1554 -0.0870  0.1146
14749W        W31223   6.248   6.193  10.460 -0.1351  0.3549  0.0520
14750W        W31224  12.279  17.806   1.410  0.0627  0.1141 -0.0860
14751W        W31225  11.009  10.106  15.397 -0.0451 -0.1565  0.0373
14752W        W31226  10.443  16.461   2.006 -0.2130  0.0155  0.0953
14753W        W31227   8.560   8.390  14.640 -0.2498 -0.0743 -0.1623
14754W        W31228   9.430   1.855  11.450  0.4564 -0.2058  0.0931
14755W        W31229   6.123  12.475  11.612  0.0420 -0.2798 -0.0772
14756W        W31230   6.418   6.710   3.066 -0.0984 -0.0307 -0.1949
14757W        W31231   5.456   2.603   2.515 -0.1787 -0.3231 -0.3555
14758W        W31232   0.888   4.678  10.808 -0.1410 -0.1637 -0.4490
14759W        W31233   0.564  11.269   1.245  0.0150  0.1314 -0.0836
14760W        W31234   4.236  16.008   3.074  0.1149 -0.0846 -0.1571
14761W        W31235  14.724   2.186  12.351  0.2349 -0.3409 -0.1410
14762W        W31236   8.481  12.551   2.563  0.1488  0.2654  0.2141
14763W        W31237   5.824   3.650   1.581  0.0155  0.5274 -0.0245
14764W        W31238  14.059  14.401  11.406 -0.0918  0.1729  0.1449
14765W        W31239  14.458   9.345   4.314  0.0557 -0.1754  0.1926
14766W        W31240  17.330   1.024   4.829 -0.1508  0.1975  0.2316
14767W        W31241  14.498   4.065   5.233  0.0406  0.0716 -0.0489
14768W        W31242   8.856  10.149  13.030  0.1731 -0.2711 -0.0837
14769W        W31243   0.600  12.089  15.020 -0.1605 -0.2026  0.2297
14770W        W31244   6.094   3.971  15.037 -0.0023  0.2202 -0.3173
14771W        W31245   1.175  10.080   4.604 -0.1773 -0.3468 -0.3177
14772W        W31246  17.262  11.324  12.478  0.1126  0.2974 -0.0141
14773W        W31247   1.168  14.654  14.108  0.0443 -0.1309 -0.0615
14774W        W31248  13.346  11.420  13.983  0.0859  0.0820  0.1157
14775W        W31249   1.064   0.060  12.245  0.0656  0.0002 -0.2811
14776W        W31250   8.929  11.020   4.701 -0.0072 -0.1834 -0.2368
14777W        W31251   6.246  17.365  11.277  0.1585  0.1704 -0.1155
14778W        W31252  12.726   0.624  12.815 -0.1352  0.1448  0.2216
14779W        W31253   1.694  10.148  14.950 -0.0371 -0.0192 -0.0260
14780W        W31254  11.980  15.652  11.193  0.1251  0.1550  0.0819
14781W        W31255  15.382   8.040   2.006  0.2192 -0.1939 -0.2647
14782W        W31256   8.042  15.150   2.280  0.2944 -0.1098  0.0692
14783W        W31257   5.989  11.111   5.077 -0.3066  0.0776  0.0992
14784W        W31258   5.493   4.116   3.838  0.2342 -0.0631 -0.0617
14785W        W31259  12.821   9.868  13.809  0.0975  0.0664 -0.3231
14786W        W31260   7.070  17.617   3.162  0.0254 -0.0605  0.0113
14787W        W31261  14.456   2.365   3.633  0.0597 -0.0624 -0.1469
14788W        W31262  14.059   5.230  11.634  0.1674  0.0136  0.1176
14789W        W31263  17.405  10.826  14.045 -0.4856 -0.3379  0.0493
14790W        W31264  15.878  17.800   4.488 -0.0697 -0.2737  0.2262
14791W        W31265   4.714   7.275  11.720 -0.1449 -0.1274  0.1449
14792W        W31266  15.464  11.923  14.405 -0.0486  0.1178 -0.1238
14793W        W31267   9.518   9.982   1.562 -0.1164  0.2068 -0.1639
14794W        W31268  18.218  13.169  12.882 -0.2362  0.1040  0.0184
14795W        W31269  18.169  17.968  14.501 -0.1897  0.5626  0.0596
14796W        W31270   1.441  14.573  14.487 -0.1759  0.2728 -0.3560
14797W        W31271   6.763   1.572   2.025  0.0134  0.1351 -0.0832
14798W        W31272   8.205  16.875   4.911  0.1483 -0.0273 -0.1279
14799W        W31273  17.979  15.540  11.348  0.0474  0.0909 -0.1947
14800W        W31274  18.661  14.587   4.267  0.2372  0.0845 -0.1910
14801W        W31275   1.412   7.403  11.582  0.1235 -0.0268 -0.0993
14802W        W31276   0.696   8.319  12.988 -0.4464  0.2388 -0.0352
14803W        W31277   6.444  11.003  14.918  0.0442  0.2333  0.0161
14804W        W31278   6.670  12.047   2.219 -0.1185  0.0034 -0.2705
14805W        W31279   6.286  12.793  12.074 -0.1627  0.0283 -0.2505
14806W        W31280  15.613  12.513   0.358  0.0137 -0.1599  0.0797
14807W        W31281   8.297  13.160   3.060  0.2398 -0.0301  0.1826
14808W        W31282   4.592  15.739  13.926 -0.1305  0.0289  0.0704
14809W        W31283   2.277  13.180   5.491  0.0624 -0.0362  0.0060
14810W        W31284   8.570  13.287  15.439 -0.0071  0.2429 -0.3288
14811W        W31285  17.166   0.013   2.267  0.0596  0.0349 -0.1185
14812W        W31286  12.882  18.370   5.094 -0.1729 -0.3194 -0.1847
14813W        W31287   3.986   8.257  12.601  0.1429 -0.0058  0.0673
14814W        W31288   5.616  14.079  14.796  0.3585 -0.0157 -0.1045
14815W        W31289   8.735  18.307   0.422  0.3412  0.0634 -0.3066
14816W        W31290   1.746  16.656  10.864 -0.0945 -0.4245 -0.1837
14817W        W31291  14.877   3.603   0.525  0.4823 -0.0168 -0.2634
14818W        W31292   2.897  16.017   1.718  0.2703  0.0768 -0.0925
14819W        W31293   7.790   1.513   2.322  0.1473 -0.1801 -0.1180
14820W        W31294  13.856  14.204  12.774  0.0601  0.0329  0.0338
14821W        W31295  13.261  10.222   2.385  0.2562 -0.0196 -0.0021
14822W        W31296  12.969   6.108   1.707 -0.1641 -0.1553  0.4406
14823W        W31297   0.932   2.895   2.293  0.1898 -0.3313 -0.0633
14824W        W31298   9.221   7.406   2.319  0.0294  0.0861  0.0245
14825W        W31299  18.023   2.176   1.403 -0.0690 -0.2224 -0.0118
14826W        W31300   1.248  14.083  13.500 -0.3215  0.2185 -0.0021
14827W        W31301  14.433  14.275   2.455  0.2629  0.0242  0.1661
14828W        W31302   6.069   3.007   0.359 -0.1340  0.0543  0.1434
14829W        W31303   7.937   6.269  12.356  0.1178  0.0012  0.0201
14830W        W31304   4.078  11.965   3.167 -0.1335  0.3263 -0.1227
14831W        W31305  18.338  15.328   0.423 -0.1475  0.0684  0.0527
14832W        W31306   1.295  17.666   1.278 -0.3753 -0.1037  0.2113
14833W        W31307  12.990   0.813   0.200 -0.1615  0.0063  0.0318
14834W        W31308  18.075  15.695   0.755  0.1260 -0.1711  0.2356
14835W        W31309   5.241   9.311   4.607  0.0393 -0.3019  0.0373
14836W        W31310  11.746  10.266  13.421 -0.2129  0.0265  0.1889
14837W        W31311   6.962   6.620  10.556 -0.0252  0.1327  0.0344
14838W        W31312  16.753   7.792   3.036 -0.0565  0.1369 -0.2259
14839W        W31313  17.941   7.109  11.842 -0.0395  0.1090  0.4021
14840W        W31314   9.423   5.495   2.251 -0.1709  0.1180 -0.2140
14841W        W31315   9.507  10.906   4.012 -0.2849 -0.3864 -0.2307
14842W        W31316  15.878  10.627   2.311 -0.0561  0.1341  0.0967
14843W        W31317   9.205   9.198  14.509  0.2544  0.0050  0.1318
14844W        W31318   3.357   5.838  12.875 -0.0634  0.0949 -0.0786
14845W        W31319  15.146   2.603   0.787  0.0732 -0.1539 -0.0030
14846W        W31320   9.043   2.367  15.099  0.4241 -0.1933  0.1507
14847W        W31321   4.792   5.339  11.546  0.1133  0.0291  0.2573
14848W        W31322   9.353  10.250   1.906 -0.3783 -0.4213 -0.1238
14849W        W31323  11.171  11.484   2.992  0.3792 -0.2621  0.1162
14850W        W31324  15.430  16.387  15.424 -0.3350 -0.1510 -0.0895
14851W        W31325   1.885   5.958   3.080 -0.1365 -0.0116  0.1311
14852W        W31326   6.804   8.531   3.284  0.0547 -0.1347 -0.0041
14853W        W31327   2.904   3.043   1.147 -0.0971 -0.2272  0.0830
14854W        W31328  12.566   2.335   5.109  0.2212 -0.1696 -0.2497
14855W        W31329  15.228   9.655   5.644  0.0241 -0.3366  0.2511
14856W        W31330   7.925   3.106  14.481  0.1455 -0.0284  0.0060
14857W        W31331  12.770  18.019  11.382  0.0030 -0.0682 -0.0064
14858W        W31332  16.174  14.116   1.000 -0.0710 -0.2443  0.0578
14859W        W31333  14.193   0.819   0.140 -0.0830 -0.2381 -0.1158
14860W        W31334   9.209   2.094   0.443  0.3205 -0.0426  0.0720
14861W        W31335   3.549   6.986  13.984 -0.2903 -0.1263 -0.2472
14862W        W31336   9.835  13.898  12.854  0.0848  0.0829  0.1945
14863W        W31337  17.704   7.973  11.870  0.0142 -0.2872  0.0713
14864W        W31338  14.267  10.065  12.631 -0.0174  0.2005  0.2637
14865W        W31339  16.872   6.234   1.301 -0.0273  0.1291 -0.1124
14866W        W31340  18.746   3.536  12.772  0.0099  0.3433 -0.1821
14867W        W31341  11.852  11.113  13.085 -0.0177 -0.2428 -0.1111
14868W        W31342   7.742   1.866  11.077  0.1331  0.1754 -0.1812
14869W        W31343   1.000  16.752   3.747  0.1758  0.1346  0.1930
14870W        W31344   3.304   6.202  11.982 -0.0919  0.2062  0.0010
14871W        W31345   4.954  13.940   0.088 -0.1131 -0.0637 -0.3292
14872W        W31346  13.879   4.360  14.748 -0.1813 -0.0519 -0.2411
14873W        W31347   7.289  13.274   2.853 -0.0487 -0.0437  0.2182
14874W        W31348   6.254  18.038  10.672  0.0611 -0.2927 -0.0101
14875W        W31349   3.501  16.232   1.619  0.2469  0.0330 -0.0597
14876W        W31350  18.438   5.226  15.305  0.0453  0.0360 -0.1316
14877W        W31351   2.213   5.969   2.352 -0.1007 -0.2506  0.0785
14878W        W31352  16.229  14.901  11.179  0.1630 -0.1381  0.0850
14879W        W31353   3.417  14.818   3.436 -0.1042  0.1440 -0.0218
14880W        W31354  16.153   0.916  14.298  0.1326  0.3587 -0.1193
14881W        W31355   2.993  13.919  11.118 -0.0789 -0.1817 -0.2069
14882W        W31356   4.564  12.548   1.550 -0.1152  0.2644  0.3111
14883W        W31357   0.013  10.954  15.449  0.0782 -0.4137 -0.0376
14884W        W31358  14.031   1.952   4.377  0.2357  0.2985 -0.0318
14885W        W31359   6.855  15.027  11.611  0.1093  0.0790 -0.1351
14886W        W31360   6.385  15.751  13.595 -0.1273  0.1975 -0.3253
14887W        W31361   4.102  12.246  13.205 -0.1170  0.2448 -0.3739
14888W        W31362   9.561  16.083   4.070  0.4242 -0.1362 -0.0512
14889W        W31363  14.426   0.065   0.366 -0.1415  0.1591 -0.2143
14890W        W31364   8.154  12.079   4.741 -0.0098  0.0095  0.2129
14891W        W31365  12.235  14.264   5.627 -0.1863 -0.0587 -0.1596
14892W        W31366   7.591   5.040  11.443 -0.0902  0.0261  0.1419
14893W        W31367   3.592   3.817  15.537 -0.1430 -0.3768  0.0770
14894W        W31368  13.023   2.622   5.273  0.0096 -0.0817 -0.2570
14895W        W31369   4.708  15.232   4.332  0.0587  0.0464  0.1079
14896W        W31370   6.746  14.234  15.312 -0.2683 -0.3008 -0.0212
14897W        W31371   9.253  17.436   0.075 -0.1493  0.0209  0.1593
14898W        W31372   2.251  10.025   3.130  0.1131 -0.3362 -0.2521
14899W        W31373  12.812  10.361  14.611  0.1056  0.2663 -0.2676
14900W        W31374   3.871   3.294  14.569  0.2316 -0.1135 -0.0490
14901W        W31375   0.726   4.931   9.492 -0.1564 -0.1660 -0.2640
14902W        W31376  12.534  15.224   1.180 -0.2279 -0.1679 -0.0844
14903W        W31377  13.299   7.330   0.634  0.0232  0.4193  0.0687
14904W        W31378  14.001  13.717  14.585  0.0165 -0.2691  0.1294
14905W        W31379   0.784  15.820   1.285  0.2679  0.0321  0.0374
14906W        W31380  12.754  13.959   1.573  0.2306  0.3543  0.0816
14907W        W31381  15.238  14.563  15.189  0.1394  0.0630  0.1081
14908W        W31382   3.656  17.999   1.792 -0.2978 -0.0515  0.1698
14909W        W31383   6.532   2.341  11.770  0.0357  0.1142  0.2570
14910W        W31384   0.848   4.400  15.518 -0.1653 -0.2327 -0.0894
14911W        W31385   6.104  15.367  13.421  0.2664  0.3094 -0.0809
14912W        W31386   7.579   3.505   5.299 -0.2221  0.0536  0.0420
14913W        W31387  13.652  12.986  11.592  0.0201 -0.0330 -0.1247
14914W        W31388   3.833  15.166  12.460 -0.2096 -0.2018  0.3577
14915W        W31389  15.098   3.602   1.929 -0.0180 -0.0435 -0.0763
14916W        W31390   7.881   6.692   2.591 -0.1392  0.0861 -0.1447
14917W        W31391  11.694   2.209   6.260  0.1271 -0.0473  0.0543
14918W        W31392  15.598  13.052  14.515  0.0955 -0.0968 -0.1962
14919W        W31393   2.790  17.036  13.585  0.2712 -0.0400  0.2273
14920W        W31394  13.090   8.074  13.716 -0.1165  0.2472 -0.1960
14921W        W31395   9.453   4.796  12.009 -0.1021  0.1086  0.0348
14922W        W31396  10.250   6.324  13.401  0.0469  0.2173 -0.3009
14923W        W31397   0.822  17.672   3.504  0.1190  0.1379 -0.0985
14924W        W31398  10.233   5.187   4.818  0.0631 -0.0478  0.2100
14925W        W31399   0.120   3.163  11.148  0.1077 -0.4708 -0.3356
14926W        W31400   1.351  16.982   1.855 -0.0089 -0.1799 -0.0579
14927W        W31401   5.476   5.707   3.027  0.1230 -0.1554  0.4687
14928W        W31402   2.464  16.999   4.747 -0.2000  0.2343  0.1351
14929W        W31403  16.376  14.140  14.390  0.0148 -0.0051 -0.4038
14930W        W31404   6.783   8.615   5.792  0.3376 -0.1765  0.2793
14931W        W31405  18.276   9.879   2.924  0.0819 -0.0448 -0.1042
14932W        W31406   8.417  10.078  10.630 -0.0361  0.0777 -0.1152
14933W        W31407   8.927   4.043  14.299  0.0769  0.1887  0.0105
14934W        W31408  13.730   3.913  13.341  0.1155  0.3495  0.0243
14935W        W31409   2.412   2.038   1.705 -0.1404  0.0724  0.4053
14936W        W31410   7.314   9.612  15.207 -0.1198 -0.1062  0.3191
14937W        W31411  12.960  18.633   0.316 -0.0345  0.2597  0.0526
14938W        W31412   2.196   3.484  12.057 -0.4749  0.0699  0.1299
14939W        W31413  16.592   0.120  13.567 -0.0379 -0.0960 -0.1543
14940W        W31414  10.844   2.563  13.665 -0.0359 -0.1333 -0.2592
14941W        W31415  17.727  11.251   4.484 -0.1674  0.0783  0.0262
14942W        W31416  11.230   9.345  13.013  0.0057  0.0302 -0.1245
14943W        W31417  10.409   0.661  11.663 -0.2139 -0.0601 -0.0826
14944W        W31418   6.393   5.191   3.554 -0.0669  0.0194 -0.1184
14945W        W31419  15.751  14.241  13.640  0.1303 -0.0101 -0.3767
14946W        W31420  11.097  11.589   0.182  0.0867 -0.0106  0.1287
14947W        W31421  11.040  14.224  12.287  0.0786 -0.0084 -0.1282
14948W        W31422   1.154   3.340   3.148  0.1557 -0.0892 -0.3145
14949W        W31423  11.073   0.739   3.777  0.0641 -0.0039 -0.3317
14950W        W31424  17.708  17.143  12.642 -0.2443 -0.0719 -0.0249
14951W        W31425  18.377   7.133   3.732  0.1737 -0.2901  0.3818
14952W        W31426   8.010  15.058   4.684 -0.0479 -0.1324  0.1467
14953W        W31427  17.499  13.338   0.686 -0.2566 -0.3970 -0.0818
14954W        W31428   8.116   7.885  10.887 -0.1510 -0.1418  0.3212
14955W        W31429  10.184  11.841  10.364 -0.0302  0.3201  0.0238
14956W        W31430   1.504   4.459   0.679  0.0274 -0.0934 -0.0706
14957W        W31431   5.012  12.005   2.160  0.0204 -0.1164 -0.1614
14958W        W31432  16.544  16.888   2.596 -0.0739  0.3242  0.0099
14959W        W31433  11.108  17.855  11.505  0.1271  0.0331  0.2329
14960W        W31434  17.703   8.790  12.629  0.0249  0.1483 -0.2878
14961W        W31435  18.632   1.240  13.165  0.1986  0.0569 -0.2918
14962W        W31436  16.183   4.866   1.385 -0.1034  0.3622 -0.3200
14963W        W31437  12.356  15.301  13.039 -0.0257 -0.2037 -0.4965
14964W        W31438   1.322  16.778  11.258 -0.2328 -0.3610  0.2020
14965W        W31439   2.824  15.526  15.239  0.0982  0.1199 -0.0722
14966W        W31440   9.197  11.365  12.392 -0.4124  0.1043  0.0569
14967W        W31441   6.006   2.872   0.814  0.0832  0.0103 -0.2457
14968W        W31442   8.723  15.032   0.657  0.0036 -0.1701 -0.0640
14969W        W31443   3.594  13.887   3.419 -0.0146  0.3955 -0.3781
14970W        W31444  13.725  17.264   3.980  0.0490  0.1252 -0.0003
14971W        W31445   9.369   1.145   4.037  0.2260 -0.2398 -0.1513
14972W        W31446  13.075   2.285   4.881  0.1389  0.1980 -0.0209
14973W        W31447  13.072  15.265  14.965  0.0834  0.2524  0.0341
14974W        W31448  18.380  11.213  12.624 -0.1832 -0.2732 -0.3934
14975W        W31449   3.060  18.563   3.054 -0.3838 -0.2184 -0.0503
14976W        W31450   8.770  10.506   0.642  0.1205 -0.1304  0.2761
14977W        W31451  13.381   3.396   2.319 -0.1712 -0.1497  0.0251
14978W        W31452  15.383   4.434  12.618  0.0716  0.1540 -0.0129
14979W        W31453   6.839   7.105   3.299  0.4881 -0.0898  0.0374
14980W        W31454  17.457  16.462   2.456 -0.4564  0.1793  0.0379
14981W        W31455   7.192  15.467   3.979 -0.0738  0.0797 -0.2348
14982W        W31456  10.242   7.671   1.492  0.0408  0.1868 -0.0390
14983W        W31457   6.483  12.705   0.005  0.0611  0.0163 -0.1354
14984W        W31458   7.077   1.006  14.132  0.0787 -0.0879  0.3109
14985W        W31459   1.503  11.759   2.023  0.1229  0.0414 -0.0774
14986W        W31460   8.697  18.410   4.160  0.2808 -0.3573 -0.1627
14987W        W31461   0.693  14.905   2.659 -0.3571  0.1560  0.1934
14988W        W31462  10.575   9.890  11.043  0.0082 -0.0445 -0.1149
14989W        W31463  15.192   1.049   4.646 -0.1286  0.1157  0.2340
14990W        W31464   4.352  11.051   0.142 -0.2805  0.2454  0.3443
14991W        W31465   8.649  16.944   0.759  0.1443 -0.1933  0.2542
14992W        W31466  18.316  11.645   2.084 -0.3509  0.0747  0.2552
14993W        W31467  17.816   2.504  11.134  0.1315 -0.0402 -0.0157
14994W        W31468   7.905   0.047   4.509  0.3874  0.0097  0.2141
14995W        W31469   4.627   5.519   0.404  0.0450  0.0981  0.3173
14996W        W31470   6.838   1.886   3.917 -0.1421 -0.3709  0.2222
14997W        W31471   9.229  12.929   4.913 -0.0367 -0.3028 -0.0342
14998W        W31472  18.191   6.347  11.836  0.1664 -0.0381  0.1840
14999W        W31473   1.591  15.285   5.454  0.2017  0.2501 -0.2073
15000W        W31474  17.353   7.066  10.708 -0.1195  0.1794  0.1396
15001W        W31475   7.564  15.453   2.199  0.2637  0.1927  0.1163
15002W        W31476   4.760  16.706   2.459  0.1002  0.1391 -0.2255
15003W        W31477  18.268  17.655  11.955  0.0605 -0.5410  0.2589
15004W        W31478   9.992  17.702  11.979 -0.1485 -0.1180  0.1955
15005W        W31479  10.875  10.720   2.760  0.0018  0.0636  0.0467
15006W        W31480   4.259  15.115   2.548  0.0578  0.0340 -0.0462
15007W        W31481  14.719  17.113  11.229 -0.2436 -0.0074  0.0006
15008W        W31482   1.504  18.005  12.817 -0.0122 -0.1412  0.3482
15009W        W31483  12.753   9.876  12.889 -0.1807  0.1916 -0.2832
15010W        W31484   3.667  13.981   0.593  0.1297  0.1348  0.0711
15011W        W31485  14.050  14.900  11.199 -0.1720 -0.0848 -0.2113
15012W        W31486  12.841  11.486   0.050  0.1490 -0.0043 -0.2625
15013W        W31487   0.870   6.886  14.332 -0.0675  0.0030 -0.0122
15014W        W31488  15.458   1.718  12.475 -0.1248  0.1538 -0.1748
15015W        W31489   5.514   2.505  10.496  0.0586  0.0319 -0.1746
15016W        W31490   4.823  14.340  15.366  0.1718 -0.0828  0.1564
15017W        W31491   7.337   9.847  14.753  0.0996 -0.2095  0.1765
15018W        W31492  11.887  14.030  13.764  0.4136  0.0648 -0.2661
15019W        W31493   4.287  15.684  11.693 -0.1997 -0.0497  0.0676
15020W        W31494   5.735  11.518  13.824  0.2368  0.0228 -0.1214
15021W        W31495  11.711   0.336  15.012 -0.1053  0.1841  0.2264
15022W        W31496   5.123  15.574  15.079 -0.0197 -0.3690  0.1984
15023W        W31497   7.465   4.648  13.278 -0.2909  0.0114  0.2644
15024W        W31498   9.262   6.409   5.139  0.0470  0.0266 -0.1107
15025W        W31499  14.531  17.150   5.083 -0.2755 -0.3782  0.5058
15026W        W31500   6.724   3.432   3.368 -0.1851  0.0153  0.0953
15027W        W31501  11.636  15.845   5.021 -0.3678 -0.0377  0.2636
15028W        W31502  15.162  11.048   3.271  0.0306 -0.1209  0.0998
15029W        W31503  16.439  10.616  13.042 -0.1235  0.1866  0.0654
15030W        W31504  18.572   5.456   2.335  0.1873 -0.0399  0.0016
15031W        W31505  12.933  13.736   3.234 -0.1724 -0.0272 -0.3090
15032W        W31506  11.193  12.726  15.218  0.0309  0.0359 -0.1103
15033W        W31507   7.726  15.984  13.451 -0.3099 -0.3850 -0.2093
15034W        W31508   0.873  13.553   2.087  0.2488  0.0370 -0.2691
15035W        W31509  14.215   4.038  13.199 -0.1853 -0.1058 -0.1232
15036W        W31510   7.884   4.645  12.424 -0.1781 -0.1271  0.2616
15037W        W31511   9.066  17.454   3.424 -0.1876  0.0032  0.0164
15038W        W31512  17.944   6.646   0.750  0.0739 -0.3428 -0.0124
15039W        W31513  10.991   6.933   4.270 -0.0159 -0.1996  0.1718
15040W        W31514   6.131  12.473  10.316  0.2231  0.0951 -0.3360
15041W        W31515   2.316   3.295   2.906  0.0971  0.0959  0.1225
15042W        W31516  15.638   0.061  15.455  0.2451  0.0894  0.1813
15043W        W31517   1.340  17.967   4.917  0.0194  0.1080 -0.1636
15044W        W31518  13.016  17.325   5.064 -0.2900  0.0113 -0.2226
15045W        W31519   2.204  12.259   0.081 -0.3686  0.1730  0.0870
15046W        W31520  17.044  17.770   0.330 -0.2898  0.0452  0.0410
15047W        W31521   9.175   6.751   0.186  0.0662 -0.0331  0.3699
15048W        W31522   1.083  15.273   2.963  0.1435  0.0329 -0.0065
15049W        W31523  15.121   4.773  12.300 -0.1919  0.0829 -0.0379
15050W        W31524   7.134  13.449   0.591 -0.0302 -0.2303 -0.0573
15051W        W31525   6.682   5.669   3.370  0.1557 -0.0530  0.1557
15052W        W31526  12.443  15.994  14.099 -0.0893  0.2884 -0.0969
15053W        W31527   3.554  15.413   0.804  0.2863  0.2511 -0.0088
15054W        W31528   5.769  18.708   4.176  0.0152 -0.3414  0.2830
15055W        W31529   4.985  16.040  14.732 -0.0388  0.1052 -0.0867
15056W        W31530  16.624   7.148   0.125 -0.0667  0.2678  0.2277
15057W        W31531  18.246  15.592  14.787 -0.0124 -0.0335  0.2468
15058W        W31532   4.718   2.811  11.809 -0.2245 -0.1667  0.1556
15059W        W31533   6.542  17.707   1.389  0.2449 -0.2564 -0.1658
15060W        W31534   7.792   4.799   0.421 -0.2297  0.0776  0.5611
15061W        W31535  18.703   1.370   5.065 -0.1990 -0.1496 -0.0739
15062W        W31536   5.268  10.289  13.841 -0.2050  0.2718  0.1867
15063W        W31537  11.647   1.109  12.987  0.0594 -0.2761 -0.4752
15064W        W31538  17.228  18.681   0.357 -0.0181  0.0702  0.2878
15065W        W31539  10.782   6.715   3.844  0.1016 -0.1059 -0.2547
15066W        W31540   7.032   7.121   4.353 -0.0640 -0.0231  0.0157
15067W        W31541   1.118  18.014   2.600 -0.4081  0.1393  0.4495
15068W        W31542   2.681   7.134  10.058  0.1430 -0.0477  0.0943
15069W        W31543   7.246  13.404   4.351 -0.1279  0.1524  0.2584
15070W        W31544   6.078  10.865   0.254  0.5202  0.1335  0.0304
15071W        W31545  10.890   8.991  11.436  0.0771 -0.2176 -0.0341
15072W        W31546  12.008   8.006  15.426  0.0940  0.0417  0.2325
15073W        W31547  16.969  13.968   1.423  0.1666  0.0880  0.2405
15074W        W31548   4.584  12.679  10.709  0.2107  0.1610 -0.2154
15075W        W31549  11.278   5.559   3.073 -0.1484  0.1425  0.1902
15076W        W31550  13.444   0.288  12.820  0.1131 -0.3035  0.2664
15077W        W31551   9.686   7.420  13.121 -0.1347 -0.1514 -0.2669
15078W        W31552   2.547   7.058   4.499 -0.1095 -0.3134 -0.1020
15079W        W31553  15.851   1.897   3.239  0.2873 -0.0427  0.3254
15080W        W31554  11.426   7.498   4.520 -0.1003  0.0276  0.2378
15081W        W31555   5.610   1.429   3.462  0.0716  0.0979 -0.3353
15082W        W31556  15.550  10.702  15.252  0.1703 -0.1324 -0.0437
15083W        W31557   9.177   8.213   4.069 -0.0644  0.0646 -0.0193
15084W        W31558  15.202   7.712  14.611  0.0887  0.1865  0.3106
15085W        W31559  17.233   3.724   1.380 -0.2304  0.3224 -0.0611
15086W        W31560   5.823   5.455   0.711  0.0783  0.0560 -0.0896
15087W        W31561   0.681   0.336   0.629  0.0985 -0.1151 -0.1005
15088W        W31562   2.973  14.539   2.213  0.0867  0.1007 -0.0477
15089W        W31563   9.206  17.901   5.248  0.3084 -0.0379 -0.2894
15090W        W31564  14.631  16.597  12.086  0.0705  0.1020 -0.0370
15091W        W31565   6.732  15.769  10.859  0.0772 -0.1856 -0.0202
15092W        W31566   9.757   6.873   3.578 -0.0033  0.1361 -0.0357
15093W        W31567  17.353  11.336  11.055 -0.0284  0.0350  0.0601
15094W        W31568  14.449  12.249   2.249 -0.1149  0.3505 -0.0346
15095W        W31569  11.329  13.186  14.571 -0.2762 -0.2829 -0.2523
15096W        W31570   7.571   3.459  12.907 -0.1039  0.2153 -0.2327
15097W        W31571   9.403   6.158   3.765 -0.4822 -0.2387  0.3498
15098W        W31572   3.503  17.182   2.000 -0.1354  0.3157  0.0278
15099W        W31573  14.786  18.314  15.397 -0.0190  0.0483  0.1524
15100W        W31574   3.656  17.264   3.084  0.0787  0.0712 -0.0686
15101W        W31575   9.693   1.883   0.836  0.0243  0.1718  0.0308
15102W        W31576  13.837   8.962   0.891 -0.1548  0.1651  0.0687
15103W        W31577  18.484  13.612  14.969  0.0301 -0.2707 -0.0281
15104W        W31578  12.204  14.541   2.578  0.2868 -0.2524 -0.2228
15105W        W31579  16.107   9.428   0.820 -0.0150 -0.0847  0.0863
15106W        W31580  12.091  13.895  12.086 -0.1147  0.0634  0.4452
15107W        W31581   9.317   1.613  11.037  0.6133  0.0976  0.0263
15108W        W31582   4.984  11.158   5.262  0.0337 -0.1919 -0.0989
15109W        W31583   1.321   8.863   4.880 -0.2832  0.0477  0.0396
15110W        W31584   7.013   7.783   4.606 -0.0682  0.2131  0.0686
15111W        W31585   3.356   6.165  13.644 -0.3679  0.2126 -0.0351
15112W        W31586  11.534  11.013   2.224  0.1812 -0.2961 -0.1032
15113W        W31587   9.695   7.549   4.703  0.0439 -0.0200  0.0544
15114W        W31588  17.832  13.935   1.556 -0.0385 -0.0416 -0.1095
15115W        W31589   7.704   7.543   1.573  0.2293  0.0893 -0.0830
15116W        W31590  14.321  18.447  13.688 -0.2417  0.2099  0.3734
15117W        W31591   4.152  12.122   2.010 -0.2966 -0.0776  0.1776
15118W        W31592   6.252   5.617  15.362  0.2354  0.1282 -0.3030
15119W        W31593   0.895   9.481  10.673 -0.1301  0.1874 -0.2382
15120W        W31594   8.139  15.601  14.215  0.1651  0.2252  0.0090
15121W        W31595   3.532  11.049  13.378  0.1280  0.1634  0.0275
15122W        W31596   5.727  16.857  13.132  0.0496  0.1425  0.1093
15123W        W31597  14.748  18.470   5.304  0.0616 -0.5394  0.2637
15124W        W31598  18.698   8.541   4.842  0.1087  0.1670 -0.1288
15125W        W31599   3.498   4.574   9.032 -0.2762 -0.1489  0.0205
15126W        W31600  14.251  13.589  13.869 -0.2056 -0.1123  0.2116
15127W        W31601   4.651   6.067  13.324 -0.1275  0.2005  0.0671
15128W        W31602  16.210   4.922   1.884  0.2494 -0.1664 -0.0143
15129W        W31603   8.367   2.532   4.317 -0.1824 -0.1696 -0.0242
15130W        W31604   7.507  10.832   3.512 -0.0440  0.1305 -0.3563
15131W        W31605  18.556   5.013   0.582  0.1260 -0.1042  0.2365
15132W        W31606   0.755   2.412   2.343  0.2372 -0.0746 -0.0519
15133W        W31607  17.230  14.009   4.343  0.1474  0.2017 -0.3232
15134W        W31608  18.498   9.902  12.629 -0.0975  0.0062 -0.0609
15135W        W31609  15.816  12.619  11.174  0.0070 -0.1748 -0.3951
15136W        W31610  11.118   2.175  15.297  0.2146 -0.0442 -0.0657
15137W        W31611   7.300  11.297   1.390  0.0963 -0.1069  0.1265
15138W        W31612   6.381   8.512  15.431  0.4607  0.0866 -0.4486
15139W        W31613   5.709   6.807   0.764 -0.0186  0.1786  0.1355
15140W        W31614  10.551   4.934   2.354  0.1051 -0.0622 -0.0557
15141W        W31615   3.167  13.781  15.111 -0.3002  0.2676  0.1549
15142W        W31616   6.672   7.727   1.990  0.0284  0.2304  0.2354
15143W        W31617   7.393  10.626   3.089 -0.0630 -0.0705 -0.1877
15144W        W31618   1.394  16.747  12.724 -0.0865 -0.0529  0.1531
15145W        W31619  18.716   7.187  13.367  0.2996  0.2410 -0.2992
15146W        W31620   0.122   3.172   4.525 -0.3624 -0.0624 -0.1843
15147W        W31621   4.064  16.043   2.587  0.1909  0.2701 -0.4970
15148W        W31622   0.602  18.496  11.273 -0.2477 -0.2089  0.2313
15149W        W31623  18.209   4.590   4.966  0.3808 -0.2102 -0.0553
15150W        W31624   7.368   0.749  10.272  0.0220 -0.0164  0.0788
15151W        W31625   4.119   4.808  12.865  0.3793 -0.2109  0.0926
15152W        W31626   6.624   3.937  14.822 -0.2073 -0.0859 -0.0158
15153W        W31627   1.343  18.658  14.907 -0.0334 -0.0187  0.1400
15154W        W31628  12.745  17.287   2.591 -0.0471  0.0959 -0.3246
15155W        W31629   4.188   8.029  14.146 -0.1924 -0.0665  0.1524
15156W        W31630   5.613   3.645  11.903  0.3226 -0.1470 -0.3511
15157W        W31631  12.893  15.779  11.780 -0.2158 -0.3386 -0.0409
15158W        W31632  14.711   0.009  15.516  0.1961  0.0522 -0.1038
15159W        W31633   0.521  15.421   3.433 -0.0697  0.1432  0.2768
15160W        W31634   0.046   8.774   3.974  0.0842  0.3777 -0.1564
15161W        W31635  17.362   6.756   3.520  0.1535  0.2893 -0.0800
15162W        W31636   4.698  13.792   2.256 -0.0866  0.0616 -0.1664
15163W        W31637   2.121   9.105   0.562  0.0542  0.0522  0.0128
15164W        W31638  12.350   6.242   1.821 -0.3503 -0.2000  0.4021
15165W        W31639   9.557  11.726  12.869 -0.2023 -0.1343 -0.1444
15166W        W31640   0.262  18.288   4.135  0.0315  0.1514 -0.0506
15167W        W31641  13.877  13.835  14.093 -0.1619 -0.2421 -0.4698
15168W        W31642   6.115   1.362  14.053 -0.1121 -0.0953  0.2151
15169W        W31643   6.927  11.120  11.943 -0.2783 -0.1079  0.2330
15170W        W31644  18.607   6.994   1.856 -0.0431  0.0699 -0.3033
15171W        W31645   1.909   6.661  11.614 -0.0622 -0.2550  0.1548
15172W        W31646  14.443   4.469   4.903 -0.4754  0.1644  0.0394
15173W        W31647   5.997  10.349   0.342 -0.0980 -0.0703 -0.1519
15174W        W31648  11.629  17.959  11.626  0.2187 -0.1855 -0.3922
15175W        W31649  12.057  18.157   3.564  0.3239 -0.1558  0.0825
15176W        W31650   7.310  12.511   1.653  0.2987 -0.1194 -0.3491
15177W        W31651  12.194  14.420  14.075  0.0380 -0.2520  0.0053
15178W        W31652  16.071  18.357   1.036  0.1936  0.0388 -0.0553
15179W        W31653  13.986  15.806   5.118  0.1290  0.0290  0.0185
15180W        W31654  15.465  13.229  13.469  0.1962  0.0736 -0.0558
15181W        W31655   3.108  12.248  11.582 -0.3510  0.0974  0.3288
15182W        W31656  17.041  17.997   2.468  0.0692  0.1996  0.0131
15183W        W31657   0.584  16.085  12.013 -0.0710  0.3408  0.0691
15184W        W31658   4.234   3.519  11.499 -0.0556 -0.0020  0.1362
15185W        W31659   9.664  11.892   1.234 -0.0182 -0.0069  0.0449
15186W        W31660  17.621   5.591   3.190 -0.0770 -0.0206  0.2697
15187W        W31661   6.794  12.183   4.762  0.0966  0.3244  0.3260
15188W        W31662  17.091   6.337  13.707 -0.1346 -0.0356  0.1233
15189W        W31663  13.280   3.285   0.565 -0.2036  0.1236 -0.1818
15190W        W31664   7.911  13.704  15.220 -0.0212 -0.3203  0.0763
15191W        W31665   7.256   5.131  15.231  0.2992 -0.3059 -0.2545
15192W        W31666  15.917  15.428   1.938 -0.3632 -0.1940  0.1278
15193W        W31667   7.771  16.856   4.292 -0.1359  0.2281 -0.0592
15194W        W31668   6.107   8.721  13.656  0.0877 -0.1304  0.0493
15195W        W31669  10.241   5.529   4.332  0.1657 -0.0982  0.0219
15196W        W31670   2.227  18.647   1.753  0.3790 -0.0426  0.1097
15197W        W31671  12.110  12.625   5.872  0.3487  0.0954  0.1293
15198W        W31672  10.997  15.227   2.007  0.2432  0.3169  0.0114
15199W        W31673   7.502   5.294  13.176 -0.1203  0.0994  0.2298
15200W        W31674   2.059   8.667  14.849 -0.0811 -0.4231 -0.2606
15201W        W31675  10.440  15.038   4.721  0.1359 -0.0448 -0.1547
15202W        W31676   9.054   1.500  14.661  0.1015  0.0502  0.0680
15203W        W31677   1.352  16.739   0.935  0.1658  0.0526 -0.2195
15204W        W31678   8.285   0.040  13.876 -0.2869 -0.0129  0.1262
15205W        W31679  14.427   6.744  11.586 -0.0961  0.2211 -0.3433
15206W        W31680   8.775   4.937  11.100  0.2465 -0.0293  0.1418
15207W        W31681  18.376  18.503  11.716 -0.0817  0.0608  0.0398
15208W        W31682  11.682  11.172   0.733  0.2292  0.0114 -0.3416
15209W        W31683   1.392   3.564   2.772 -0.0829 -0.2611 -0.0814
15210W        W31684   0.975  13.372  13.911  0.0198  0.3876 -0.0315
15211W        W31685  13.075  13.965  12.724 -0.3003 -0.1098  0.1738
15212W        W31686   2.278  16.677  11.330 -0.1978  0.1218  0.1878
15213W        W31687  12.213   9.156   0.542 -0.0777  0.0352  0.1744
15214W        W31688   3.504   8.630   4.521 -0.0757  0.1834  0.0534
15215W        W31689  18.407   1.861   4.874 -0.0512  0.0327  0.1451
15216W        W31690  10.181  17.476   4.892  0.0886 -0.0736 -0.0124
15217W        W31691   1.211   2.336  15.144  0.2296 -0.1303 -0.1425
15218W        W31692   6.932  12.496  11.317  0.1691  0.0457 -0.2221
15219W        W31693   1.883   6.805   3.365 -0.1408 -0.0055 -0.1911
15220W        W31694   9.303   8.519   3.098  0.0869 -0.1350  0.0832
15221W        W31695   9.356   4.165   4.051  0.1123 -0.0370 -0.0176
15222W        W31696  13.705   2.936   0.023 -0.1144 -0.0359  0.1230
15223W        W31697  14.753  10.909  13.241  0.1163 -0.1162 -0.1155
15224W        W31698   4.456  15.727   0.521  0.2256  0.0016 -0.0364
15225W        W31699   5.798  15.907   5.090  0.1128  0.1465  0.1671
15226W        W31700   4.956   1.868   4.409 -0.0917  0.2185 -0.2513
15227W        W31701   8.723  14.740  11.172  0.0589 -0.1704 -0.0394
15228W        W31702  12.368   6.170  12.506 -0.2808  0.1137 -0.0350
15229W        W31703  13.983   2.634   5.110  0.0349 -0.1709 -0.1712
15230W        W31704   4.293   3.114  11.882 -0.0797 -0.0407 -0.0709
15231W        W31705  11.258   6.833  12.286  0.0055 -0.2682 -0.1175
15232W        W31706   9.793   9.573   4.105 -0.0793 -0.0543  0.4658
15233W        W31707   0.790   8.837   0.735  0.1024 -0.4181  0.0508
15234W        W31708  11.942   2.254  12.547  0.0212 -0.2860 -0.6940
15235W        W31709  16.591  12.939   2.194 -0.0135 -0.1233 -0.0218
15236W        W31710  12.406   2.118  11.447 -0.2374  0.0263  0.0317
15237W        W31711  14.568  12.747   2.350  0.1010  0.2529  0.1198
15238W        W31712  10.305  14.500   1.772 -0.2034  0.2067 -0.3073
15239W        W31713  15.975   6.885  12.965  0.1349  0.3152 -0.2334
15240W        W31714   4.555  14.943  10.582  0.0220  0.0548 -0.0362
15241W        W31715  17.127  11.542   3.043  0.0685 -0.0261  0.2175
15242W        W31716   0.997  17.996   3.981  0.2989  0.1791 -0.0569
15243W        W31717   3.208  16.645   1.654 -0.1635  0.0167  0.2438
15244W        W31718   2.484  14.591   2.199  0.4104 -0.2172 -0.0235
15245W        W31719   0.788   9.946  14.468  0.2553 -0.1324 -0.1483
15246W        W31720  11.224  15.699   4.115 -0.2566  0.0984 -0.2919
15247W        W31721  14.210   1.996  11.618 -0.2114 -0.1303 -0.0875
15248W        W31722  12.087  16.082   2.855 -0.0182 -0.1715 -0.0095
15249W        W31723   4.894   8.520  10.887 -0.3156  0.1211  0.1621
15250W        W31724  12.995  12.801   2.588  0.0235 -0.0768  0.0961
15251W        W31725   2.644  15.137  15.517 -0.1386 -0.2058  0.0868
15252W        W31726   2.067  10.087   0.950  0.1070  0.1353 -0.0610
15253W        W31727  13.042   5.728   2.545 -0.2688 -0.0807  0.1769
15254W        W31728  13.600  12.007   0.294  0.0755 -0.2437 -0.0280
15255W        W31729   9.441   8.382  10.379  0.2102 -0.0036  0.3507
15256W        W31730   0.668  10.456   4.324 -0.1544  0.0252 -0.0385
15257W        W31731   3.537  17.815  13.574  0.3210 -0.0198  0.0437
15258W        W31732  17.503  11.447  11.814  0.1003 -0.2130  0.1982
15259W        W31733  11.462  13.664   4.277 -0.0353  0.2980  0.0502
15260W        W31734   8.025  11.757   9.994  0.1116  0.0345 -0.1965
15261W        W31735   6.702   5.885   4.209 -0.1286 -0.0209 -0.0492
15262W        W31736  17.970  15.258  12.130 -0.1327 -0.1597 -0.2391
15263W        W31737   5.716   3.314  11.530  0.0639 -0.0959  0.2277
15264W        W31738   9.998  13.069   3.327 -0.1407  0.0312  0.1722
15265W        W31739   0.705  16.525   0.910 -0.1491 -0.1258 -0.1996
15266W        W31740  18.667   5.709   0.923 -0.1904 -0.0730 -0.1365
15267W        W31741   8.820   6.648  13.006  0.1067  0.1391  0.0654
15268W        W31742  17.608   1.714   4.109  0.0314 -0.1321  0.1998
15269W        W31743  15.557  14.420  12.135 -0.1040 -0.0071  0.0755
15270W        W31744  14.498  17.318  12.691  0.1572  0.2142  0.1185
15271W        W31745  11.609   0.637  14.177 -0.0378  0.1874 -0.1324
15272W        W31746   1.844   2.009  15.485 -0.0317 -0.1004  0.1066
15273W        W31747   9.622  10.080   4.178  0.2906  0.1747 -0.0860
15274W        W31748  12.674   5.796  12.281 -0.0260 -0.2210  0.1089
15275W        W31749  17.760  14.292  13.998 -0.2584  0.0579  0.0257
15276W        W31750  13.679   3.811  10.589 -0.0186  0.3712 -0.0919
15277W        W31751  12.168  18.475  10.600 -0.0614 -0.0094 -0.1722
15278W        W31752   3.056  13.231   0.430  0.3500  0.1637  0.1012
15279W        W31753  15.643  17.352   4.472  0.3613 -0.2193 -0.2781
15280W        W31754   3.045   2.355   3.586  0.0301 -0.1739  0.0548
15281W        W31755  17.044   7.996  13.459  0.1170 -0.1482  0.1037
15282W        W31756   0.582  12.409   3.333  0.0880 -0.2327  0.0309
15283W        W31757   7.634  14.728   1.450  0.1863 -0.1447  0.0999
15284W        W31758   8.770   4.624   3.114 -0.1530 -0.2110  0.2407
15285W        W31759  16.674   7.446  15.348  0.2338 -0.1813 -0.3061
15286W        W31760  17.206  14.998   4.349  0.1789  0.0311  0.0576
15287W        W31761  11.756   2.418   4.214  0.2983 -0.1122 -0.1825
15288W        W31762   4.864  11.389  12.720  0.0635  0.1688 -0.2121
15289W        W31763   1.226  11.538   3.793 -0.2444  0.0966 -0.0427
15290W        W31764  16.180  15.327  15.167 -0.1382 -0.2609  0.0288
15291W        W31765   1.120   6.548  13.656 -0.1211 -0.3282  0.2835
15292W        W31766   3.199  13.999   1.017 -0.0737 -0.2722 -0.1815
15293W        W31767   4.899  14.935   2.284 -0.0975  0.2006 -0.1050
15294W        W31768  18.293   0.946   3.786 -0.2725  0.0862  0.0650
15295W        W31769  14.967  14.215   3.543 -0.1266 -0.1528  0.1703
15296W        W31770  15.113  13.920  14.037  0.1333  0.0392  0.2051
15297W        W31771  15.519   7.591  15.149 -0.2197 -0.1050 -0.0474
15298W        W31772   5.471   3.353  10.762 -0.1682 -0.4255 -0.1712
15299W        W31773   5.614   1.550  11.828  0.1958  0.2001  0.0789
15300W        W31774   0.906   4.630   4.466 -0.2837 -0.1411 -0.0812
15301W        W31775   2.011  13.121   4.772  0.1149 -0.0160 -0.3511
15302W        W31776  16.084  12.793   0.358 -0.3225  0.2166 -0.2891
15303W        W31777  11.152  10.981   0.737  0.1655 -0.1055  0.1206
15304W        W31778  10.981   4.899   5.520  0.0657 -0.2397 -0.0951
15305W        W31779   2.568   7.361   2.519 -0.2844 -0.0314  0.0650
15306W        W31780   2.875   9.625  12.726 -0.2967 -0.1006 -0.1685
15307W        W31781   9.261  14.410   3.389 -0.0099 -0.1212 -0.1938
15308W        W31782   1.315   9.337  11.061  0.2185 -0.3608 -0.0188
15309W        W31783  15.288   0.547  12.522 -0.0454 -0.2331 -0.2272
15310W        W31784   6.642   0.647   0.449 -0.2621  0.0347 -0.2385
15311W        W31785  15.813  15.984  12.638 -0.2176  0.0458  0.2143
15312W        W31786   7.279   1.614   1.542 -0.0916  0.0415 -0.2296
15313W        W31787  12.008   3.315   3.747  0.2409  0.3205 -0.0866
15314W        W31788   2.135  17.414   4.789 -0.0363  0.0168 -0.1473
15315W        W31789   4.756   0.681   2.642  0.1523  0.1199 -0.0181
15316W        W31790  11.019   1.754   1.382 -0.1330  0.1009 -0.0755
15317W        W31791  15.243   9.252  13.319 -0.0177  0.1843 -0.0292
15318W        W31792   7.817  12.286  11.148  0.3092 -0.0675 -0.0098
15319W        W31793   3.358  17.717   2.700  0.0804  0.1990 -0.1557
15320W        W31794   6.939  12.976  12.038 -0.1247  0.1540  0.0621
15321W        W31795   7.710   2.867  14.074  0.2401 -0.2591  0.0724
15322W        W31796  15.547  12.070  11.769 -0.4187  0.1569 -0.1703
15323W        W31797   6.062  14.661  14.229  0.0915 -0.2251 -0.0066
15324W        W31798   0.803   3.438  11.529  0.0601 -0.1344 -0.0367
15325W        W31799  18.625   4.871   0.035  0.1378  0.0338 -0.1336
15326W        W31800  13.000   2.037   3.862 -0.0358 -0.0872 -0.1160
15327W        W31801  15.305  15.881  15.535  0.0074 -0.0159 -0.1830
15328W        W31802  16.261   9.666  15.467 -0.0760 -0.5277  0.2385
15329W        W31803  17.389   2.736   4.964  0.3949  0.2555  0.1443
15330W        W31804  16.485  10.035  12.156 -0.1277 -0.1796  0.1285
15331W        W31805  12.622   4.966  14.283 -0.1676  0.3617 -0.0504
15332W        W31806   8.181   1.876  11.438  0.2121  0.0642 -0.4030
15333W        W31807  12.349  12.596   1.325 -0.1729  0.0999 -0.0616
15334W        W31808  16.653  10.691   3.492  0.1021  0.1449  0.0909
15335W        W31809   6.966   6.091   3.450  0.0116 -0.1570  0.0782
15336W        W31810   8.230   6.865   2.953  0.0676 -0.1650 -0.2090
15337W        W31811   9.893  13.128   1.959 -0.2774  0.2198  0.4192
15338W        W31812  15.456  17.264   0.054  0.1167 -0.2763  0.2160
15339W        W31813  10.180   5.578   1.089  0.0070 -0.1405 -0.2723
15340W        W31814   2.441   9.863  12.953 -0.0876  0.0132  0.1125
15341W        W31815   0.836   8.851  14.906 -0.1163 -0.0443  0.0433
15342W        W31816  10.015  10.606  11.279 -0.2317 -0.2780  0.1556
15343W        W31817   8.872  17.428   5.062 -0.0687 -0.2253 -0.2806
15344W        W31818  16.584   2.801   0.291  0.0751 -0.0384 -0.0595
15345W        W31819   5.769   2.357  14.080  0.0454 -0.0892  0.0613
15346W        W31820   6.415   9.582  13.659 -0.0286 -0.2308  0.0419
15347W        W31821   1.590   5.870  13.236  0.1447 -0.1646  0.2302
15348W        W31822   7.411   2.692  11.148  0.2001  0.4118 -0.1488
15349W        W31823   0.362   9.630  11.559 -0.0466 -0.1294  0.1323
15350W        W31824  15.706   0.441   5.183  0.1344 -0.1159 -0.2319
15351W        W31825   3.640   4.649   1.790  0.0445 -0.0977  0.2256
15352W        W31826  17.753   8.649  14.906  0.1907 -0.2931  0.3722
15353W        W31827  11.174   1.661   4.704 -0.3895 -0.2035 -0.0189
15354W        W31828   5.370   4.730  13.407  0.1054 -0.0163 -0.0253
15355W        W31829   0.254  12.072   3.033 -0.0786 -0.0365 -0.0139
15356W        W31830  15.314  11.648   3.744 -0.2369 -0.0718 -0.3186
15357W        W31831   5.041  14.162  10.682  0.2750  0.1567  0.2641
15358W        W31832  12.299   7.635   2.372  0.0943 -0.0266 -0.2896
15359W        W31833   5.373   0.141   2.456  0.0409  0.0111  0.0522
15360W        W31834  10.856  15.287  13.927 -0.2315  0.0922  0.0084
15361W        W31835  18.279   1.436   1.036 -0.2849 -0.0568  0.0125
15362W        W31836   9.192   4.862  13.952  0.0569  0.0341 -0.0835
15363W        W31837   6.339   4.578  13.315 -0.0383 -0.1655  0.4570
15364W        W31838   8.551  10.672   4.877  0.0606 -0.1951  0.1637
15365W        W31839  10.133   4.893   1.922  0.2279 -0.1791 -0.0509
15366W        W31840  11.052  17.062   3.538 -0.2950 -0.0450  0.0258
15367W        W31841   1.568  11.687  14.311 -0.3354  0.0883  0.3253
15368W        W31842   2.126   4.769  12.720  0.2575  0.1606  0.3157
15369W        W31843   5.996   2.885  15.319 -0.0699 -0.2455  0.0010
15370W        W31844   7.829  17.800  14.182 -0.1025  0.1334  0.2616
15371W        W31845  12.413  16.121   4.376 -0.2361 -0.1442  0.1858
15372W        W31846  13.209   7.266  14.082  0.0240  0.1161  0.1804
15373W        W31847  16.816  15.067   2.514  0.2163 -0.2747  0.1100
15374W        W31848   3.509  14.480  11.492  0.1725  0.2154 -0.0253
15375W        W31849   9.186  13.432   3.795 -0.1719 -0.1345 -0.2407
15376W        W31850   6.763   3.794  11.053 -0.2552 -0.0109  0.2315
15377W        W31851  14.762   1.443   0.589  0.3309 -0.1253  0.1829
15378W        W31852  10.417  16.198  12.447  0.5193  0.1459  0.2055
15379W        W31853   9.470   5.185  12.390 -0.0345 -0.1282  0.0807
15380W        W31854  13.849  15.954   1.163  0.0350  0.2173  0.2575
15381W        W31855   1.442   5.075  11.459  0.0573  0.0512  0.1892
15382W        W31856  11.073   6.240   3.653  0.0075 -0.2759  0.0531
15383W        W31857   3.834   2.762   3.017 -0.1895  0.1058  0.2122
15384W        W31858   6.308  10.620   0.695  0.5669 -0.0013 -0.1953
15385W        W31859   6.572  14.419   1.947  0.1424 -0.2290  0.0299
15386W        W31860  14.407  11.061   2.471 -0.1254  0.1971  0.0784
15387W        W31861  10.265   1.205   0.112  0.0673  0.0165 -0.1390
15388W        W31862  16.780   3.765   5.085 -0.2132 -0.0780 -0.0465
15389W        W31863  13.610  10.009   0.798  0.0226 -0.3942  0.2744
15390W        W31864   1.508  13.318  13.869 -0.0974  0.2419  0.1383
15391W        W31865  11.907   2.509  12.055 -0.2141 -0.0157 -0.2855
15392W        W31866  13.876  18.717  14.666  0.0433  0.1258 -0.0039
15393W        W31867   4.167   5.075  14.079  0.0880  0.2398  0.0453
15394W        W31868   9.827  13.832   1.703  0.1351  0.0730 -0.1809
15395W        W31869   6.137   3.524  14.645  0.0121  0.3619  0.1697
15396W        W31870  15.074  12.926  15.118  0.0404 -0.0004  0.0587
15397W        W31871   3.495   4.968   3.804 -0.0181  0.3406 -0.1136
15398W        W31872  12.276  18.626  12.600  0.1352 -0.0151 -0.0784
15399W        W31873  17.456   8.388  11.694 -0.0525 -0.1314  0.0916
15400W        W31874  16.978   9.414  13.862 -0.0491  0.1230  0.0689
15401W        W31875   2.395   9.334  10.178 -0.0009 -0.2271  0.0988
15402W        W31876  11.786   1.356  11.629 -0.1058  0.1540  0.0541
15403W        W31877   3.572   0.977  14.397 -0.1015  0.2513 -0.0466
15404W        W31878  15.357   7.592  11.958 -0.1694 -0.0256  0.2017
15405W        W31879  18.407   2.348  12.785  0.0279 -0.1073 -0.2037
15406W        W31880  18.547   3.795   0.459 -0.0621 -0.3154 -0.0360
15407W        W31881  12.934  12.563   0.459 -0.0386 -0.2167  0.1291
15408W        W31882  13.787  16.990  12.400 -0.2575  0.1300 -0.1489
15409W        W31883  11.648   4.233   3.933 -0.2428 -0.1867  0.0198
15410W        W31884   5.312  12.960   3.622 -0.1103  0.3757 -0.0459
15411W        W31885  14.498  14.632  14.407 -0.1759  0.0883  0.3451
15412W        W31886  14.345  14.975   4.431 -0.1050 -0.1425  0.0740
15413W        W31887  11.394   5.432  13.865 -0.3032 -0.0909  0.1411
15414W        W31888  12.923   6.237  13.608  0.1038  0.0395  0.2798
15415W        W31889   1.778   7.235  14.196  0.0194 -0.0435 -0.0300
15416W        W31890  17.127   6.264  11.606  0.2128  0.1788  0.0343
15417W        W31891   0.990  15.264   3.616 -0.0130 -0.0619  0.0727
15418W        W31892   8.713  14.371  12.980 -0.0827  0.0665 -0.0937
15419W        W31893   0.746  14.846  14.283  0.1421  0.0537  0.0583
15420W        W31894  17.478  16.081   2.118  0.1816 -0.1292  0.1085
15421W        W31895   0.212   4.516   0.585 -0.2838 -0.1477  0.3600
15422W        W31896   9.101   1.271  10.618 -0.0460 -0.0882  0.0064
15423W        W31897   2.113  16.929  15.144  0.1669 -0.1543  0.2299
15424W        W31898  12.830  16.390   2.591 -0.1091 -0.1930 -0.1400
15425W        W31899  15.965  15.315  11.797 -0.0394  0.0219  0.0326
15426W        W31900  13.559  17.703  11.203 -0.4211  0.2063 -0.3029
15427W        W31901  15.686   3.148   2.462  0.1823 -0.0992 -0.0240
15428W        W31902  16.846   8.805  15.342  0.2774  0.0838  0.0151
15429W        W31903  17.758   7.152   3.838  0.2494 -0.0656 -0.1864
15430W        W31904  16.094  13.555   4.751 -0.0361 -0.2778 -0.1148
15431W        W31905   4.420   8.995  12.968  0.2549 -0.1020 -0.1708
15432W        W31906  14.952  13.007  12.065 -0.0382  0.0806 -0.1817
15433W        W31907   8.332   7.169  14.841 -0.1551  0.0623  0.0397
15434W        W31908   1.704  17.045  12.966 -0.1440 -0.0793 -0.4351
15435W        W31909  13.796   8.419  14.600  0.0233  0.3868  0.2152
15436W        W31910   8.117  13.931   0.614  0.1526 -0.0163 -0.1176
15437W        W31911  15.278   6.083   5.421 -0.3245 -0.1217  0.0712
15438W        W31912   8.215   6.698  11.094  0.0046  0.0572 -0.3281
15439W        W31913   5.703  16.057  13.148 -0.0999  0.1073  0.2046
15440W        W31914   2.522  11.632  13.251 -0.1967 -0.0790  0.4431
15441W        W31915   5.190   3.968  12.675  0.0478 -0.1425  0.0584
15442W        W31916   5.078   5.190  11.906 -0.1904  0.3428 -0.2436
15443W        W31917   5.196  16.421  15.107 -0.0708  0.1466 -0.1514
15444W        W31918   1.544  13.192  13.096  0.1826  0.0638 -0.0749
15445W        W31919   0.601  15.525  10.686 -0.0802 -0.1726  0.1791
15446W        W31920   8.051  17.830  13.202  0.1708  0.0535  0.0784
15447W        W31921  17.871  17.766   0.690  0.1314 -0.3209  0.1628
15448W        W31922   2.013  16.149   0.802  0.1946 -0.1391 -0.0329
15449W        W31923   9.460   9.392  13.139  0.0162 -0.3395  0.1500
15450W        W31924   2.199  18.320  11.663  0.2232 -0.1947 -0.3381
15451W        W31925   0.242   3.269  14.225  0.0276  0.0036  0.0065
15452W        W31926  16.096  13.818   3.621  0.1468  0.1246  0.1084
15453W        W31927  14.574   8.436   4.387 -0.1102 -0.0950 -0.2096
15454W        W31928  12.246   5.839   3.246 -0.0636  0.2833  0.1817
15455W        W31929  11.687  12.695  13.700 -0.2341 -0.0247  0.1562
15456W        W31930  17.729  16.965   3.121  0.2908  0.4169 -0.2403
15457W        W31931   8.397   3.816  13.468  0.1742  0.0053 -0.1256
15458W        W31932  16.735  18.384   5.868  0.2385  0.4406  0.3982
15459W        W31933   2.369   1.429  15.329 -0.1914 -0.0589  0.1276
15460W        W31934  18.140  18.156   3.524  0.1235 -0.0680 -0.0955
15461W        W31935   5.162  16.842  11.811  0.0330 -0.2297 -0.2114
15462W        W31936  10.647  11.531   4.037  0.0333 -0.0580 -0.0337
15463W        W31937  13.846  15.707   2.236 -0.1252 -0.0285 -0.0553
15464W        W31938  13.481   7.723  14.018 -0.2329 -0.2075  0.3278
15465W        W31939   6.746   0.096  12.340 -0.2736  0.0282 -0.1444
15466W        W31940  11.284   2.574   4.511  0.1255 -0.2121  0.0706
15467W        W31941   2.473   2.994   1.972 -0.2472  0.2615 -0.1644
15468W        W31942   8.374  17.284  13.853  0.1345 -0.1859 -0.0812
15469W        W31943   8.303   6.089   0.850  0.2748  0.2840 -0.0664
15470W        W31944  13.099   0.480   5.131  0.3411  0.1321  0.0414
15471W        W31945   3.113  12.768   1.564  0.0906  0.0398 -0.0274
15472W        W31946   8.167   0.804   4.955 -0.0807 -0.0398  0.0475
15473W        W31947   6.348   5.911   2.957  0.1643  0.2158 -0.1150
15474W        W31948   4.699  18.680   2.958 -0.2520  0.2713  0.1466
15475W        W31949   3.644   1.243  11.819 -0.0153  0.0175 -0.1304
15476W        W31950   7.804   0.935  14.516 -0.0620 -0.1918 -0.2146
15477W        W31951   6.162   0.348  11.999 -0.2140 -0.2423  0.0008
15478W        W31952  13.593  16.643   0.670 -0.0031  0.0649  0.0113
15479W        W31953  16.343  11.501  11.848 -0.0379 -0.1089  0.2533
15480W        W31954  15.182   9.558  14.300  0.1646  0.1916  0.1589
15481W        W31955  17.901   2.156   2.012  0.1396 -0.1353  0.3501
15482W        W31956   6.573  15.315  12.547  0.3005  0.0238 -0.1078
15483W        W31957   7.837  15.139  12.576 -0.0395 -0.2389  0.0360
15484W        W31958  10.156   5.188   2.301 -0.0289 -0.3136  0.1668
15485W        W31959  15.210  18.043  12.228 -0.0336 -0.2753  0.4937
15486W        W31960   6.605   8.806   3.605  0.1676 -0.0555 -0.0659
15487W        W31961   2.862  12.689  13.611  0.1908  0.0691 -0.0099
15488W        W31962  13.232  14.296   4.884  0.0550 -0.0976  0.1439
15489W        W31963  14.437   8.295  15.484 -0.0104 -0.0006  0.1184
15490W        W31964  13.271   6.004  14.429  0.1401  0.1626 -0.1928
15491W        W31965  17.296  12.363   4.482  0.1848 -0.0977 -0.1726
15492W        W31966  17.972   6.933  15.402  0.0340 -0.1477 -0.3104
15493W        W31967   8.964   7.078   9.941 -0.2458  0.0040 -0.0912
15494W        W31968  13.089  17.646   2.236 -0.2510  0.1525  0.3367
15495W        W31969   5.978  11.187  14.742 -0.0220 -0.1075 -0.0554
15496W        W31970  13.327  10.932   3.678  0.0179  0.2941  0.0660
15497W        W31971  15.753   9.988   3.885 -0.0475  0.2274  0.1850
15498W        W31972  16.514  13.471   2.296 -0.1594  0.0603 -0.0289
15499W        W31973  15.998   8.151   9.859  0.0945  0.2866 -0.2684
15500W        W31974   9.192  16.890   0.632  0.1954 -0.2328  0.1524
15501W        W31975   8.273   1.691   4.907 -0.0300  0.2442 -0.0189
15502W        W31976  14.147  13.066   2.220  0.3216 -0.2046  0.2103
15503W        W31977   1.964  10.540  12.672  0.0420 -0.2313  0.2305
15504W        W31978   8.884   5.186  15.399 -0.1900  0.1736  0.1957
15505W        W31979  16.483  14.612   1.116 -0.0721 -0.1267  0.2536
15506W        W31980   4.854  11.731   2.753 -0.1933 -0.4911 -0.0206
15507W        W31981   6.582   2.526  10.622 -0.2617 -0.2523  0.1846
15508W        W31982   1.536   1.166  14.083 -0.1197 -0.2104 -0.0111
15509W        W31983   7.661  15.090  13.482 -0.0981 -0.1131  0.2902
15510W        W31984   4.570   4.874   0.719  0.1344 -0.1494  0.0170
15511W        W31985   2.260   1.474  13.642 -0.0597 -0.2608  0.0322
15512W        W31986  17.571  12.614   1.634  0.1784 -0.0344 -0.2715
15513W        W31987  18.099  10.882  12.333  0.4145  0.3027 -0.3054
15514W        W31988  14.582   1.583   5.732  0.1117 -0.2918  0.1326
15515W        W31989   8.181  12.846   4.943  0.0251  0.0324 -0.1025
15516W        W31990   2.731  13.658  15.369  0.1908  0.1595 -0.1221
15517W        W31991   6.641   1.656  11.080 -0.1679  0.0276  0.3211
15518W        W31992   7.671  16.726  13.050  0.0662 -0.3335 -0.1133
15519W        W31993   6.268  12.657   3.212 -0.1275  0.0020  0.0300
15520W        W31994  16.942  13.487   3.876  0.2562 -0.0567 -0.1634
15521W        W31995  16.171  13.198   5.051  0.0942  0.0197 -0.1407
15522W        W31996  15.611   9.149  13.681 -0.1359  0.1482  0.1551
15523W        W31997  17.911  13.890  13.683  0.0345 -0.0429  0.1719
15524W        W31998   0.127   4.927  13.748  0.2091  0.3183 -0.0735
15525W        W31999   5.062   8.715  11.339 -0.0609 -0.0066  0.0004
15526W        W32000  16.238   0.224  12.604  0.1258  0.2487 -0.0866
15527W        W32001  11.027   1.257   5.057 -0.0049 -0.2625 -0.1245
15528W        W32002   9.305   3.629   4.104  0.0352  0.1596 -0.0517
15529W        W32003   3.628   1.713  14.229  0.0250  0.0555  0.3883
15530W        W32004  18.635  17.083  10.524  0.2125  0.1983 -0.1506
15531W        W32005   3.117   2.262  15.236 -0.0876  0.3669 -0.0447
15532W        W32006   2.176   6.494  11.216 -0.1782 -0.0378 -0.3300
15533W        W32007  17.517   6.280  13.948  0.1350 -0.2405 -0.0184
15534W        W32008  10.622   4.585   1.971  0.2673 -0.1121  0.0393
15535W        W32009  10.422   3.039   1.556  0.3702 -0.0703  0.1120
15536W        W32010  18.705  11.770  14.469 -0.0429  0.0422  0.2585
15537W        W32011  17.976   1.875  14.207 -0.1428  0.1846 -0.2459
15538W        W32012  15.427   4.155   4.877 -0.1043  0.1880 -0.0329
15539W        W32013  12.505   6.669  14.475 -0.2924  0.0715  0.1032
15540W        W32014   0.040   0.605  14.227  0.1218  0.0634 -0.0730
15541W        W32015   3.105   3.116  10.481  0.1430 -0.0538 -0.1461
15542W        W32016   9.971  18.156   3.835  0.2998  0.0824 -0.0636
15543W        W32017   6.589  11.401  11.031  0.0406 -0.0218 -0.0712
15544W        W32018   1.134   5.515   3.566 -0.0487  0.1908 -0.0941
15545W        W32019  17.392   4.896   4.581  0.1239  0.0125 -0.0065
15546W        W32020  11.058   5.282  11.085  0.0637  0.0236 -0.2561
15547W        W32021   5.723  14.739  12.578  0.2872  0.0850 -0.1541
15548W        W32022  13.298  14.313   3.851 -0.1973  0.5154  0.1880
15549W        W32023   0.826   2.507  13.908 -0.0664  0.0706  0.1085
15550W        W32024   6.341  17.001  12.911  0.1710 -0.3415  0.0208
15551W        W32025   8.550  13.052  13.710  0.4219  0.3200 -0.0187
15552W        W32026   6.120   0.101   3.357 -0.1101  0.0034  0.0964
15553W        W32027  14.604   0.208  13.016 -0.1241  0.1864  0.0111
15554W        W32028   9.889   7.250  12.308 -0.0661  0.1300  0.0506
15555W        W32029  10.112   8.304  15.421  0.1604  0.0073  0.1234
15556W        W32030   4.667   4.390   1.823  0.0180  0.2147 -0.2371
15557W        W32031  10.859   3.847   4.408 -0.2442  0.1706  0.0172
15558W        W32032   4.912  15.093   3.851 -0.1535 -0.0584  0.0165
15559W        W32033  15.040   7.615   0.305 -0.1191  0.2468  0.1289
15560W        W32034  17.953   5.279  14.869 -0.0967 -0.0887 -0.1866
15561W        W32035   9.332  11.405   0.225  0.0489  0.0436  0.0259
15562W        W32036  15.454  17.597   1.207  0.1391  0.2175  0.1057
15563W        W32037  10.830  13.163   3.660 -0.1306 -0.1591  0.2745
15564W        W32038   5.116  16.224   3.996 -0.3635  0.0666 -0.3106
15565W        W32039  12.065   0.568   0.412 -0.3088  0.0977  0.1629
15566W        W32040   9.120   0.861  10.942  0.1411 -0.0738  0.0264
15567W        W32041  15.519   2.602  12.450  0.0324 -0.0648 -0.1421
15568W        W32042   9.024   2.162  11.304  0.2075  0.0830  0.1680
15569W        W32043   9.342   4.592   1.682 -0.0846 -0.0860 -0.0360
15570W        W32044   2.273  12.766  11.928 -0.0468  0.1626  0.0215
15571W        W32045   3.041  13.427  13.207 -0.2518  0.1102 -0.1510
15572W        W32046   6.169   0.783  10.820  0.3425 -0.2371 -0.1496
15573W        W32047  16.657  16.167  13.618  0.0028 -0.1819 -0.0464
15574W        W32048  12.224  15.007   5.951  0.2075 -0.1933  0.0080
15575W        W32049   1.802   4.865  10.699 -0.2451  0.0874  0.0309
15576W        W32050  13.405   8.693  13.604  0.0852  0.0096  0.0357
15577W        W32051  17.942   6.953   1.285 -0.1108 -0.0539  0.0154
15578W        W32052  16.111   8.478   3.019 -0.1958 -0.0723 -0.2028
15579W        W32053   6.272  12.419   2.169  0.3123 -0.2341  0.1267
15580W        W32054  11.319  14.297   5.557 -0.0294 -0.1323  0.1160
15581W        W32055  11.617  11.210   4.750  0.0635 -0.0089 -0.0242
15582W        W32056  11.020  11.000   3.122 -0.1908  0.2003 -0.1491
15583W        W32057  11.731   5.969   4.690  0.2764  0.0077  0.0542
15584W        W32058   6.223   0.119  12.429 -0.1541  0.3842  0.0330
15585W        W32059  12.537  13.157  13.715  0.1373 -0.0152 -0.1142
15586W        W32060  16.287  14.654  13.042  0.0062 -0.1222 -0.2280
15587W        W32061   7.519  16.190  13.037 -0.3195  0.2857  0.1557
15588W        W32062   0.851  14.754   0.624  0.0852  0.3778 -0.2101
15589W        W32063   9.249   6.114   0.993 -0.0228 -0.1527  0.1726
15590W        W32064   3.712   9.436  15.435  0.0635  0.1142  0.0751
15591W        W32065   1.518   1.895  13.710  0.2185 -0.1976  0.0023
15592W        W32066   7.967   6.672   5.098 -0.1903 -0.0966  0.4035
15593W        W32067  16.238  13.343  12.922  0.1973  0.0182 -0.1521
15594W        W32068  13.510   2.160  14.347 -0.2707 -0.0529  0.0117
15595W        W32069   3.863   7.961  10.854  0.4643  0.2153 -0.0200
15596W        W32070  10.368  14.143   0.859  0.0793  0.1637  0.2350
15597W        W32071   9.829  10.281  12.974  0.0951 -0.1828 -0.0227
15598W        W32072  13.055  12.432  14.831  0.3143 -0.0131  0.0504
15599W        W32073   7.852   7.451   4.167 -0.1735 -0.0220 -0.2701
15600W        W32074  16.472  10.561  14.294 -0.0142 -0.1141 -0.1647
15601W        W32075   9.552   4.975   4.157  0.2202 -0.0895  0.1869
15602W        W32076   9.722   6.660   1.780  0.2226 -0.2746 -0.1891
15603W        W32077   1.829  10.763  14.483 -0.0450  0.1384  0.0971
15604W        W32078   5.821  10.469  15.006  0.0019  0.0299  0.2303
15605W        W32079  18.232  14.072  14.974  0.2399 -0.3136  0.0632
15606W        W32080  10.806   5.610  13.445  0.0729 -0.1266  0.0041
15607W        W32081  15.112   3.687   3.648  0.0476 -0.2278 -0.0078
15608W        W32082   8.408  17.616  15.516  0.0410  0.1530  0.0908
15609W        W32083  15.242   8.204  13.968  0.2156  0.0872 -0.2047
15610W        W32084   8.937   3.666   5.089  0.2571  0.2701 -0.3570
15611W        W32085   2.504   3.270   1.559 -0.2292 -0.1801 -0.0896
15612W        W32086  11.437  12.046   1.358 -0.1573  0.1086  0.2127
15613W        W32087   5.796  12.817   1.657 -0.0406  0.3337  0.0055
15614W        W32088   3.405  11.044   0.113  0.1598 -0.0284  0.1352
15615W        W32089   6.315  17.045  15.332 -0.0962  0.1589 -0.2080
15616W        W32090  11.382   5.733   3.509 -0.0029 -0.0611  0.0901
15617W        W32091   4.743  13.736   0.537  0.0701  0.0756  0.2782
15618W        W32092   3.337   0.520  14.293 -0.4319 -0.0060  0.1743
15619W        W32093   8.091   5.303   2.936 -0.1673  0.0886 -0.3845
15620W        W32094   6.118  10.768   1.346 -0.0705 -0.1143 -0.3889
15621W        W32095  17.990  12.199  13.195  0.0496  0.0527  0.4184
15622W        W32096  11.098  12.978   0.919 -0.0143  0.1768 -0.3582
15623W        W32097   2.734   2.720   4.721  0.0026 -0.0922 -0.2722
15624W        W32098   4.867   8.496   1.068 -0.4273  0.3022 -0.1205
15625W        W32099   2.345   5.535   3.836  0.1425 -0.2011  0.1501
15626W        W32100   9.826  16.334   0.194 -0.1016 -0.2531 -0.2099
15627W        W32101   2.728  11.939   2.713  0.1571  0.2171 -0.0246
15628W        W32102   1.069   3.882  13.095  0.1642  0.1326  0.0496
15629W        W32103  17.947   7.547  14.793  0.2226 -0.0704  0.0602
15630W        W32104   2.178   9.458   4.932  0.1125 -0.2141  0.1848
15631W        W32105  12.760   7.047  10.571 -0.0725 -0.0456 -0.1376
15632W        W32106   4.983   6.283   3.606 -0.2303  0.0298 -0.0098
15633W        W32107   7.085   9.059   4.970 -0.2583 -0.3026 -0.0685
15634W        W32108  18.536  15.172   2.134 -0.1588 -0.2364  0.0109
15635W        W32109   8.608   9.970   0.917  0.0916 -0.0176 -0.0061
15636W        W32110  11.494  15.550   4.571 -0.1667 -0.4631  0.1898
15637W        W32111  17.344  11.660   5.487  0.1624 -0.3954  0.1661
15638W        W32112  10.639  17.985  11.732 -0.0549  0.0899 -0.2046
15639W        W32113   9.816   9.387   2.850 -0.0926  0.0057  0.1410
15640W        W32114   9.153  11.329   3.901 -0.1778  0.0015 -0.2869
15641W        W32115  12.625   9.331   4.077  0.0425 -0.1507  0.3493
15642W        W32116   7.222  15.983   3.058 -0.1085 -0.3944 -0.2145
15643W        W32117   6.471  11.358  11.677  0.0571 -0.0444  0.2672
15644W        W32118   4.246  13.923  12.557  0.0345 -0.1679  0.2171
15645W        W32119   6.049  11.101   0.768 -0.3662 -0.1921  0.1103
15646W        W32120   7.037   2.669   4.864  0.0883 -0.0475  0.0584
15647W        W32121   1.416   7.734   4.234  0.3456  0.0261 -0.1313
15648W        W32122   0.006   1.459  11.045  0.3890  0.0589 -0.2816
15649W        W32123  10.058  12.893  11.848 -0.0027  0.0035 -0.1220
15650W        W32124  15.142   5.945   3.696  0.0390 -0.3105 -0.0775
15651W        W32125   1.804   5.838  12.521  0.0880 -0.3504 -0.1799
15652W        W32126  16.696   4.380  14.542  0.1068  0.2264 -0.0936
15653W        W32127   1.913  14.636   4.200 -0.0656  0.0031 -0.2614
15654W        W32128  11.725   7.932  12.353 -0.3031 -0.1153  0.1617
15655W        W32129   3.825  13.432   5.672  0.3209  0.1013  0.0562
15656W        W32130   8.355  10.550  15.145  0.0053  0.1013  0.3720
15657W        W32131  13.020   0.061   3.307  0.1581 -0.1436 -0.0055
15658W        W32132   3.368   4.986   1.547  0.0220  0.3068 -0.1303
15659W        W32133   2.485   2.929  15.188 -0.1564  0.2108  0.1906
15660W        W32134   2.670   6.019  12.682 -0.1307  0.2284 -0.3560
15661W        W32135  14.494  16.230   3.326 -0.1174 -0.0321 -0.3317
15662W        W32136  13.097   2.548   3.933 -0.0755 -0.1581 -0.1633
15663W        W32137   2.946  13.730   2.997  0.1432 -0.2545 -0.1430
15664W        W32138   1.101  17.509   4.871 -0.1509 -0.1600 -0.3205
15665W        W32139  12.067   6.994   1.812  0.2183  0.0098 -0.1142
15666W        W32140  13.544  10.746  10.022 -0.0049 -0.0505  0.0333
15667W        W32141  13.653  15.281  11.862  0.0587 -0.1264  0.0146
15668W        W32142  17.568  12.019  15.278 -0.1904  0.1002  0.0411
15669W        W32143  15.051   6.695  15.554 -0.0818 -0.1444 -0.0210
15670W        W32144   9.343  16.092   3.088  0.0482 -0.1964  0.0691
15671W        W32145  12.486  15.607  11.191 -0.1283  0.0465  0.1745
15672W        W32146  14.469   8.994  13.170 -0.0683  0.0349 -0.0017
15673W        W32147   1.756  14.117   1.539  0.1682  0.0002 -0.1753
15674W        W32148  12.023  13.048  13.814 -0.0996  0.0827 -0.2679
15675W        W32149   1.104  17.743   5.294  0.2210 -0.2033 -0.0729
15676W        W32150  14.635  18.723   1.630  0.0272 -0.1295  0.0185
15677W        W32151  16.154   3.643  13.482  0.1940 -0.2017  0.0431
15678W        W32152   2.453   9.772  10.848 -0.3510  0.1879 -0.0912
15679W        W32153  18.468  17.777   1.537 -0.0938  0.1767 -0.2562
15680W        W32154   6.275  11.355   3.274  0.1656 -0.0441 -0.2884
15681W        W32155   7.508   2.414  14.253  0.2732  0.0564 -0.1581
15682W        W32156  10.417   0.235   4.021  0.0305 -0.2468 -0.0246
15683W        W32157   7.550   7.954  12.607  0.3486 -0.1979 -0.2699
15684W        W32158  13.868  18.322   3.038  0.4148  0.3818 -0.0365
15685W        W32159  10.166   6.485   3.215 -0.3090 -0.0670  0.1283
15686W        W32160  15.297  13.407  11.869 -0.1198  0.2179  0.1749
15687W        W32161   4.478   4.411  11.325 -0.4052 -0.0957  0.2233
15688W        W32162  10.714  10.666   0.619 -0.0920 -0.0609  0.1301
15689W        W32163   5.006   1.813   5.158  0.0226 -0.1301  0.0276
15690W        W32164  14.487  14.127  11.515  0.0800  0.0416  0.0213
15691W        W32165  12.239  11.212  11.361 -0.3324 -0.1746  0.1612
15692W        W32166   9.842  12.331   4.151 -0.0165  0.1897  0.1085
15693W        W32167  15.881   2.684   2.547 -0.0052 -0.3105 -0.3826
15694W        W32168  11.109   2.840   3.155  0.0875 -0.1071 -0.0465
15695W        W32169   3.952   9.852   4.443 -0.0234  0.1280  0.1907
15696W        W32170   3.605  14.672   4.968 -0.3400  0.1863 -0.0247
15697W        W32171   6.905  16.150  12.368  0.0584  0.1468  0.0654
15698W        W32172  10.596   4.202  10.368 -0.1516  0.4527  0.0943
15699W        W32173  17.464   5.925   4.419  0.2093  0.1680 -0.1469
15700W        W32174  10.885  13.594  13.799 -0.0166 -0.1180 -0.0365
15701W        W32175   1.853  11.898  13.390 -0.5010 -0.2127  0.1643
15702W        W32176   6.333   4.200   3.791  0.2581 -0.1295  0.0219
15703W        W32177   0.215   1.196   2.492 -0.0268 -0.2260 -0.2002
15704W        W32178   2.995   5.248  13.634  0.0139 -0.2307 -0.3447
15705W        W32179  14.913   1.717  12.312  0.1629  0.2409 -0.2926
15706W        W32180  16.673   6.160  11.866  0.0371 -0.5539  0.0561
15707W        W32181   3.521  10.158   4.319 -0.3007  0.0369  0.1388
15708W        W32182  14.607   9.622   0.907  0.0716 -0.0387  0.0294
15709W        W32183  18.287   7.215  12.901  0.0326  0.2485  0.0279
15710W        W32184  14.879  12.425   3.013 -0.2725 -0.0623  0.0857
15711W        W32185  17.711   6.583   4.034  0.1096  0.1905  0.0559
15712W        W32186   7.432  13.662  15.283  0.3069 -0.0351 -0.0743
15713W        W32187  10.505   6.848  11.607 -0.3338  0.0710 -0.0861
15714W        W32188   7.808  17.658   1.392 -0.1450 -0.0504 -0.2399
15715W        W32189   7.558  16.991  14.361 -0.3687  0.3651  0.0685
15716W        W32190  14.856   0.798   4.304  0.2925  0.0972 -0.3521
15717W        W32191   8.037  13.157  12.799  0.0016  0.2460 -0.0633
15718W        W32192   4.952   3.692  13.086 -0.1568 -0.0684 -0.0967
15719W        W32193  18.276  17.818   0.292 -0.0372 -0.0261 -0.0722
15720W        W32194   2.181   3.082   4.061 -0.1604  0.0408 -0.4733
15721W        W32195   6.145   0.420   3.743 -0.0467 -0.1661  0.1172
15722W        W32196   5.561   8.343   0.089  0.1333 -0.0137 -0.0208
15723W        W32197   7.683  13.329   3.216  0.0062 -0.1029 -0.1490
15724W        W32198  17.575  10.924  12.462  0.1128 -0.1021  0.2092
15725W        W32199  14.305  11.714   5.878 -0.0226  0.2204 -0.0982
15726W        W32200  13.341  18.362   5.317 -0.0427  0.0488  0.0705
15727W        W32201   6.529  13.878   2.379 -0.2043  0.1917 -0.0328
15728W        W32202  12.102   0.644   0.889 -0.0469  0.1625  0.0436
15729W        W32203   1.360   2.731   2.974  0.0052 -0.1151 -0.2335
15730W        W32204   1.209   1.277   1.447  0.3275 -0.1188  0.0257
15731W        W32205  16.858  18.775   4.986 -0.0690  0.0151  0.0989
15732W        W32206   8.128  12.468  12.461  0.3681 -0.0341 -0.1487
15733W        W32207  11.397  12.714   4.502 -0.0944 -0.0753 -0.0247
15734W        W32208  12.719  16.019   0.128 -0.0689 -0.1610  0.0271
15735W        W32209   4.298  17.687  12.298 -0.1989 -0.3143  0.0162
15736W        W32210  18.272   1.196   4.931 -0.1913  0.3582  0.3096
15737W        W32211  17.317   5.619   3.986 -0.1745  0.1216  0.2144
15738W        W32212   7.318  12.128   3.601  0.0874  0.2686 -0.0389
15739W        W32213  14.843   8.017   4.018 -0.1701 -0.1615  0.1836
15740W        W32214   8.771   1.376   5.727 -0.0354  0.1486  0.1562
15741W        W32215  12.137   2.091   2.256 -0.1191 -0.0873  0.0921
15742W        W32216   8.694  16.411   0.904 -0.0991  0.1156  0.1396
15743W        W32217  16.940  11.681  15.510 -0.2229 -0.3935  0.1590
15744W        W32218   8.114  11.871   0.240  0.1647 -0.1460 -0.0098
15745W        W32219   1.341  11.952  11.826 -0.1080 -0.0922 -0.2274
15746W        W32220   0.628   1.475   3.194 -0.3186 -0.0711  0.0152
15747W        W32221   6.431   3.584   1.968  0.0168 -0.3850 -0.0822
15748W        W32222   0.940   3.381  12.547  0.0554  0.3849 -0.0601
15749W        W32223  10.457   9.563  14.154 -0.0305  0.2710 -0.1573
15750W        W32224   6.164   9.168  13.386  0.0789 -0.0787  0.1340
15751W        W32225   1.831  13.495  13.502 -0.2358 -0.0300 -0.0421
15752W        W32226   6.747   3.983  11.684  0.0766 -0.2052 -0.1202
15753W        W32227   0.500  14.005   3.056 -0.0463  0.1450 -0.1007
15754W        W32228   3.901   1.145   2.733 -0.0173 -0.0098  0.2338
15755W        W32229   6.915  15.198   6.211  0.0710  0.0097 -0.4357
15756W        W32230   4.855   5.141  12.638 -0.1061  0.0902  0.0033
15757W        W32231   6.455   6.908  13.472 -0.4268 -0.2075  0.0286
15758W        W32232   6.914  11.873  12.037 -0.0225  0.0028  0.2622
15759W        W32233   3.368   2.818   3.545  0.0964 -0.0234  0.0800
15760W        W32234  12.867   0.100  12.012  0.1475 -0.2279  0.0618
15761W        W32235   4.896  18.561   3.388 -0.0316 -0.1570 -0.0378
15762W        W32236  18.637   8.728   5.269  0.3945 -0.2071  0.0750
15763W        W32237   0.579  12.411   5.700  0.0586  0.0960  0.1165
15764W        W32238   9.384  17.468   0.630 -0.0929 -0.1283 -0.0701
15765W        W32239   5.297  12.592  11.659 -0.0916  0.0201  0.1948
15766W        W32240   2.316  17.117  12.698 -0.4514  0.1091 -0.2065
15767W        W32241   5.119  14.551  12.948  0.3991 -0.0448 -0.1106
15768W        W32242  10.737  12.095   4.722  0.3176  0.2671  0.2119
15769W        W32243   2.563   8.945  12.790  0.0502 -0.0812  0.1252
15770W        W32244   3.431   3.442  13.957 -0.2137 -0.0688  0.1959
15771W        W32245  13.360   2.687  14.121  0.0057  0.1342 -0.0682
15772W        W32246   0.378  17.881   1.243 -0.2976  0.1620  0.2550
15773W        W32247  18.658   8.336   1.762  0.0796 -0.2155 -0.2830
15774W        W32248   5.309   9.127   4.094  0.0234 -0.2987 -0.0834
15775W        W32249  18.640   5.156   1.102  0.0113 -0.1448  0.2974
15776W        W32250   1.806  16.140   3.865  0.1493  0.0177  0.0174
15777W        W32251  10.986  10.334   5.408  0.1505  0.1623 -0.2245
15778W        W32252  14.057  14.728   1.583 -0.0450 -0.4690 -0.1709
15779W        W32253  12.459  11.612   4.188  0.0555 -0.0502 -0.0390
15780W        W32254  12.583  13.593   0.109 -0.0600  0.2132  0.1169
15781W        W32255   4.087   3.770  10.742 -0.1082 -0.0925 -0.0537
15782W        W32256   5.181  17.378  11.947  0.2698 -0.0331 -0.0709
15783W        W32257   5.519  12.019   5.196  0.0344 -0.2885 -0.1995
15784W        W32258   7.330   3.892   5.068  0.1996 -0.1885  0.0707
15785W        W32259   1.397  12.935   0.077 -0.0285 -0.0686  0.1419
15786W        W32260  18.113   3.604   1.438 -0.0033 -0.1799  0.1042
15787W        W32261  13.502   3.450   3.933  0.0950 -0.0339 -0.1035
15788W        W32262  10.529   2.820   5.091 -0.2141  0.2062 -0.0002
15789W        W32263  11.111  11.115  12.686  0.0681  0.3261  0.2084
15790W        W32264  11.206   2.877   3.624 -0.1754 -0.0036 -0.0235
15791W        W32265   6.758   5.218   0.832 -0.1896 -0.2333  0.1716
15792W        W32266   2.651  16.340   0.955 -0.0462 -0.0693 -0.0561
15793W        W32267   3.023  16.467  15.024  0.2239  0.0177 -0.3271
15794W        W32268  10.729   5.130   4.842  0.0988 -0.3383  0.0109
15795W        W32269   9.424   5.007  11.538 -0.1386 -0.1165  0.0235
15796W        W32270   1.928   4.552   4.234  0.1754 -0.1111  0.1275
15797W        W32271   1.561   3.809  15.280 -0.0193  0.0270  0.2812
15798W        W32272   6.156   3.395   3.433 -0.3646  0.0284 -0.5451
15799W        W32273   2.664  16.779   3.763 -0.0331 -0.0614  0.1188
15800W        W32274   2.022  12.527  12.299  0.0617  0.0215 -0.2345
15801W        W32275   0.731   8.008  12.601  0.2179  0.1951 -0.3652
15802W        W32276  17.860  13.028   0.250  0.0995 -0.1785 -0.1505
15803W        W32277   4.340   3.103  15.324  0.0691 -0.1948  0.5054
15804W        W32278  10.246   1.405  12.803  0.1040  0.0142 -0.0768
15805W        W32279  18.280  11.976  14.030  0.3238 -0.0741  0.0966
15806W        W32280   1.616   5.984   4.901 -0.2478 -0.1312  0.1132
15807W        W32281  10.711   8.653   1.527  0.0101 -0.1039 -0.2162
15808W        W32282  14.848  14.467  11.506  0.0597  0.1089  0.0056
15809W        W32283  17.960   1.164   1.626 -0.0692  0.0171 -0.3916
15810W        W32284  13.681   3.832   4.931 -0.1089  0.2878  0.4931
15811W        W32285   1.747  10.302   0.458 -0.1884  0.1792  0.1211
15812W        W32286  14.226  10.818   3.925  0.1004  0.2350  0.0498
15813W        W32287  16.199   5.645  14.076  0.0136 -0.0463 -0.1936
15814W        W32288  11.652   1.218  12.514  0.0038  0.1974 -0.0022
15815W        W32289   1.004   4.092   5.229 -0.1298 -0.1937  0.3573
15816W        W32290   2.195  11.256  13.273 -0.5545 -0.0675  0.0844
15817W        W32291  10.929  15.079   4.156 -0.0860  0.0124 -0.1852
15818W        W32292   5.977  11.086   3.574 -0.1654  0.1039 -0.0435
15819W        W32293   1.185  15.553   0.272  0.3518 -0.0452  0.0968
15820W        W32294   9.958  15.780   4.286 -0.0010  0.1049 -0.0062
15821W        W32295   9.142  13.873  13.539 -0.0433  0.1893  0.2027
15822W        W32296   5.920  16.443   1.832  0.1088 -0.1734 -0.0435
15823W        W32297   8.058  16.043   0.552 -0.3411 -0.2918  0.2529
15824W        W32298   2.338  15.435  15.270  0.0819  0.0633  0.1971
15825W        W32299   7.455   3.450   0.589 -0.1333 -0.0461 -0.1265
15826W        W32300   2.973   8.249  10.131  0.0872  0.1072  0.0264
15827W        W32301  12.656   6.092   0.327  0.0654  0.4368  0.1951
15828W        W32302   6.032   0.857   1.839  0.0850 -0.2158  0.3481
15829W        W32303   9.571   9.887   2.581 -0.2698 -0.0330  0.0027
15830W        W32304  17.457  15.971   4.103  0.2725 -0.2058  0.2702
15831W        W32305   0.283  11.114   4.669  0.2281 -0.0068 -0.0992
15832W        W32306  17.783   7.774  10.844  0.2482  0.1147  0.1384
15833W        W32307   3.027  13.998  15.564 -0.2101  0.0235 -0.2418
15834W        W32308   4.900  17.090   4.251  0.0966  0.0634 -0.0275
15835W        W32309   4.929   0.157  13.398  0.2825  0.1574  0.1230
15836W        W32310  16.596   7.154  14.498  0.1447  0.2127  0.1616
15837W        W32311   3.486   9.169   4.156  0.1494 -0.0689 -0.3408
15838W        W32312  15.987  15.083   0.593 -0.0683  0.0560 -0.2472
15839W        W32313   7.757  14.470   1.846  0.1532  0.0509 -0.0629
15840W        W32314  11.165   4.219  14.160 -0.0221  0.2128 -0.0741
15841W        W32315   1.854   6.774  10.560 -0.0793 -0.2160  0.2390
15842W        W32316  15.880  14.015  14.934 -0.2094 -0.0464 -0.1793
15843W        W32317   1.586  15.335   2.235 -0.0524  0.1750  0.0531
15844W        W32318   7.643  17.381  15.417 -0.0004 -0.2123  0.2951
15845W        W32319   3.173  13.562  11.450  0.0906 -0.0262 -0.1417
15846W        W32320   8.257   0.461  11.271  0.0042 -0.0080 -0.1631
15847W        W32321   3.928   7.294  15.557 -0.1876  0.1492  0.1681
15848W        W32322  16.730  11.880   0.574 -0.0463 -0.2136 -0.0101
15849W        W32323   8.038   0.652   2.819  0.0807  0.1386 -0.2411
15850W        W32324  17.633  10.505   1.687  0.2281  0.0112 -0.2380
15851W        W32325  10.799  14.373   5.476  0.1400  0.0032  0.0524
15852W        W32326   5.095   0.541   5.075  0.1998  0.1016 -0.1149
15853W        W32327  14.830   4.615   4.644 -0.0706  0.0285 -0.1490
15854W        W32328  13.103  13.081   4.685  0.0777  0.1423 -0.1501
15855W        W32329   1.355  16.805  12.262 -0.0695 -0.1197 -0.0522
15856W        W32330   4.662   8.075  13.939 -0.0338  0.0736  0.3006
15857W        W32331   1.468   6.223   4.045  0.2034  0.1073 -0.2185
15858W        W32332  14.619   3.809   1.334  0.0757  0.0377  0.1324
15859W        W32333  11.958  18.005  14.535  0.1385 -0.1290 -0.1425
15860W        W32334  17.382  18.338   4.488  0.1543  0.0379  0.0552
15861W        W32335   0.150   8.420   3.152  0.4140  0.1528  0.1143
15862W        W32336  17.293   4.852  13.069  0.0913  0.0942 -0.1314
15863W        W32337   3.955   2.326   5.237  0.1615  0.1622  0.1943
15864W        W32338  17.574   1.983   1.483  0.3724 -0.0864  0.1470
15865W        W32339  17.924  11.683  11.501  0.0982 -0.1393 -0.3419
15866W        W32340  11.994  15.680   2.221  0.0488  0.0103  0.1238
15867W        W32341   0.049   6.352   2.406 -0.0476 -0.0965  0.1576
15868W        W32342   7.663  10.216  13.533  0.2122  0.2959 -0.0062
15869W        W32343   1.735   8.616  13.221 -0.0451 -0.2419  0.1843
15870W        W32344  13.925  13.816  13.579 -0.0500  0.2582 -0.1576
15871W        W32345  17.012  11.664   2.394  0.0353  0.0411 -0.2505
15872W        W32346   5.992  12.625  13.514  0.3123  0.2383 -0.3197
15873W        W32347   2.163   8.174  13.969  0.0984  0.2981  0.0027
15874W        W32348   7.743  17.072   2.831  0.0511  0.1074  0.1825
15875W        W32349   3.096   4.908  12.634 -0.0022 -0.2575  0.1898
15876W        W32350   6.921  11.385   0.577  0.1592  0.1371 -0.1115
15877W        W32351   1.818  11.019  13.591  0.1108  0.1137 -0.1127
15878W        W32352  13.923   3.508   2.866  0.0182 -0.0475 -0.0764
15879W        W32353   6.716   4.775   2.956 -0.1861 -0.1401  0.1635
15880W        W32354   6.771   7.988  14.647 -0.4785 -0.1498 -0.1232
15881W        W32355   5.822  18.272   3.991  0.0983 -0.0936  0.4333
15882W        W32356  18.626   3.823   2.016  0.2101 -0.0617 -0.2689
15883W        W32357   2.961  16.200  10.956 -0.1250 -0.1365 -0.0375
15884W        W32358  17.999  13.445  15.034 -0.0035 -0.1776 -0.1319
15885W        W32359   9.653   8.535   5.109 -0.0176  0.0612  0.1145
15886W        W32360  10.441   0.917  12.771 -0.4492  0.1047 -0.2055
15887W        W32361  15.508  15.030   1.805  0.0301 -0.1624 -0.2395
15888W        W32362   3.644   7.731   4.895 -0.0222  0.1447 -0.5024
15889W        W32363   9.350  14.551  15.536 -0.1496 -0.2614  0.1469
15890W        W32364  16.532   5.158   3.470  0.1754 -0.0105 -0.0761
15891W        W32365   0.367   3.096  11.609  0.2531 -0.0292 -0.0387
15892W        W32366  14.732  17.754  12.228  0.1369 -0.3292  0.1358
15893W        W32367  10.906  15.122   1.522 -0.1509 -0.1489 -0.0433
15894W        W32368  12.655   1.422   4.960  0.0925 -0.1064 -0.1874
15895W        W32369   6.281  14.550  13.769 -0.0634 -0.0501 -0.1672
15896W        W32370   8.232  11.013  10.494 -0.0981 -0.1047  0.2128
15897W        W32371   4.802   6.626   4.906  0.2752 -0.1142  0.0855
15898W        W32372  18.240   9.080   2.926 -0.1925 -0.1902  0.2302
15899W        W32373  13.034   8.058  10.922  0.0978  0.1119  0.0888
15900W        W32374   8.843  14.660   0.007  0.1590 -0.0117 -0.1279
15901W        W32375  17.962  12.607  12.881  0.1108 -0.0393 -0.3866
15902W        W32376  15.894  14.867   4.004  0.0743  0.0572 -0.3438
15903W        W32377   9.075  10.258   1.356  0.2354  0.1150  0.0963
15904W        W32378  13.478  12.632   2.749 -0.0029 -0.1240  0.0645
15905W        W32379   6.481   0.791   2.450 -0.1426  0.2400 -0.1134
15906W        W32380   9.266   2.578  11.317  0.1192  0.0470 -0.1155
15907W        W32381   1.792  12.114  11.587 -0.1831  0.3348 -0.0956
15908W        W32382   0.062   0.942   4.638 -0.2302  0.1711  0.4362
15909W        W32383   3.487  15.261   3.085  0.0710 -0.2254  0.1801
15910W        W32384   3.339  14.239   4.964  0.0739 -0.0067  0.1542
15911W        W32385   2.155  13.672   3.988 -0.1395 -0.0552  0.0375
15912W        W32386  15.555   3.193  15.570 -0.0313 -0.4062 -0.3414
15913W        W32387  18.428   6.394  13.460  0.0043  0.3627 -0.2406
15914W        W32388  18.607   6.624   0.823 -0.0254 -0.0071 -0.3159
15915W        W32389  14.058   4.041  11.977 -0.0208 -0.2100 -0.0986
15916W        W32390   0.815  13.984   1.104 -0.2315  0.1345  0.0503
15917W        W32391   6.252  13.785  14.306  0.0440  0.2354  0.1353
15918W        W32392   6.072  13.685   2.387  0.1792 -0.0893  0.3663
15919W        W32393   8.698   7.165   4.959  0.0381 -0.0392  0.0053
15920W        W32394   3.940   4.748  14.797  0.0269 -0.1583  0.2272
15921W        W32395   7.328  14.898  11.711 -0.0650  0.0269  0.0161
15922W        W32396   6.412  18.633  15.218 -0.2705  0.0205 -0.2080
15923W        W32397   0.264   6.142  12.825 -0.0040  0.2178 -0.2715
15924W        W32398   6.820  16.190   2.289  0.0607 -0.0540 -0.1293
15925W        W32399   0.337   9.124  11.595 -0.0483  0.1087  0.1004
15926W        W32400  10.999   3.543  14.696 -0.1220 -0.1750  0.1023
15927W        W32401  10.087   0.592  12.674  0.2250  0.0861  0.1146
15928W        W32402   8.939   0.818   0.758 -0.2316  0.0713  0.2411
15929W        W32403   4.062   7.785   3.780 -0.3345  0.1753 -0.0057
15930W        W32404   5.098  18.513  10.637  0.0859 -0.0418 -0.1919
15931W        W32405  11.984   4.341  14.802  0.2278  0.1174 -0.2448
15932W        W32406   3.087  12.517  13.176 -0.0302 -0.0115 -0.0451
15933W        W32407  13.968   2.270   3.813 -0.2299  0.0831  0.0736
15934W        W32408   4.681   0.411  11.422  0.1118  0.0538  0.1322
15935W        W32409   0.303  12.036  10.732  0.2400  0.0356 -0.1020
15936W        W32410   3.747   4.955  12.540  0.0529  0.2707 -0.0994
15937W        W32411  17.236   2.018   3.750 -0.0622  0.2645  0.0495
15938W        W32412  13.417  17.433  11.772  0.1640  0.0364  0.0326
15939W        W32413  10.195  16.212   0.618  0.2330  0.0191 -0.3075
15940W        W32414  14.384   9.686   4.890 -0.0174 -0.0207  0.2070
15941W        W32415  18.581  15.577  11.104 -0.2713 -0.0222  0.3467
15942W        W32416   1.451  14.572   4.032 -0.1213 -0.1700  0.2365
15943W        W32417   2.611   3.279   3.362  0.0096  0.1400 -0.0938
15944W        W32418  12.167   7.762   3.171 -0.2162  0.1632 -0.2615
15945W        W32419   0.883   0.255   3.407  0.0264 -0.2389 -0.1806
15946W        W32420   5.124  11.046   0.704 -0.1738 -0.0942  0.0170
15947W        W32421   1.086  15.788   0.689 -0.2309  0.5177  0.2381
15948W        W32422   3.803  15.773   0.457  0.0700  0.0278 -0.0303
15949W        W32423   5.438  14.831  13.384  0.0929  0.4186  0.1046
15950W        W32424  12.855   9.496  14.742 -0.3337  0.2525 -0.3837
15951W        W32425  14.999   7.242  13.710 -0.0605 -0.1707  0.0140
15952W        W32426  13.575   1.863   4.506  0.0398  0.1000 -0.4619
15953W        W32427  17.407  11.862   4.579 -0.6028  0.0231 -0.0827
15954W        W32428  11.633   3.597  15.371  0.2433  0.0224 -0.1187
15955W        W32429   9.271   4.711  12.533  0.1444 -0.0865 -0.3590
15956W        W32430   8.578   9.250   9.692 -0.1818 -0.0823  0.0734
15957W        W32431   9.825   6.318  14.769 -0.1309  0.1269 -0.1254
15958W        W32432   5.201  17.675  12.462 -0.3309  0.0508 -0.1067
15959W        W32433  16.465  14.038  11.628 -0.1534 -0.0244 -0.1814
15960W        W32434  16.564  15.071  14.425  0.5260 -0.1306 -0.0060
15961W        W32435  11.715  18.768   2.633  0.6611  0.0615 -0.0764
15962W        W32436   2.263  15.576   1.475  0.0831 -0.1910 -0.1539
15963W        W32437   0.975  14.455  10.748  0.3934 -0.2960  0.2715
15964W        W32438   3.400   1.900   1.507  0.0758 -0.2105 -0.0137
15965W        W32439  16.440   1.707   0.464 -0.0262 -0.0465  0.3484
15966W        W32440   5.611  16.603  15.570 -0.2080 -0.0924  0.2151
15967W        W32441   4.659   7.361  10.207 -0.0966  0.1587  0.3233
15968W        W32442   4.813   4.436  12.366 -0.1292 -0.2657  0.1057
15969W        W32443  12.699  16.031  15.162  0.0958  0.1598  0.1830
15970W        W32444  15.089  13.645   3.909 -0.0898  0.3639 -0.3332
15971W        W32445   6.797   9.426   2.205 -0.2343 -0.1116 -0.0030
15972W        W32446  14.512   6.205  13.550  0.0404  0.0780 -0.1371
15973W        W32447  16.305  10.199  11.640 -0.2300  0.0761  0.3299
15974W        W32448  17.175   9.976   2.139  0.2118  0.2598 -0.1539
15975W        W32449   5.883   7.264   1.214 -0.0847  0.0513 -0.1888
15976W        W32450   1.736   7.779  11.570 -0.0411  0.0274  0.0909
15977W        W32451   4.598  10.965   3.978 -0.2210 -0.0580  0.2919
15978W        W32452  16.547   7.447   2.532  0.1104  0.0705  0.2614
15979W        W32453   2.881  12.750  10.858  0.4120  0.2726  0.0043
15980W        W32454   8.538  14.724   5.031  0.0044 -0.2010 -0.0855
15981W        W32455   2.174   0.888   3.562  0.0923 -0.1929  0.0967
15982W        W32456   1.783   4.939   1.463  0.0315  0.1036 -0.3130
15983W        W32457  14.618   7.899   2.474 -0.1168 -0.1699  0.1253
15984W        W32458  14.951   5.328  15.287 -0.3126  0.0183 -0.1508
15985W        W32459   3.733   4.487   2.377  0.0118  0.4338 -0.3383
15986W        W32460   8.246   9.047  13.011 -0.1486  0.0780  0.2462
15987W        W32461   2.220  18.786   0.205  0.2655 -0.1571 -0.2264
15988W        W32462   4.337  17.697   2.374 -0.0582  0.0602  0.0673
15989W        W32463  13.901   3.437  12.017 -0.1629  0.0753 -0.1052
15990W        W32464  14.914  10.497  14.601 -0.0738 -0.2025 -0.1306
15991W        W32465   0.025  12.927  13.719 -0.0761 -0.2122  0.0943
15992W        W32466   0.795   9.738   0.352  0.2621 -0.2118  0.0769
15993W        W32467  17.759  15.407  14.712  0.2278 -0.0706 -0.5622
15994W        W32468   7.365  15.516   3.105  0.0852 -0.1848 -0.0007
15995W        W32469   5.001   3.577  10.978 -0.0005 -0.0639 -0.0973
15996W        W32470  16.197  14.897  14.826  0.1361  0.0084 -0.1575
15997W        W32471   0.060   2.910  12.351  0.0920 -0.0663  0.0719
15998W        W32472  12.278   1.972  13.910  0.1317  0.1293 -0.0994
15999W        W32473   0.587  12.757   1.750 -0.1363 -0.1371 -0.0321
16000W        W32474   2.588  18.332  12.184  0.1227  0.0271 -0.3347
16001W        W32475   0.226  16.389   0.746  0.1000 -0.0330  0.3017
16002W        W32476  15.098  14.026  12.267  0.1896 -0.0413 -0.1207
16003W        W32477  11.009   4.592   1.080 -0.0114  0.1373  0.1918
16004W        W32478   3.278  16.339   1.207  0.1258 -0.1424  0.0892
16005W        W32479  17.343  17.270  11.453 -0.1128 -0.1772  0.2758
16006W        W32480   3.697   6.312  12.885  0.1395  0.0661 -0.1811
16007W        W32481  11.538   0.660   2.842  0.1998 -0.1778 -0.2957
16008W        W32482   6.827  12.631  14.274 -0.2699  0.1239 -0.1619
16009W        W32483   7.297   5.375   0.385 -0.2041  0.2837 -0.0502
16010W        W32484  17.685   9.962  10.439 -0.0841 -0.1662  0.2123
16011W        W32485   3.079   0.037   4.485 -0.3051  0.0793  0.1711
16012W        W32486  12.327   5.718   3.798 -0.0831  0.0984 -0.0826
16013W        W32487   0.363   7.745  14.886  0.0053 -0.0311  0.0272
16014W        W32488  15.994   4.336  12.428  0.1732 -0.0676 -0.1925
16015W        W32489  13.087   7.611  13.154  0.0369 -0.0586  0.0818
16016W        W32490   5.752   7.618   2.398  0.3219  0.0120  0.2874
16017W        W32491   8.869   5.300  13.703  0.2794  0.0786  0.5280
16018W        W32492  16.993  10.651  14.300  0.2013  0.2349 -0.2094
16019W        W32493  13.440   6.293  14.956  0.0310 -0.0645  0.2207
16020W        W32494   1.936   9.321  11.618 -0.2974 -0.0015 -0.0704
16021W        W32495  16.225  18.498   0.366 -0.2702  0.0098 -0.0164
16022W        W32496   7.363   9.219   1.481  0.2081 -0.0126  0.0289
16023W        W32497  17.423   3.647  11.071  0.0370 -0.0168 -0.2800
16024W        W32498  14.637   3.728   5.774  0.0793  0.2376 -0.2008
16025W        W32499  15.413   3.900  13.914  0.0037  0.2513 -0.1067
16026W        W32500   2.894  10.343   3.537 -0.1618  0.1055  0.0511
16027W        W32501   0.394   6.017  14.494  0.0771 -0.0803  0.1299
16028W        W32502  14.738   9.464   2.934  0.1175  0.1230  0.0259
16029W        W32503   5.517  14.663  12.023  0.2460 -0.0460 -0.0127
16030W        W32504  16.315   1.924   1.314  0.1979 -0.0908 -0.1493
16031W        W32505  13.687   0.293  14.348 -0.1836 -0.1083  0.0615
16032W        W32506  15.869  11.962   2.107 -0.1245  0.2429 -0.4502
16033W        W32507   2.999   9.349  13.350  0.1507  0.3769 -0.3131
16034W        W32508  15.800   6.046  10.654 -0.0187  0.1309  0.2115
16035W        W32509   0.123   3.022   1.097 -0.0738  0.0147 -0.2137
16036W        W32510  15.242   8.485  12.351 -0.0958  0.1813  0.0400
16037W        W32511   7.464   2.147  10.784 -0.0772  0.2531 -0.0269
16038W        W32512  13.189   3.349  14.420  0.1795  0.2440  0.1030
16039W        W32513  14.997   9.352  12.561  0.0780 -0.2834 -0.1808
16040W        W32514   0.925  15.880  13.572 -0.0265  0.3734  0.0517
16041W        W32515  13.874  17.768   4.441  0.4082  0.1280 -0.0290
16042W        W32516  13.399  11.901  13.924  0.0045 -0.1984  0.2236
16043W        W32517   5.152  12.334   5.350 -0.1309  0.0713  0.0792
16044W        W32518   2.535  13.455  13.050  0.1411  0.0124  0.0206
16045W        W32519  10.887   0.150   2.214  0.1543  0.0362  0.2034
16046W        W32520  18.282  18.172  12.044  0.2056 -0.2302 -0.1964
16047W        W32521   5.106  14.423  11.857 -0.1184  0.1127 -0.0367
16048W        W32522  16.686   7.841  12.143 -0.0860  0.2010  0.0787
16049W        W32523   7.724   6.404  15.413 -0.1811 -0.0613  0.1967
16050W        W32524  13.238   8.902  11.025 -0.0797  0.2151 -0.0819
16051W        W32525   7.672  18.772  10.470  0.1999  0.1609  0.1159
16052W        W32526   3.593   3.453   2.092  0.0745 -0.1827 -0.0305
16053W        W32527   3.098   1.926   0.426  0.3274  0.0383  0.0825
16054W        W32528   6.048   3.476   9.984  0.2127  0.1269 -0.0024
16055W        W32529  13.304  16.517   5.357  0.0449  0.0312  0.0635
16056W        W32530  13.372   2.233  11.467 -0.1426 -0.2734 -0.1780
16057W        W32531   1.455   8.007  12.353  0.1069 -0.0287 -0.3267
16058W        W32532  11.900  11.549   2.776 -0.1004  0.1409 -0.2453
16059W        W32533   1.836  10.846   3.205 -0.1717 -0.3768  0.0476
16060W        W32534   0.923   7.967  11.791  0.4487  0.2128  0.0712
16061W        W32535  13.782  12.841   0.724 -0.4229  0.2814 -0.3221
16062W        W32536   6.443   3.609  13.064 -0.0691 -0.0361  0.3406
16063W        W32537  14.162   7.172   0.181  0.1152  0.0319 -0.0080
16064W        W32538   7.534  13.381  12.837  0.0895 -0.0635  0.3084
16065W        W32539   5.119   9.820  13.709 -0.2582 -0.2177 -0.1816
16066W        W32540   2.651   4.933   5.246  0.0057 -0.0008 -0.0797
16067W        W32541  16.498   9.259  13.875  0.3316 -0.0559 -0.1221
16068W        W32542   0.526  16.197   3.937  0.0510  0.0575  0.1721
16069W        W32543  15.159  18.439  14.094 -0.0439 -0.2782 -0.3461
16070W        W32544  18.774   6.142   4.408  0.2380 -0.3846  0.0451
16071W        W32545   4.071  14.613   2.246 -0.0480  0.0906  0.0242
16072W        W32546   4.781  17.900   0.176  0.1631  0.3094 -0.1708
16073W        W32547   5.543   0.458  11.998 -0.1169  0.0134 -0.2457
16074W        W32548   3.008  17.317   3.192 -0.0447  0.2330  0.2997
16075W        W32549   9.181  14.271   0.600  0.1609  0.1371 -0.0476
16076W        W32550   8.249   6.533  15.479  0.1958  0.2084  0.3238
16077W        W32551  18.194  10.042   2.335  0.2049 -0.2434 -0.0777
16078W        W32552   1.685   2.198  14.205  0.0673  0.0572  0.0451
16079W        W32553  14.893  14.632  13.049 -0.2158  0.0954 -0.0450
16080W        W32554   4.676  14.497   3.057  0.2612 -0.0302  0.0252
16081W        W32555   1.775  13.791  11.381 -0.2539 -0.0515 -0.2052
16082W        W32556   2.328  14.752   2.662 -0.1000  0.2102  0.1147
16083W        W32557   6.007   0.376  13.837  0.4620 -0.3508  0.0643
16084W        W32558  18.727  11.092  11.004 -0.2019  0.2053 -0.3239
16085W        W32559  17.552  11.125  11.432 -0.0640  0.1775  0.0772
16086W        W32560   8.279  16.496   5.580  0.0345  0.0088  0.1524
16087W        W32561  16.336   8.654   5.774 -0.0613  0.1097  0.0206
16088W        W32562   3.586   8.405  12.261  0.0350 -0.2444 -0.0818
16089W        W32563   2.029  10.974  10.910  0.0151  0.3321  0.2753
16090W        W32564  17.662   8.040   0.564  0.1123  0.0950  0.0060
16091W        W32565  12.698   6.007   5.277  0.1179  0.3747 -0.3004
16092W        W32566   4.234  17.819  11.550  0.0655 -0.2133 -0.1130
16093W        W32567   9.311   5.749   4.975 -0.1145 -0.0703 -0.1014
16094W        W32568  16.014  10.885   0.355  0.0765 -0.0593 -0.1973
16095W        W32569   9.396   6.683  11.949  0.1829 -0.0125  0.0139
16096W        W32570  13.758   1.139   1.498  0.1381 -0.1888  0.0629
16097W        W32571  10.228   0.159   2.694 -0.0781 -0.2147  0.4100
16098W        W32572   9.543   9.351   0.323  0.3212 -0.0286  0.0026
16099W        W32573   7.608  14.872   2.345 -0.1283  0.0645  0.1339
16100W        W32574  15.472  13.920  12.040 -0.2747  0.1560  0.0280
16101W        W32575  15.353  16.150  13.256 -0.0593 -0.2921  0.0012
16102W        W32576  18.090   3.940   2.436 -0.1359 -0.2671  0.1322
16103W        W32577   8.644   8.357  12.002  0.0874 -0.2420  0.0103
16104W        W32578  16.207  11.267  12.468 -0.0430  0.1194  0.2535
16105W        W32579   0.023   6.523   5.431  0.1127 -0.1505  0.0363
16106W        W32580  16.554   1.622   5.859 -0.0291 -0.3248 -0.1627
16107W        W32581   9.770  14.934   0.878  0.1825 -0.0277  0.3508
16108W        W32582   3.933   8.820   3.596 -0.0850  0.0093  0.2035
16109W        W32583   6.394  13.149  10.963 -0.2380  0.2321  0.0939
16110W        W32584   5.099   9.626  14.753  0.1907 -0.0486  0.1242
16111W        W32585  16.717  12.931   0.991  0.0269  0.0990 -0.0614
16112W        W32586   1.406  13.709  12.324 -0.0551 -0.0795 -0.0666
16113W        W32587  13.575   9.010  12.905 -0.1286 -0.1907 -0.0457
16114W        W32588   9.808  12.697  13.472  0.3016  0.0759 -0.0055
16115W        W32589  11.720   2.179   1.888  0.1493 -0.0830  0.1251
16116W        W32590   9.340   0.510  13.992  0.1087  0.0100  0.0207
16117W        W32591   1.445   5.637   5.252 -0.0572  0.0720  0.1131
16118W        W32592   1.083   6.583   3.389  0.1505 -0.3392 -0.0274
16119W        W32593  12.273  15.987   0.980  0.0112  0.0397 -0.0810
16120W        W32594  17.219   8.681  10.910  0.0099 -0.2746  0.1284
16121W        W32595   6.844  11.874   0.431  0.1062  0.1017 -0.2595
16122W        W32596  11.961   2.610  15.134  0.1156 -0.0640  0.0125
16123W        W32597   4.230  14.137   0.993 -0.3952  0.0042  0.0274
16124W        W32598   8.616  16.548   5.123 -0.2208  0.1052 -0.0763
16125W        W32599  15.371  17.675   2.627 -0.2968  0.2202  0.0973
16126W        W32600   2.346   3.751   0.774 -0.0722 -0.3098 -0.0466
16127W        W32601  15.965  11.158   0.997 -0.1574 -0.0790 -0.1887
16128W        W32602  14.003  13.332  13.409 -0.0926  0.1639 -0.0711
16129W        W32603   1.118   7.649  12.584 -0.1434 -0.0838  0.0508
16130W        W32604  15.123   1.012  15.400  0.1317 -0.4310 -0.1086
16131W        W32605   4.548   5.792  11.607 -0.0883  0.2682 -0.2522
16132W        W32606  15.078   4.975   2.893 -0.0742 -0.0617  0.0480
16133W        W32607   4.687   5.398   3.524  0.1444 -0.1116  0.4668
16134W        W32608   1.760  18.272  12.445  0.0345 -0.1154 -0.1747
16135W        W32609  11.822  12.301  12.737  0.0228 -0.0426  0.2977
16136W        W32610   5.716  12.224  13.132  0.0271  0.3955  0.1064
16137W        W32611   6.876  13.220  12.726  0.0833  0.2440  0.1943
16138W        W32612  18.072  14.659   0.441 -0.0899 -0.2074  0.2758
16139W        W32613   1.097  18.580  11.258 -0.3254 -0.1592 -0.2097
16140W        W32614   7.606   5.784  14.487  0.0252  0.0730  0.0419
16141W        W32615   9.113  13.530  14.701 -0.1356 -0.0469  0.2642
16142W        W32616   1.346  11.002  10.942  0.2983  0.2522  0.3095
16143W        W32617   8.433  13.249  14.154  0.0139 -0.2925 -0.2707
16144W        W32618  15.540  17.001   3.508 -0.4012 -0.0469  0.0650
16145W        W32619  12.016  14.906  12.908 -0.1389 -0.3772 -0.1861
16146W        W32620  14.369   1.106   0.648  0.1464  0.1127  0.0328
16147W        W32621   1.385   6.024  12.299  0.1940 -0.2185 -0.4654
16148W        W32622  12.226  17.865  11.584 -0.0681  0.0325  0.4959
16149W        W32623  12.190   7.408  11.995  0.0663 -0.0907  0.0071
16150W        W32624  16.674   3.439   2.094  0.1680  0.1691  0.0731
16151W        W32625  16.759  18.320  15.097  0.2187  0.1379 -0.3091
16152W        W32626  12.277  10.236   5.486 -0.1489  0.2648 -0.2139
16153W        W32627   6.617   2.737  14.361 -0.2443  0.0552  0.2991
16154W        W32628   2.781  18.096  15.299 -0.0039 -0.1888  0.1925
16155W        W32629  17.433   5.452   4.640  0.0345  0.0570  0.3046
16156W        W32630   0.964  17.811  14.864 -0.2188 -0.0881 -0.1496
16157W        W32631   6.128  11.718  13.034 -0.1081  0.0127  0.0544
16158W        W32632  15.237  11.684  13.194  0.0320 -0.0550 -0.0484
16159W        W32633   6.044   7.956  13.746  0.0305 -0.2572  0.3458
16160W        W32634  14.327   8.862   3.548  0.0654 -0.1264  0.0308
16161W        W32635   6.058   8.887  12.087  0.0426 -0.0264  0.1736
16162W        W32636   7.687  13.430  13.488 -0.1326  0.0862 -0.0532
16163W        W32637   4.609   0.795  14.045  0.1466  0.0178  0.2816
16164W        W32638   1.558   0.319  13.565  0.4351 -0.1214 -0.3416
16165W        W32639  11.105   5.313   5.239  0.0818  0.1284 -0.2912
16166W        W32640   0.291  12.371   3.968 -0.0394  0.1579 -0.1053
16167W        W32641   4.598  17.741  14.072  0.1009  0.0363  0.2337
16168W        W32642  18.078   7.565   3.790 -0.2355 -0.0085 -0.1116
16169W        W32643  15.677  13.098   4.786  0.1443 -0.0663  0.0139
16170W        W32644  11.539   9.245  12.595 -0.1366  0.2040 -0.0508
16171W        W32645   8.264   8.478   2.187  0.1977  0.1406 -0.1241
16172W        W32646  16.358   6.709  13.886  0.0065  0.2390 -0.0781
16173W        W32647   5.408   7.348   4.973 -0.1954 -0.2139  0.0804
16174W        W32648   4.503   0.784  15.440  0.0031 -0.1916  0.0291
16175W        W32649   6.210  14.044  12.581  0.0338 -0.1766 -0.3851
16176W        W32650   6.022  13.029   4.185  0.1446  0.0070  0.1379
16177W        W32651   3.184  18.229  11.135 -0.1092  0.1033 -0.1717
16178W        W32652  17.768   0.836   2.615 -0.1654  0.0946  0.1421
16179W        W32653   2.256   2.751   4.557 -0.1378 -0.0670  0.1902
16180W        W32654  17.960  15.916   4.472  0.2852  0.2914 -0.1187
16181W        W32655   5.291  14.601  11.439  0.2570 -0.4126 -0.0295
16182W        W32656  15.676  17.523  14.776  0.0434 -0.0010  0.0612
16183W        W32657  15.069   9.371   3.503  0.0136 -0.0493  0.0762
16184W        W32658   7.161   0.227  11.965  0.0522 -0.2112 -0.3437
16185W        W32659  15.385  15.339   0.101 -0.1550 -0.2774  0.2141
16186W        W32660   3.655  17.593   2.228  0.0360 -0.1020  0.0214
16187W        W32661   8.932   7.188  13.856 -0.1045  0.0352 -0.2131
16188W        W32662   8.679   7.245  11.486  0.3791 -0.0864  0.0151
16189W        W32663   4.226  16.007   1.042  0.0467  0.0370 -0.1784
16190W        W32664  10.855   9.735  14.704 -0.1677  0.0348  0.2539
16191W        W32665  12.131   9.072  14.174  0.2368  0.0417 -0.0915
16192W        W32666   0.424  11.016  12.540  0.4069  0.0982  0.0718
16193W        W32667  11.594   1.940  11.834 -0.1234  0.1564 -0.0115
16194W        W32668   3.147   2.118  11.805  0.0021 -0.0860  0.1192
16195W        W32669   7.763   2.377  12.214 -0.1659  0.1974  0.0015
16196W        W32670   8.514   6.397  11.500  0.1242  0.1116 -0.0237
16197W        W32671   6.654  10.627   1.139  0.1073 -0.2399  0.1647
16198W        W32672  11.939  12.450   0.569 -0.3337  0.1443  0.0601
16199W        W32673   5.657  15.746   6.193 -0.1617 -0.1910 -0.3569
16200W        W32674  15.194  17.501   4.532  0.0240  0.1955  0.0633
16201W        W32675  18.231   0.081   1.651 -0.0588 -0.0964 -0.3750
16202W        W32676  16.776   1.490  13.043 -0.1254 -0.5727 -0.1766
16203W        W32677  14.972  16.370  12.918  0.3669 -0.1382 -0.0906
16204W        W32678  10.852   2.836  11.258  0.0653  0.0531 -0.0174
16205W        W32679   0.545  14.933  14.750 -0.0002  0.2023  0.0013
16206W        W32680  13.163   3.925   2.346  0.2936 -0.1424 -0.0121
16207W        W32681  13.751  17.955   2.140 -0.0448 -0.0807  0.0083
16208W        W32682   5.678   1.301   2.640 -0.0202  0.1961  0.2040
16209W        W32683   4.840  12.088   5.569 -0.0338 -0.1876 -0.2139
16210W        W32684  16.455  13.617  11.937  0.2143 -0.1352 -0.2067
16211W        W32685   6.874   6.760   1.634 -0.0521  0.2088 -0.2210
16212W        W32686  11.367   1.383   3.089  0.0228 -0.2122  0.1569
16213W        W32687  15.497   2.819  14.665 -0.0716 -0.1003 -0.1375
16214W        W32688  16.885   0.596   0.865 -0.1498 -0.3109 -0.0417
16215W        W32689  12.101  10.540  15.392 -0.0984  0.1837 -0.3094
16216W        W32690  17.200   4.449  14.549 -0.0889 -0.0421  0.0199
16217W        W32691   5.970  11.012   2.273  0.0767 -0.2736  0.2113
16218W        W32692   6.894   9.278  14.566 -0.4351  0.0997 -0.1243
16219W        W32693   1.718  18.581   1.832 -0.3383  0.0081 -0.0809
16220W        W32694   6.551   4.297   1.058 -0.2471  0.2773  0.0213
16221W        W32695  12.671  17.709   5.472 -0.1906 -0.1465 -0.1594
16222W        W32696  12.914   6.791  13.096 -0.1149 -0.0372  0.0902
16223W        W32697  18.687   4.306   4.006  0.1789  0.5160 -0.0831
16224W        W32698   4.897   9.811  10.132 -0.2426  0.0971  0.1712
16225W        W32699   8.264  12.150  15.340  0.1058 -0.1440 -0.1994
16226W        W32700  14.752  18.584   2.107  0.4833  0.3003 -0.0200
16227W        W32701   6.093   9.279   2.900  0.2272  0.2041 -0.3116
16228W        W32702   1.159   0.194  13.238 -0.0480  0.0612 -0.1441
16229W        W32703  17.134  10.575   4.535  0.0328 -0.0209  0.0487
16230W        W32704   0.057  12.606   5.240 -0.0247 -0.3276 -0.0768
16231W        W32705  13.414   2.674   6.442  0.0033 -0.0153  0.0950
16232W        W32706   8.598   8.078  10.972  0.0722 -0.1361 -0.2492
16233W        W32707   2.953  17.515  13.517 -0.3558  0.1233  0.0220
16234W        W32708   5.282  15.235  14.345  0.1456 -0.1802 -0.0458
16235W        W32709   3.072  16.073   2.677  0.1875 -0.0180  0.1701
16236W        W32710  10.962   4.954   1.910  0.1434 -0.0912 -0.0963
16237W        W32711   1.689  14.192   2.582  0.1834  0.1254 -0.4396
16238W        W32712   4.179   2.227  12.983 -0.0041  0.3310  0.0124
16239W        W32713  14.690  12.850   2.817  0.0346 -0.3458  0.2585
16240W        W32714   0.319  14.205  13.967  0.2244 -0.0295  0.3042
16241W        W32715  15.666   3.342   2.915  0.0039 -0.2626 -0.3581
16242W        W32716   2.448   6.617   4.048 -0.4889  0.0505  0.1497
16243W        W32717  14.173   9.815  13.633 -0.1643  0.3844  0.3131
16244W        W32718  18.169   4.791  15.305 -0.0713 -0.1847 -0.1505
16245W        W32719  14.149  10.058   5.189  0.1563 -0.1705  0.3041
16246W        W32720  18.663   7.979  14.540 -0.0837  0.1341  0.2238
16247W        W32721   5.361  16.379  14.579  0.2322 -0.0856  0.0977
16248W        W32722  16.635  15.257   2.953 -0.1691  0.2369  0.0717
16249W        W32723  14.978   1.850   1.994  0.2501  0.5627 -0.1935
16250W        W32724   1.080  13.400  15.543  0.0614  0.0699  0.1191
16251W        W32725   6.234  17.475  14.445 -0.0521 -0.1336  0.0842
16252W        W32726  14.301  11.566  11.933 -0.4933  0.3927 -0.3693
16253W        W32727   8.387   5.580   0.103 -0.3237 -0.4499 -0.0894
16254W        W32728  17.398   1.884   4.643  0.1688 -0.0468  0.1885
16255W        W32729   8.661  13.246  14.617  0.2015 -0.1096 -0.3166
16256W        W32730  18.549  10.127   4.169 -0.0181  0.2728 -0.2705
16257W        W32731  13.503  14.827   2.434 -0.1109 -0.1131  0.1649
16258W        W32732  10.966  15.274  14.837  0.0353  0.2390  0.2513
16259W        W32733  13.056  13.058   4.199 -0.1364 -0.1390 -0.1173
16260W        W32734  10.122   3.689   2.273  0.1117  0.0441 -0.0337
16261W        W32735   5.081  11.174  11.741 -0.1023 -0.1828 -0.2140
16262W        W32736   1.164  17.646  12.751 -0.1139 -0.0041 -0.1915
16263W        W32737   4.496   4.109   0.551 -0.0466  0.1980 -0.0901
16264W        W32738   0.769   6.125   0.674  0.1045  0.0202 -0.0265
16265W        W32739  14.388   2.290   4.144  0.1418 -0.2272 -0.0152
16266W        W32740  12.827   0.202  14.593  0.0013  0.0974 -0.2829
16267W        W32741   5.143  15.615  12.428 -0.1007 -0.0382  0.1737
16268W        W32742  17.430  17.041   3.962 -0.1698 -0.1787  0.1983
16269W        W32743   0.006  10.218  12.336 -0.3724  0.2795  0.4142
16270W        W32744   0.631   5.141   4.987  0.2538  0.0398  0.2334
16271W        W32745  10.533   1.977   1.176 -0.0508  0.0361  0.2439
16272W        W32746   6.656   2.537   1.940 -0.2756  0.0801 -0.0045
16273W        W32747   7.209   1.131   1.726  0.1052  0.0113 -0.1970
16274W        W32748   6.413  17.216   1.510 -0.2298  0.0142  0.2229
16275W        W32749   9.111  13.561   2.647  0.0745 -0.0239 -0.0515
16276W        W32750   2.345   6.396   5.526  0.0034  0.1345  0.1115
16277W        W32751   6.858   0.470   2.277  0.0976 -0.0526 -0.2364
16278W        W32752  10.515   1.765  14.861 -0.3926 -0.1021  0.3068
16279W        W32753   6.162  17.035  14.749 -0.0908  0.0221 -0.2456
16280W        W32754   1.596   8.618  14.506 -0.0530  0.1477  0.1245
16281W        W32755  15.846  11.163  11.493 -0.0597 -0.0499  0.0126
16282W        W32756  11.443  10.032   0.126  0.0656 -0.3772  0.2526
16283W        W32757  14.325   5.450   1.399 -0.1394 -0.1861 -0.4153
16284W        W32758   7.064   1.643   5.220 -0.1371  0.2213  0.1611
16285W        W32759   1.941  14.484   0.813  0.1124  0.0486  0.0061
16286W        W32760   4.947  10.252  14.654 -0.0123 -0.1654  0.2019
16287W        W32761  11.805  15.332  14.559  0.2310 -0.0630 -0.0441
16288W        W32762   6.045  13.499   3.506 -0.1290 -0.2159 -0.0005
16289W        W32763   6.475   7.334  10.913  0.1545  0.0308  0.0705
16290W        W32764   0.499  15.118  11.767  0.1958 -0.0927  0.1479
16291W        W32765   3.689   1.948  13.072 -0.0570 -0.0875  0.1313
16292W        W32766  16.279  11.026  15.051  0.0644  0.1031  0.1340
16293W        W32767  11.654   9.205  15.194 -0.5318 -0.1609  0.1333
16294W        W32768   3.021  16.805  12.618  0.2714  0.0266  0.1958
16295W        W32769  15.772  14.702   6.411  0.0204 -0.0740  0.1778
16296W        W32770  16.041   4.081   3.631 -0.0054  0.0940 -0.0236
16297W        W32771  14.784   7.390   2.628 -0.0495 -0.1153 -0.0159
16298W        W32772   4.180  14.822  12.814  0.3099 -0.0756  0.0599
16299W        W32773  12.292  12.659   4.715  0.0529 -0.0912  0.3291
16300W        W32774   3.263  14.597   4.565  0.4288 -0.0058  0.0618
16301W        W32775   0.797  11.455   2.459 -0.3687 -0.0767  0.1856
16302W        W32776  13.515   4.337   2.317  0.1260 -0.0320 -0.0006
16303W        W32777   2.113   1.220   3.148 -0.1251 -0.3615  0.3544
16304W        W32778   5.543  11.733   1.347 -0.1000  0.0035 -0.0354
16305W        W32779   9.864   0.381   3.002  0.0888 -0.0231 -0.1991
16306W        W32780   4.962   7.451   4.670  0.1881  0.0896 -0.0987
16307W        W32781   6.813  16.339   1.248 -0.0133 -0.1206 -0.0662
16308W        W32782  12.579   2.604   5.530 -0.0554 -0.3273 -0.2923
16309W        W32783  10.945   0.371  15.351  0.0760 -0.2526 -0.2979
16310W        W32784   4.550  15.113  13.098 -0.0991 -0.1751  0.2040
16311W        W32785   4.944   3.647   1.192  0.2267 -0.1807 -0.0632
16312W        W32786  10.236  14.617  15.234 -0.0433  0.2452 -0.0227
16313W        W32787   8.965  11.916  14.988  0.1887  0.0685 -0.1258
16314W        W32788   0.411  18.692  10.869  0.3695 -0.1714  0.0557
16315W        W32789   2.966   5.153  11.906  0.0727  0.0089  0.2448
16316W        W32790  15.768   5.393   1.060 -0.1644 -0.1081  0.0721
16317W        W32791   6.679  16.481   4.858  0.2796  0.1202  0.0511
16318W        W32792  17.377   5.449   1.447 -0.1413 -0.1396 -0.0408
16319W        W32793   8.398  12.827   4.311 -0.1827  0.2348 -0.2032
16320W        W32794   5.839  17.127   3.709  0.0407  0.1792 -0.2160
16321W        W32795  15.101   8.025  12.295  0.3338  0.2576 -0.2479
16322W        W32796   5.967  13.153  12.043  0.1230 -0.0165  0.3060
16323W        W32797   4.676  15.588  13.267  0.1296  0.0077 -0.0608
16324W        W32798  14.052   8.386   5.412  0.1003 -0.4935 -0.2477
16325W        W32799  16.253   8.711   2.579  0.3607 -0.0209  0.0822
16326W        W32800   9.998   4.236   2.582 -0.1357 -0.0833 -0.0461
16327W        W32801  13.168   7.985  11.570 -0.1977 -0.0984  0.2588
16328W        W32802   7.964   7.833  12.458  0.0505  0.1147 -0.3239
16329W        W32803  16.778  10.753   3.021 -0.0673 -0.2788 -0.0519
16330W        W32804  16.149  16.558   5.213 -0.0555 -0.0255 -0.3169
16331W        W32805  10.813   6.889  10.352 -0.2044  0.0703 -0.1548
16332W        W32806  10.245   5.993   4.544 -0.2434 -0.0341 -0.1748
16333W        W32807  16.712  12.148  14.491 -0.0780  0.0537  0.2476
16334W        W32808  13.640   9.307   3.243  0.1572 -0.3553  0.2180
16335W        W32809   4.690  16.455  13.265  0.2902 -0.0477  0.2488
16336W        W32810   6.932   0.023   4.417 -0.0713 -0.2371 -0.1046
16337W        W32811   9.482  17.960  13.132  0.2698 -0.1555 -0.1629
16338W        W32812   4.717  15.945   0.076  0.1176  0.4096  0.3753
16339W        W32813  14.294   4.393  15.026 -0.0291  0.0685  0.0122
16340W        W32814   0.756   6.369   3.699  0.1476 -0.2132 -0.1762
16341W        W32815  17.884   6.973  12.668  0.4562  0.0818 -0.1066
16342W        W32816  11.827   4.017  12.562  0.2441 -0.3277  0.0402
16343W        W32817  11.930   0.276  15.476  0.1145 -0.1083  0.0557
16344W        W32818   7.440   2.389   4.500  0.1211 -0.2266 -0.1299
16345W        W32819  13.455   8.015  11.148  0.2280 -0.0045  0.0781
16346W        W32820  12.230  14.951   4.312 -0.0167 -0.0691 -0.2539
16347W        W32821  11.494   5.151   3.391 -0.0395 -0.1131  0.0938
16348W        W32822   2.925  13.306   3.742 -0.1189  0.3070  0.0872
16349W        W32823   3.216   7.396   1.485 -0.0086  0.1311  0.0052
16350W        W32824   0.901  18.594  10.789 -0.3084 -0.2692  0.3826
16351W        W32825   0.212   4.015  12.608  0.1368  0.0353 -0.0927
16352W        W32826  12.224   8.425   4.110 -0.1557  0.0476  0.4447
16353W        W32827   3.512   5.489   3.889  0.0486  0.2736  0.1507
16354W        W32828  12.671   2.605  14.763  0.0248 -0.3340 -0.0159
16355W        W32829   7.501  17.045   5.490 -0.1187  0.2330 -0.1179
16356W        W32830   2.143  12.769   2.767 -0.1755 -0.1219  0.2854
16357W        W32831   3.991  18.273  10.312  0.0347 -0.0406 -0.1476
16358W        W32832  11.388   7.652   1.681  0.2297 -0.0554 -0.0339
16359W        W32833   4.762  10.286   3.266  0.1889 -0.1217 -0.1271
16360W        W32834   7.403   8.947   4.025 -0.2294 -0.0695  0.1236
16361W        W32835   6.395   6.340  14.740  0.1158  0.1457 -0.2741
16362W        W32836   2.665   8.374   4.154 -0.0681 -0.3254 -0.0430
16363W        W32837  15.102   8.593  11.455  0.2508 -0.2606 -0.0321
16364W        W32838  10.866   9.614   3.593  0.0603  0.2272  0.1832
16365W        W32839   9.943  17.342   5.575  0.0177  0.1834 -0.2054
16366W        W32840  12.894  11.878   4.268 -0.1346  0.2058 -0.0818
16367W        W32841   3.756   9.436   0.389  0.3344  0.0368  0.1687
16368W        W32842   4.490   8.160  12.849  0.2032 -0.1403 -0.3236
16369W        W32843  17.158   6.331   3.716 -0.3884  0.2495 -0.2639
16370W        W32844   3.628  14.683  12.881 -0.0779  0.0837  0.4264
16371W        W32845  16.229   5.822   2.473 -0.0347 -0.1706 -0.2853
16372W        W32846  15.479   5.207   1.429  0.2536  0.2564  0.0046
16373W        W32847   4.801  12.323   1.095 -0.1999 -0.1978  0.0278
16374W        W32848   3.968  17.188  12.479 -0.1951 -0.0212  0.3733
16375W        W32849  15.229   5.676   3.144  0.0142  0.0168  0.3166
16376W        W32850  17.309   5.197   3.753 -0.0173  0.0789  0.2705
16377W        W32851  18.704   2.539  13.762 -0.2384 -0.0301  0.0699
16378W        W32852  13.945  13.465   2.643  0.1279  0.1904 -0.1789
16379W        W32853   4.129   0.489  15.289 -0.0306 -0.0762 -0.1983
16380W        W32854  11.950   2.456   3.564 -0.3191  0.0986  0.2856
16381W        W32855  13.724   3.138   5.131  0.1073 -0.3551  0.0168
16382W        W32856  16.487   9.140  14.971 -0.0749 -0.1053 -0.1220
16383W        W32857  14.309   4.389   0.505 -0.2779 -0.0107  0.2933
16384W        W32858  15.713   8.747   0.305 -0.2469 -0.1886  0.2155
16385W        W32859  15.781  14.590  13.179 -0.0523  0.3192  0.2011
16386W        W32860   3.787   4.314  12.502  0.1111 -0.2583  0.0555
16387W        W32861   2.508   4.604  10.773 -0.0079 -0.1142  0.0978
16388W        W32862  11.274   9.004  13.834  0.0296 -0.1230 -0.2268
16389W        W32863   9.431   2.579   4.622  0.1972  0.1364 -0.1774
16390W        W32864   4.934   4.339   3.703 -0.3896 -0.3477  0.0981
16391W        W32865   0.696   7.312   2.441 -0.0209  0.1466 -0.1188
16392W        W32866   6.108   3.955   1.855 -0.3404  0.0409 -0.0313
16393W        W32867  17.683  17.792   2.239  0.1540  0.2977 -0.0055
16394W        W32868  16.882   0.307   0.200  0.4060 -0.0492 -0.1757
16395W        W32869  13.870  15.559   2.993 -0.0173  0.0818 -0.0843
16396W        W32870  13.588   7.552  11.285 -0.0704  0.3275  0.0288
16397W        W32871   9.890   1.880  11.574 -0.0507 -0.3199 -0.2330
16398W        W32872  11.433  11.365  14.013  0.2618  0.1196 -0.0779
16399W        W32873  11.329  13.682  13.042 -0.1713 -0.1048  0.1766
16400W        W32874   6.056   2.075  12.655 -0.4745  0.1751  0.2911
16401W        W32875   5.309  15.993  13.716 -0.2356  0.1863  0.1079
16402W        W32876   7.795  13.134   4.978 -0.1313  0.1319 -0.1651
16403W        W32877  13.811  15.985  11.140 -0.1522  0.0229  0.3799
16404W        W32878   7.035  12.419   0.769 -0.2035  0.1422  0.0311
16405W        W32879   1.978   8.428   4.765  0.0334 -0.0174 -0.1711
16406W        W32880  15.008  13.841   0.052  0.0369 -0.0065 -0.1489
16407W        W32881   4.552  13.841  13.702 -0.1583 -0.3139  0.1867
16408W        W32882  18.368  16.801  13.233  0.0611 -0.1427 -0.1092
16409W        W32883  13.017  18.375  13.544 -0.4555  0.0965 -0.1268
16410W        W32884  14.088   4.819   3.323  0.1276  0.0821 -0.2378
16411W        W32885   5.966   0.628  14.974  0.0062  0.0262 -0.0935
16412W        W32886   9.467   2.151  10.410 -0.0764  0.0320 -0.0013
16413W        W32887  16.043   6.842   5.367  0.0062  0.4426  0.2646
16414W        W32888  15.594   7.965   2.546  0.1146 -0.0744 -0.0725
16415W        W32889  10.515   1.775   0.195  0.1234 -0.2641 -0.1916
16416W        W32890  16.373  10.954   4.741  0.0676 -0.2995  0.1474
16417W        W32891   5.210   3.522  14.403 -0.0230 -0.1376 -0.0781
16418W        W32892   6.186   8.757   2.998 -0.3150 -0.0742  0.2236
16419W        W32893   5.924  15.476   4.948 -0.0877 -0.2440  0.1284
16420W        W32894  10.832   6.473   4.320  0.1270  0.0890 -0.1591
16421W        W32895  12.132  18.720   1.642  0.1654 -0.1629  0.0487
16422W        W32896   9.684  17.008  13.425 -0.0415  0.2212  0.1149
16423W        W32897   3.692  13.446  11.700  0.0003 -0.0467  0.1739
16424W        W32898   3.755  12.331   1.144 -0.3094  0.1228  0.2559
16425W        W32899  16.166  16.579  12.074  0.0009 -0.2734 -0.1932
16426W        W32900  14.339   0.831  15.127 -0.2804  0.4834 -0.4780
16427W        W32901   1.157  13.845  14.640 -0.1434  0.0850  0.1227
16428W        W32902   1.697  15.947  13.012  0.2732 -0.3556  0.1485
16429W        W32903   2.752   5.514  13.172  0.3078 -0.2153  0.2482
16430W        W32904   1.868   3.305  14.091  0.0533 -0.0469  0.2600
16431W        W32905  10.119  15.065   3.777  0.1521  0.0405 -0.1481
16432W        W32906   5.823  18.738   0.594 -0.0469  0.0729 -0.0199
16433W        W32907   9.966   5.267  15.106  0.1499 -0.1381  0.3259
16434W        W32908  11.416   1.958   2.649 -0.0328 -0.0603 -0.0095
16435W        W32909  10.785  16.251  12.776 -0.2198 -0.2755  0.1365
16436W        W32910   3.926  11.359   4.512  0.2985 -0.1274  0.1639
16437W        W32911  10.159   7.909   4.721  0.2100 -0.0672 -0.0582
16438W        W32912  18.013   4.311  11.718 -0.0611  0.0880 -0.1325
16439W        W32913  13.943  15.809  13.780  0.1502 -0.1352 -0.2491
16440W        W32914   5.346   8.661  10.000  0.1394  0.0877  0.1130
16441W        W32915  15.970  10.996   3.750 -0.0300  0.0917  0.0507
16442W        W32916   7.873   0.153  14.284 -0.1922  0.2474 -0.0889
16443W        W32917  15.930   8.707   4.413 -0.0116  0.3639  0.1045
16444W        W32918   4.028   1.450   5.397  0.2712  0.0580 -0.0144
16445W        W32919  17.167  12.919   5.597  0.0516  0.1476 -0.1487
16446W        W32920   6.530   4.454  14.237 -0.2508  0.0143  0.2783
16447W        W32921   8.318   5.423  11.264  0.1874 -0.3792 -0.1058
16448W        W32922  13.703   1.253   5.114  0.1102  0.1868 -0.2732
16449W        W32923  18.456  16.376  12.369 -0.0864  0.0654  0.1130
16450W        W32924  13.363  11.190   4.196  0.1491  0.1001 -0.1234
16451W        W32925   4.542   9.785   4.603 -0.1110 -0.2616  0.1309
16452W        W32926  14.790   2.467  14.114 -0.0923  0.5346  0.1316
16453W        W32927  11.679  17.648  12.892  0.0237  0.1356 -0.1669
16454W        W32928   6.286  11.513   2.770 -0.3604 -0.2065 -0.0424
16455W        W32929   0.167  14.041  11.635 -0.0552 -0.1383 -0.1759
16456W        W32930   0.677   7.139   0.078 -0.0927  0.1118  0.1191
16457W        W32931  11.298   8.740   2.451 -0.2346 -0.2652  0.0129
16458W        W32932  13.894  17.716  13.203  0.2544 -0.1258 -0.0037
16459W        W32933   3.650   1.800  13.617  0.2311 -0.1110  0.1971
16460W        W32934  10.799  16.011  13.197 -0.1931  0.0947  0.0207
16461W        W32935   3.617  13.641  15.389  0.0839  0.0036 -0.0636
16462W        W32936  15.788  16.293   2.447 -0.2202 -0.1335 -0.0288
16463W        W32937  10.092   6.289   0.175  0.0693  0.0678 -0.0222
16464W        W32938  17.754  15.261   2.027  0.0514 -0.0686 -0.2459
16465W        W32939  13.343   8.351  15.480 -0.1485  0.0761 -0.3449
16466W        W32940   7.812  10.564   0.372 -0.1847  0.2027 -0.0858
16467W        W32941   0.316  12.692   1.312  0.0476 -0.1013  0.1667
16468W        W32942  15.689  15.057  11.110  0.3836  0.0076 -0.0273
16469W        W32943  13.520   5.204  11.822 -0.5303 -0.2663  0.6002
16470W        W32944  10.311   5.451  15.523  0.5023 -0.1914  0.3495
16471W        W32945   1.731  14.009   0.974 -0.0705  0.1256  0.1075
16472W        W32946   0.251   4.610   2.261 -0.1404 -0.0913 -0.0603
16473W        W32947  10.338   2.784  11.202  0.0290 -0.1361 -0.2422
16474W        W32948   4.269  12.845  13.077  0.0898 -0.0631  0.0876
16475W        W32949   6.269   4.310  14.667 -0.0385  0.0676 -0.0154
16476W        W32950   3.794   8.045  12.969 -0.0910 -0.0567  0.0579
16477W        W32951  14.710   9.526  13.952 -0.2735  0.1006 -0.1885
16478W        W32952   2.854   8.244   5.017  0.3823  0.1439 -0.1966
16479W        W32953   2.251   4.174   3.984  0.2204 -0.0454  0.1345
16480W        W32954  18.770  15.926   4.846  0.0464 -0.0763 -0.1855
16481W        W32955   7.632  13.202  11.421  0.1773  0.0679 -0.0695
16482W        W32956   7.463   7.503   5.854 -0.0522  0.0611 -0.2877
16483W        W32957  15.805  14.227   2.354  0.1222 -0.3541  0.3046
16484W        W32958  14.007  15.197   6.080 -0.0426 -0.2073  0.2323
16485W        W32959   8.015   7.287  15.288  0.1261 -0.3040  0.0733
16486W        W32960   8.524  16.105   4.844  0.2402 -0.0930  0.1176
16487W        W32961   1.178   4.188  14.424 -0.1079  0.2725 -0.1510
16488W        W32962  18.089  11.268  15.036  0.0470  0.0139 -0.0697
16489W        W32963   0.959  10.221  11.338 -0.2924  0.0146 -0.0017
16490W        W32964   7.285   1.500   2.084  0.0033  0.0376 -0.0684
16491W        W32965  15.950   3.592   2.636 -0.4183  0.1852 -0.0790
16492W        W32966   7.638  17.927  15.137 -0.0231 -0.2144  0.3458
16493W        W32967   7.621   7.498  12.316 -0.1416 -0.0604 -0.2250
16494W        W32968   8.031  16.437  12.863  0.1132 -0.3147  0.0141
16495W        W32969   6.365  16.058   1.144 -0.0016  0.1508  0.3637
16496W        W32970   6.593  13.831  11.681  0.0674  0.3331 -0.3038
16497W        W32971  16.087   5.363   3.457  0.3891 -0.0350 -0.2363
16498W        W32972  13.193  12.495   1.197  0.1210  0.1211 -0.0621
16499W        W32973  11.925   4.094   2.536  0.0329 -0.0793 -0.3481
16500W        W32974  10.919  15.709  13.603  0.3236  0.0760 -0.0788
16501W        W32975   2.933   8.508  10.621 -0.0402  0.0241  0.1851
16502W        W32976  17.591  14.807   1.920 -0.1036 -0.2960  0.2309
16503W        W32977   1.604   1.530  15.463  0.0141  0.2177 -0.0168
16504W        W32978  15.318  11.397   5.365  0.0048  0.0734 -0.2276
16505W        W32979   8.340  12.335  11.862 -0.5408 -0.0507 -0.0585
16506W        W32980   3.559   5.561  14.266  0.1679  0.2197 -0.2498
16507W        W32981  12.857   5.240  12.327  0.0092 -0.0367  0.2607
16508W        W32982  10.074   3.566  14.575 -0.0561 -0.0027  0.1590
16509W        W32983   4.597   2.590   2.313  0.1111 -0.2153  0.3390
16510W        W32984  16.265   3.915  12.479 -0.1152  0.1575  0.1128
16511W        W32985   4.588  12.196   3.963 -0.0620  0.2320  0.0033
16512W        W32986  12.004  16.728  14.037 -0.0932 -0.2234  0.0052
16513W        W32987   2.671   0.157   2.827  0.1713  0.3556  0.0540
16514W        W32988   3.480   2.433  11.351 -0.0592 -0.2524  0.1038
16515W        W32989  17.718   0.752   1.991 -0.2355 -0.1680  0.1125
16516W        W32990  15.107   0.958   5.703 -0.0748 -0.2891 -0.0282
16517W        W32991  18.671  16.411   4.990  0.1626 -0.0617  0.2438
16518W        W32992  17.053   2.299  13.864  0.1246 -0.2658  0.0156
16519W        W32993   2.678   9.944   1.882 -0.1864  0.2207  0.0417
16520W        W32994   9.994   1.657   0.024  0.2794  0.0904 -0.0530
16521W        W32995   9.652   5.175   0.310  0.1110 -0.0520 -0.1200
16522W        W32996  14.576   8.393   1.843 -0.3499 -0.0777 -0.1567
16523W        W32997  15.911  13.719  14.531 -0.2982 -0.0684 -0.1406
16524W        W32998  18.114  18.392  14.760  0.2155  0.1319 -0.0723
16525W        W32999   0.857   2.086  15.396  0.1984  0.2184 -0.1720
16526W        W33000   7.649  12.894   2.903  0.3378  0.0154 -0.3486
16527W        W33001  15.036   0.823  14.480 -0.0593  0.1689 -0.2578
16528W        W33002   8.079   6.812  15.060  0.0156 -0.4144  0.3376
16529W        W33003   8.956  16.494  14.603  0.1156  0.2994  0.1226
16530W        W33004   4.215   4.593  12.299 -0.1155 -0.2304 -0.4595
16531W        W33005  15.704   9.522   4.655 -0.1028 -0.0672  0.0920
16532W        W33006   8.486  11.468   0.309 -0.1481 -0.0912 -0.3511
16533W        W33007  10.876   9.900  14.193  0.2784  0.0220  0.1073
16534W        W33008  14.738   2.040   0.106 -0.1104  0.0404 -0.0725
16535W        W33009  16.011   4.093  12.870 -0.0037 -0.2396 -0.1372
16536W        W33010  14.226  13.730   1.696  0.0701  0.0093 -0.1298
16537W        W33011   1.670  14.815  15.492 -0.1706 -0.1661 -0.0096
16538W        W33012   2.456  11.570  14.595  0.0040 -0.0947  0.0204
16539W        W33013   1.912   5.031  13.657  0.2146  0.1935 -0.0297
16540W        W33014  13.040  12.455   2.999 -0.3300 -0.1447 -0.1162
16541W        W33015   5.552  18.553  13.539 -0.1312  0.1200  0.2588
16542W        W33016  16.868   5.418   0.823 -0.3422 -0.3964 -0.0919
16543W        W33017   8.822   9.946   0.457  0.0446 -0.0637 -0.0344
16544W        W33018   9.060   9.694  13.371 -0.1918  0.6068  0.0700
16545W        W33019   3.102  16.457  11.366 -0.3037 -0.1247  0.2189
16546W        W33020  15.473   9.082   3.261  0.0994 -0.0029 -0.1098
16547W        W33021  14.742  14.187  13.167 -0.0052  0.2277 -0.1386
16548W        W33022   8.876  15.501  14.297  0.1629  0.2053  0.1327
16549W        W33023   4.778  10.875   0.379 -0.3832  0.0102  0.2500
16550W        W33024   7.571  17.912  11.057 -0.0109  0.0121  0.0907
16551W        W33025  12.724  11.585   2.671  0.0208  0.3247  0.2274
16552W        W33026   2.882   8.526  11.546 -0.1812 -0.1035  0.1174
16553W        W33027   6.300   1.096   5.048  0.0655 -0.1028  0.0279
16554W        W33028  11.769   6.129   2.990  0.0426 -0.1067 -0.0780
16555W        W33029  17.280   8.591  13.541  0.0067 -0.0880 -0.1028
16556W        W33030   5.736  15.018  14.621  0.2556  0.1722 -0.1682
16557W        W33031  14.228   7.527   2.193  0.1581  0.0091  0.3719
16558W        W33032   8.697   0.651   3.772 -0.1665  0.1602 -0.1001
16559W        W33033   1.828  10.530   4.344 -0.0076  0.1342 -0.2224
16560W        W33034   2.240   1.181  11.693 -0.1913 -0.1934 -0.1136
16561W        W33035  16.929   7.806  14.740 -0.2856  0.2999 -0.3776
16562W        W33036  12.151  13.237   4.480 -0.1417 -0.0222 -0.0023
16563W        W33037   3.814  16.887   1.712 -0.0461  0.0894  0.0160
16564W        W33038   2.328   5.667  11.030  0.2627 -0.1974 -0.3122
16565W        W33039  18.172   3.062  14.545  0.2706  0.2277 -0.0708
16566W        W33040  18.759  13.043  12.244  0.1179  0.0103  0.1636
16567W        W33041   2.424   5.472   1.150  0.3730 -0.0925 -0.0132
16568W        W33042  14.613   2.909   4.538  0.1858 -0.2863 -0.0731
16569W        W33043  16.625   9.277  11.107 -0.0864  0.1085  0.0496
16570W        W33044   0.001   9.027   1.233 -0.0238  0.2832  0.3699
16571W        W33045  13.280   5.360   0.737  0.3587 -0.1944  0.0125
16572W        W33046  10.759   0.746   1.530 -0.0809  0.0240  0.1580
16573W        W33047  12.078   1.404   2.212  0.1764  0.2280  0.0295
16574W        W33048   0.107   0.870   5.918 -0.0351  0.0506 -0.3226
16575W        W33049  14.249   2.915   0.903 -0.0022 -0.2919 -0.2358
16576W        W33050  13.680   2.831  12.711 -0.1860 -0.1959 -0.3225
16577W        W33051  12.567   7.108  11.447  0.3023 -0.1989 -0.0090
16578W        W33052   1.839   9.079  15.106 -0.1068 -0.1758 -0.1780
16579W        W33053   3.139   6.459   9.180  0.2301  0.0692 -0.2930
16580W        W33054  15.392  11.889   5.503 -0.0511 -0.1152 -0.0783
16581W        W33055   7.628  12.457   4.314 -0.0025 -0.1659  0.0194
16582W        W33056  18.678   1.382   0.276 -0.2010 -0.0817 -0.0992
16583W        W33057  12.404   8.912  15.313  0.0262  0.1024 -0.1443
16584W        W33058  14.851  14.281   4.579 -0.1092 -0.1843 -0.1761
16585W        W33059   2.431   9.405   1.548  0.1215 -0.0836 -0.0402
16586W        W33060  12.148   2.691   4.604 -0.3111  0.0624 -0.1925
16587W        W33061  15.692  16.587  11.792 -0.4442 -0.4146  0.1795
16588W        W33062  15.731  13.491   1.726 -0.0372  0.3729  0.0112
16589W        W33063  14.988  13.008   4.811 -0.2062  0.1754 -0.0122
16590W        W33064   8.904  16.517   1.954  0.5152  0.0378 -0.0758
16591W        W33065   9.646   7.951  13.888  0.4091 -0.1506  0.0058
16592W        W33066   1.308   5.145   0.796  0.1395  0.2917  0.0379
16593W        W33067   0.898   4.715   2.755 -0.2056 -0.1539  0.0638
16594W        W33068   6.288   1.035  13.017 -0.0794  0.0819 -0.0425
16595W        W33069  17.415  17.020   0.857 -0.3525  0.2756 -0.0834
16596W        W33070   6.884  10.176   3.949 -0.1319 -0.3469 -0.1918
16597W        W33071  14.488   3.065   0.106  0.0340 -0.5643  0.0765
16598W        W33072   5.366  10.903   2.034 -0.3247 -0.0164  0.0458
16599W        W33073   8.559  12.804   0.766 -0.1391  0.0554  0.0005
16600W        W33074  13.708  14.401   1.232 -0.0599 -0.0639 -0.4190
16601W        W33075   4.117   0.277   3.730 -0.0079  0.0368  0.0716
16602W        W33076   7.784  18.223  13.369  0.1773 -0.2770 -0.4155
16603W        W33077  14.735   8.768   4.848 -0.0467  0.3146  0.0512
16604W        W33078   5.838  15.411   0.285  0.1249 -0.0924  0.3601
16605W        W33079  13.595  16.625   5.710  0.1049 -0.0444 -0.0075
16606W        W33080   9.192   7.648  12.353  0.0742  0.1438 -0.2899
16607W        W33081   7.816  11.214  11.799 -0.0312 -0.4102  0.0760
16608W        W33082  10.927  13.708   3.087  0.0667  0.0918  0.2909
16609W        W33083  14.312  17.849   1.459 -0.0009  0.0677 -0.1195
16610W        W33084   5.973   7.712  13.347  0.0043  0.1600  0.0852
16611W        W33085   9.012  14.707   2.020 -0.0762 -0.2426 -0.2636
16612W        W33086   9.448   6.435   2.529 -0.1205 -0.2616 -0.1864
16613W        W33087   8.752   8.170   3.700  0.0455 -0.1566 -0.0955
16614W        W33088   4.777   8.905   1.612 -0.2596 -0.0218  0.2196
16615W        W33089   3.385   9.067   3.713  0.3331  0.0518  0.2201
16616W        W33090   3.146  13.050  10.435 -0.0537 -0.0405  0.2142
16617W        W33091   1.669   2.633  12.541  0.2720  0.0734  0.1976
16618W        W33092   5.261  13.567   9.973 -0.1385  0.1390 -0.0606
16619W        W33093   0.095   0.610  11.799 -0.3230 -0.1105 -0.0301
16620W        W33094   6.876   4.646   2.011  0.0706  0.2391  0.1610
16621W        W33095  12.500   4.432   1.080  0.1745  0.2197 -0.1540
16622W        W33096   8.522   4.625   1.501  0.1548 -0.1378 -0.2016
16623W        W33097   4.039   9.705  11.879 -0.2547 -0.0771  0.0760
16624W        W33098   0.712  13.009  12.562 -0.0450 -0.3218  0.3170
16625W        W33099  13.431   6.986  12.475 -0.0071 -0.3551 -0.0699
16626W        W33100  14.358   4.417  14.050  0.0472  0.0747 -0.5700
16627W        W33101  16.014   8.831   5.139  0.1183  0.1359  0.0051
16628W        W33102   6.750   4.640   0.409 -0.2832 -0.0426 -0.1362
16629W        W33103   4.298   7.737  10.152  0.2610  0.0800  0.2377
16630W        W33104   5.036  15.862  14.207  0.0086 -0.0636  0.0818
16631W        W33105  14.359   0.949  11.443  0.1647  0.0141  0.0562
16632W        W33106  13.453   2.499  14.776  0.0380  0.1062 -0.0172
16633W        W33107  10.693  11.338   6.077 -0.0768 -0.0348 -0.2082
16634W        W33108   4.007  18.662   2.088  0.1355  0.1424  0.1457
16635W        W33109   9.381  14.117   4.423  0.0289 -0.1863  0.0303
16636W        W33110   4.851  18.346   5.026 -0.0511 -0.0728 -0.0741
16637W        W33111   5.726  17.204  14.530  0.2847 -0.0617 -0.6368
16638W        W33112   2.309  15.431  12.648  0.3938  0.3618 -0.0640
16639W        W33113   9.571   8.819   3.439 -0.1079  0.2794 -0.2212
16640W        W33114   2.434   1.111   2.684 -0.0032  0.1600  0.0816
16641W        W33115   9.030  18.003   1.128 -0.0093 -0.2181  0.1682
16642W        W33116  16.850  11.589   3.463  0.1967  0.1733 -0.0453
16643W        W33117  12.310   0.514   5.663  0.0233 -0.0346  0.1944
16644W        W33118  12.985   5.971  13.129  0.1078  0.1854 -0.0264
16645W        W33119   6.133  15.596  12.553 -0.1809 -0.2135  0.0190
16646W        W33120   1.369   9.666   4.797  0.1234  0.4117  0.3672
16647W        W33121  14.191   9.382  13.896 -0.1916  0.2708  0.0843
16648W        W33122   0.280  17.515   0.739 -0.2196 -0.1220 -0.2039
16649W        W33123  17.939  12.297  10.710  0.0619 -0.3491 -0.3770
16650W        W33124  15.550   5.180  14.041 -0.2071  0.0267 -0.2675
16651W        W33125   6.836   2.924   3.284  0.0652  0.0859  0.3206
16652W        W33126   8.277  10.948  12.658  0.0935  0.0964 -0.0420
16653W        W33127   9.613   4.047   3.034 -0.3831 -0.0063  0.2234
16654W        W33128  14.000  11.732   0.661 -0.0590  0.0865  0.1761
16655W        W33129   9.838   9.684  11.644 -0.0499 -0.1548 -0.2030
16656W        W33130   4.071  13.322  15.482  0.0769  0.3255 -0.3494
16657W        W33131   0.813   1.981  12.305  0.0036  0.2013 -0.0223
16658W        W33132  17.387  17.995  12.255 -0.1563 -0.2994 -0.1122
16659W        W33133  14.264   1.951   3.365 -0.1452 -0.2705  0.4987
16660W        W33134   0.173   7.993   5.519 -0.3189 -0.1410 -0.4199
16661W        W33135   2.958   4.588  11.034 -0.1591  0.0423 -0.0519
16662W        W33136   0.506   3.370  14.689 -0.0640 -0.1204 -0.1053
16663W        W33137  14.517  15.253  15.320 -0.1169  0.1005 -0.0547
16664W        W33138   4.227   8.527   4.886  0.5119 -0.0602 -0.2529
16665W        W33139  18.178  17.283   0.548  0.1466  0.1021  0.1961
16666W        W33140   7.189  18.051   0.985 -0.0173 -0.0832  0.1980
16667W        W33141   8.972  16.334   1.314 -0.1318 -0.0456  0.0824
16668W        W33142   3.570   4.145   0.526 -0.1622  0.0535  0.1611
16669W        W33143  17.778   4.000   1.506 -0.0835  0.0442 -0.2795
16670W        W33144   9.828   2.852   0.851 -0.3082  0.0609  0.0141
16671W        W33145   1.410   4.156  14.907  0.1613  0.0276 -0.0254
16672W        W33146  13.286   4.315  13.637 -0.3614  0.0075 -0.0981
16673W        W33147   8.563  15.640  11.748 -0.4710 -0.0729 -0.2310
16674W        W33148   7.607   9.865  12.960  0.0389  0.3056  0.1124
16675W        W33149   4.418  13.361  13.820 -0.0845  0.0464  0.0966
16676W        W33150  10.223  18.074  12.699  0.4526  0.0703  0.1487
16677W        W33151   3.689  15.677  11.579  0.1304  0.0852 -0.1403
16678W        W33152   3.052   2.963   5.060  0.1604 -0.0849 -0.2336
16679W        W33153   7.054  10.145  12.099  0.1119 -0.2720 -0.1628
16680W        W33154   8.566   3.034  11.000  0.1037  0.2558 -0.0156
16681W        W33155   2.709   8.756  14.969  0.1170 -0.3155  0.2305
16682W        W33156   8.897  16.110   3.474  0.1348 -0.0356  0.2573
16683W        W33157  18.004  13.827   4.184 -0.1900  0.1409  0.1687
16684W        W33158  18.018   7.009   5.061  0.0310 -0.0632 -0.0472
16685W        W33159   9.684   5.871   1.050  0.1702  0.0509  0.0498
16686W        W33160   0.827   6.299  15.524 -0.3272  0.3208 -0.1665
16687W        W33161  10.631  16.646   5.150 -0.0954 -0.0698 -0.2283
16688W        W33162  18.105   2.518   0.547  0.0530  0.0225 -0.1657
16689W        W33163  10.596  11.853   5.282  0.0408  0.1564  0.1810
16690W        W33164  15.077  11.474  15.358  0.1070 -0.0104 -0.0230
16691W        W33165  16.806  16.190  15.177 -0.2076 -0.1160  0.0091
16692W        W33166   4.405  16.799  10.986 -0.1173 -0.1079 -0.2506
16693W        W33167   6.537   4.743  12.378 -0.2395  0.0289 -0.0393
16694W        W33168   1.142   4.770   0.485  0.0914  0.0222 -0.0186
16695W        W33169   0.807   0.168  11.197  0.2380 -0.2719 -0.2833
16696W        W33170   8.678  14.287  10.427  0.0619  0.0253 -0.1892
16697W        W33171   2.179  10.375   3.595  0.1361 -0.2219  0.1864
16698W        W33172   2.530  14.110   4.193  0.2685 -0.2609  0.3090
16699W        W33173  13.249  11.990  14.802  0.1796  0.0493 -0.0139
16700W        W33174  11.783   1.117   2.960  0.0696 -0.0766 -0.0352
16701W        W33175   5.497   4.044  14.265 -0.0489 -0.0068 -0.1422
16702W        W33176   5.952   7.568  12.375  0.1094 -0.2100 -0.0907
16703W        W33177  13.236   0.688   0.688 -0.0290 -0.0387  0.0866
16704W        W33178  14.337  12.493   2.742  0.1671 -0.0041 -0.1001
16705W        W33179   0.674   6.935   0.837 -0.0706  0.0632 -0.1986
16706W        W33180   6.129   2.182   1.579 -0.1849  0.0933 -0.3948
16707W        W33181   2.100   0.532   1.106  0.2981  0.3484 -0.1588
16708W        W33182  14.111   3.776   5.307 -0.0521 -0.1291 -0.0296
16709W        W33183  16.690   4.843   1.980  0.1321 -0.0144  0.0595
16710W        W33184   0.656  14.705  11.499  0.1489  0.0087  0.0654
16711W        W33185  13.175   6.845   0.047 -0.0280  0.2311 -0.1328
16712W        W33186  10.572   5.225   0.769 -0.2597 -0.1340  0.0619
16713W        W33187   1.876   6.365   0.463 -0.1126 -0.1205 -0.0427
16714W        W33188   9.089   2.666  13.391 -0.1217  0.3092  0.0008
16715W        W33189   3.743  16.228   3.135  0.1731 -0.3076  0.1958
16716W        W33190   6.408   0.254   2.496 -0.2994  0.0321  0.3716
16717W        W33191   0.008  18.277   2.113 -0.0922 -0.1116  0.1019
16718W        W33192  12.110  17.787   6.158  0.1830 -0.0100  0.0171
16719W        W33193   7.215   5.885  13.983 -0.1194  0.0833  0.0229
16720W        W33194  13.576  18.669   2.611  0.2035 -0.0170  0.0134
16721W        W33195   3.780   5.502   3.317  0.0964  0.2285 -0.0781
16722W        W33196   5.544  16.129  10.043 -0.1230  0.1564  0.0931
16723W        W33197  17.632  18.492   5.383 -0.1612 -0.0666 -0.0288
16724W        W33198  13.255   3.203   3.572 -0.0867 -0.2841 -0.0144
16725W        W33199   3.565  15.377   0.292  0.1549 -0.1114  0.2567
16726W        W33200   7.013   0.343   2.868  0.3248 -0.2012 -0.1293
16727W        W33201   1.799  11.409   1.733 -0.1369 -0.2293  0.1195
16728W        W33202   6.341  12.543   3.709 -0.1047  0.1227 -0.1397
16729W        W33203   7.383   6.148   0.890  0.0099 -0.1957  0.2523
16730W        W33204   5.549  16.833  12.161 -0.0124 -0.1173  0.0778
16731W        W33205   9.027   2.829   1.354 -0.0981 -0.1137 -0.1107
16732W        W33206  10.586  14.359  14.126  0.0562 -0.1152 -0.2664
16733W        W33207   0.205  15.160   0.902 -0.1622 -0.0061  0.0214
16734W        W33208   7.608   8.941   1.191 -0.0114  0.0891  0.0394
16735W        W33209   9.456   6.489   3.339  0.2672  0.0383  0.4622
16736W        W33210   1.658   3.979   1.937  0.2882 -0.1415 -0.0068
16737W        W33211  10.303   4.414  11.092 -0.1474 -0.1405  0.2050
16738W        W33212  14.529  17.678   4.866 -0.3368 -0.0340 -0.0753
16739W        W33213  15.463  13.981   0.260 -0.0707  0.2389 -0.0396
16740W        W33214   9.525   8.223   5.493  0.3189  0.0613  0.0823
16741W        W33215   8.956   1.737   3.034 -0.3256 -0.1747 -0.0642
16742W        W33216  18.390   3.289  11.015 -0.2261 -0.1277 -0.1336
16743W        W33217   4.073  13.469   3.252  0.0470 -0.0830 -0.1593
16744W        W33218   9.011  17.871   0.644  0.0554 -0.2328  0.0216
16745W        W33219   0.659  16.094   0.671 -0.0158  0.1506 -0.0048
16746W        W33220   5.845   1.784   3.914  0.0487 -0.2752  0.0772
16747W        W33221   5.097   4.297  10.651  0.0220 -0.0026  0.0959
16748W        W33222  16.503  10.155   3.649  0.0689  0.2756  0.2056
16749W        W33223  18.132  14.990   1.984  0.0442  0.1463  0.1203
16750W        W33224   9.838   5.259  11.532 -0.0583  0.2331  0.0184
16751W        W33225   5.748  15.313   2.046  0.1070  0.1124 -0.0312
16752W        W33226   6.447  15.838  14.142  0.2059  0.0694 -0.2486
16753W        W33227   0.923   0.857  15.116 -0.1397 -0.2659 -0.2092
16754W        W33228   9.586   4.534   4.361 -0.2141  0.2082  0.1534
16755W        W33229  10.780  12.617  13.475  0.1055 -0.0093 -0.1229
16756W        W33230   4.475  12.899   2.173  0.2827 -0.2448 -0.1445
16757W        W33231   2.229  18.397   0.553 -0.1745 -0.0156  0.3146
16758W        W33232  11.895  10.214   4.469 -0.2846  0.0238 -0.0765
16759W        W33233  13.608   8.279   2.806 -0.1414 -0.0522 -0.0045
16760W        W33234   5.223  10.213   2.502 -0.3956 -0.0701 -0.0995
16761W        W33235   8.275  15.187   0.433  0.0181 -0.1912  0.0254
16762W        W33236   6.593   0.610  14.191  0.0372 -0.0453  0.0102
16763W        W33237  16.506  13.860   2.632  0.1189 -0.5648  0.1338
16764W        W33238   2.947  17.962  10.689 -0.2232  0.0895  0.2217
16765W        W33239   1.297  11.462   4.330 -0.1154  0.0259  0.3113
16766W        W33240  17.593  11.649  13.575  0.0547  0.0748  0.0500
16767W        W33241  12.862  17.523  13.229 -0.1286 -0.0064  0.1673
16768W        W33242   4.083  10.011  15.037  0.1028 -0.5097  0.1768
16769W        W33243   9.774   9.430   2.219 -0.3342 -0.2711  0.0832
16770W        W33244  14.131  15.290  11.634 -0.0917  0.4666 -0.1296
16771W        W33245   7.015  15.663  12.325  0.0919 -0.0343  0.2446
16772W        W33246   9.099  18.681   2.507  0.1912 -0.3230  0.0940
16773W        W33247  17.418  17.460   0.482 -0.0435 -0.1343 -0.0692
16774W        W33248   7.138  17.801  13.785 -0.0958  0.0816  0.1715
16775W        W33249   2.443  17.402   0.136  0.1539  0.1007  0.1252
16776W        W33250  11.842   2.873   4.933  0.1566 -0.2115 -0.0649
16777W        W33251  17.927  12.335  15.488  0.0549  0.1667 -0.1553
16778W        W33252  10.629  11.709   2.172  0.3524 -0.3252  0.2228
16779W        W33253   3.926  16.173  12.305  0.2312 -0.2188 -0.1070
16780W        W33254  18.644   8.261   4.035  0.2437 -0.2678  0.0298
16781W        W33255  18.709   8.084  13.558  0.0533 -0.2140  0.1513
16782W        W33256   6.724   1.388   2.492 -0.0913  0.0069  0.0080
16783W        W33257  13.027   2.464  11.212  0.3132 -0.4656 -0.2905
16784W        W33258   1.106   7.460   4.469 -0.0323 -0.3602  0.0883
16785W        W33259   0.356   1.559  13.710  0.2140 -0.2840 -0.2305
16786W        W33260  13.274  16.030  14.444 -0.1092  0.0640  0.2712
16787W        W33261  18.236   2.865   2.954  0.1639 -0.3185  0.2156
16788W        W33262  13.455  18.002  14.084 -0.0532 -0.0037 -0.1285
16789W        W33263   0.068  12.752  11.835 -0.1132  0.0544  0.0821
16790W        W33264  11.846   2.144  13.715  0.1693  0.0923  0.0532
16791W        W33265   3.378   8.005   0.728 -0.1319  0.0151  0.0056
16792W        W33266  14.822  16.242   4.409 -0.1617 -0.0935 -0.2887
16793W        W33267   9.149   6.505   2.978 -0.0554  0.0479  0.0730
16794W        W33268  10.881   0.007  12.304  0.3330 -0.3340 -0.1188
16795W        W33269   5.934   4.793   1.293  0.2432 -0.1850 -0.1069
16796W        W33270   0.382   0.016  15.433 -0.2899  0.1627  0.0072
16797W        W33271   4.824  15.165   3.215  0.0394 -0.0300  0.0287
16798W        W33272   0.967  17.322  10.701 -0.0334 -0.2609  0.4793
16799W        W33273  10.722  13.146  15.435 -0.0691 -0.2221  0.0472
16800W        W33274   3.852  12.840  12.642 -0.1473  0.2183 -0.2976
16801W        W33275   2.143   2.338  14.497 -0.1200 -0.0126  0.0928
16802W        W33276  11.063   1.683   2.807  0.0465  0.3160 -0.0943
16803W        W33277  12.478   2.638   2.259 -0.0406  0.1033 -0.4403
16804W        W33278   0.869   5.639  11.198 -0.1022 -0.1834  0.0972
16805W        W33279  13.908  13.541   2.135  0.0990  0.1331 -0.0003
16806W        W33280  15.077  15.350   1.024 -0.0052  0.3498  0.3949
16807W        W33281   0.982   5.217  10.895 -0.4807  0.2183  0.0988
16808W        W33282   5.053   3.842  14.097 -0.2197  0.0928 -0.0449
16809W        W33283   3.263   6.167   3.856 -0.2347  0.0012 -0.0866
16810W        W33284  16.571  11.035   3.929 -0.0013  0.3326 -0.1682
16811W        W33285  14.852  13.800   4.435 -0.1274  0.0065 -0.0670
16812W        W33286   4.210   1.524  12.380 -0.2382  0.0072  0.4374
16813W        W33287   0.763  13.001   2.379 -0.0793  0.1575  0.1441
16814W        W33288  11.162  14.674   0.059 -0.1850  0.1404 -0.0215
16815W        W33289   7.883  13.921  13.269  0.2383  0.3228 -0.2382
16816W        W33290  10.652  13.815   1.783 -0.0681  0.0805  0.1483
16817W        W33291  15.631   9.125  11.890 -0.2444  0.3133 -0.0143
16818W        W33292   9.129  17.908   5.750 -0.1683 -0.1390 -0.0767
16819W        W33293   7.339   2.459  12.770  0.0624 -0.2163 -0.0104
16820W        W33294   1.566   0.137   0.879  0.1899  0.2393  0.2477
16821W        W33295   5.924   7.202  15.069  0.0857 -0.1282  0.0245
16822W        W33296   1.182   1.484  13.962  0.2051 -0.0798 -0.0277
16823W        W33297   4.308   5.274  15.277 -0.1902 -0.2137 -0.1023
16824W        W33298  15.395   6.438   4.162  0.1946 -0.0140 -0.0142
16825W        W33299   8.721  16.724   4.064 -0.0056  0.0452  0.0128
16826W        W33300   5.031   2.630   1.997 -0.1554 -0.2508 -0.0340
16827W        W33301   5.760   4.217  11.905 -0.0008  0.0536 -0.1946
16828W        W33302  13.158   4.493  12.278  0.1936 -0.1239  0.0913
16829W        W33303  14.354  18.161  13.243  0.1216 -0.0569  0.1002
16830W        W33304  18.068   5.073   5.786  0.0596  0.1216  0.3362
16831W        W33305   6.136  12.639   1.328 -0.1880  0.0638 -0.0944
16832W        W33306   5.786  11.806  14.606  0.1353  0.0037  0.0888
16833W        W33307  15.196  10.967   2.723  0.1709  0.1428 -0.2010
16834W        W33308   5.599   5.697  12.608 -0.0520  0.0552  0.0231
16835W        W33309  15.261  12.751  12.364  0.0071  0.1945  0.5028
16836W        W33310   3.936   4.247  11.962 -0.0146 -0.1896 -0.1836
16837W        W33311   3.078   6.625  10.757  0.1099 -0.1160  0.0884
16838W        W33312   0.410   5.429   4.623 -0.2157 -0.4678  0.1215
16839W        W33313   9.395  14.405   2.083 -0.0619 -0.2659 -0.0620
16840W        W33314  17.297  16.903   3.449 -0.0212  0.1065 -0.0202
16841W        W33315   1.912  14.876  13.512 -0.1012 -0.1311 -0.0439
16842W        W33316  12.936  18.015  12.101  0.3893  0.1815  0.1068
16843W        W33317   8.691  15.545   1.146 -0.1473  0.0177  0.4609
16844W        W33318   2.754   4.228   0.091  0.1406  0.1251 -0.1797
16845W        W33319   4.802  16.526   4.867 -0.0972  0.0193  0.3247
16846W        W33320  12.425   7.187  10.979  0.2920  0.1831 -0.0254
16847W        W33321   6.902  14.843   3.425 -0.2695 -0.0436  0.2325
16848W        W33322  15.110  14.714   1.758  0.1739  0.0629 -0.1304
16849W        W33323   7.761  11.979  13.506  0.3853  0.0902 -0.1615
16850W        W33324  17.944   0.354   0.126  0.0310 -0.0113  0.1218
16851W        W33325  16.923  14.243  11.566  0.2674 -0.1984 -0.0587
16852W        W33326  13.837  12.824  14.492  0.2050 -0.3603 -0.0930
16853W        W33327   1.770  18.693   3.758 -0.1519  0.0230 -0.1406
16854W        W33328  13.615  16.057  10.611  0.3069  0.2823 -0.0245
16855W        W33329  12.687   8.939  12.889  0.2306  0.3249  0.2699
16856W        W33330   4.661  12.465   0.537 -0.1874  0.0975 -0.0858
16857W        W33331   4.549  12.712   4.058  0.0830 -0.0684 -0.0969
16858W        W33332   9.790  11.712  13.348 -0.3335  0.1465 -0.0444
16859W        W33333  18.479   2.517   4.323  0.2203  0.1145  0.0067
16860W        W33334  11.256   3.286  15.161 -0.0313  0.0372  0.1596
16861W        W33335  18.322  13.808  11.160 -0.1294  0.3112 -0.2561
16862W        W33336  15.303   2.532   1.796 -0.0840 -0.3066 -0.0803
16863W        W33337   0.661   3.638   0.636 -0.0300  0.0832 -0.2390
16864W        W33338   8.783  17.512  13.263  0.0952  0.3386 -0.1440
16865W        W33339  17.502   1.387   4.469 -0.2696 -0.2476  0.2261
16866W        W33340  15.897  12.050   5.584  0.0185  0.0716  0.2753
16867W        W33341   5.624   8.839   1.217 -0.0498  0.3872  0.1113
16868W        W33342  14.434   8.876  12.299  0.1295 -0.1119  0.0206
16869W        W33343   4.960   7.601   0.521 -0.1935  0.0109 -0.1923
16870W        W33344  16.110  14.209   3.346 -0.1094 -0.0142 -0.0283
16871W        W33345   3.677  11.566   0.552 -0.1007 -0.0383  0.0808
16872W        W33346   6.247  15.841  11.769 -0.1945  0.3415  0.0102
16873W        W33347   3.423  13.866   2.963  0.1642 -0.3810  0.1444
16874W        W33348  14.706  16.197   3.840  0.1433  0.0444 -0.2060
16875W        W33349  10.378   5.718   1.601 -0.0634  0.0415  0.3771
16876W        W33350  12.564  11.707  13.583  0.0639 -0.1586 -0.0297
16877W        W33351  14.723   9.305   4.823  0.4099 -0.3671  0.0514
16878W        W33352  12.393   8.230   2.436 -0.0439 -0.2686  0.1614
16879W        W33353  15.158  10.802  12.298 -0.2123  0.1736 -0.1770
16880W        W33354  15.284   1.504   0.366 -0.2164  0.3885 -0.1297
16881W        W33355   2.645  13.846  14.229  0.0031  0.2125  0.0185
16882W        W33356  17.155  11.072  11.888  0.2000  0.2306 -0.1379
16883W        W33357   4.073  17.249  11.418  0.2463 -0.0661  0.0613
16884W        W33358   8.507   0.803  13.620  0.3726 -0.1428  0.0331
16885W        W33359   5.566  14.904   4.390 -0.4505  0.0400 -0.0884
16886W        W33360   5.820   9.656   1.927 -0.3866  0.0444 -0.0866
16887W        W33361  18.789  12.336   1.780  0.1300 -0.0143 -0.0055
16888W        W33362  18.690   4.439   2.630 -0.1087 -0.2785 -0.1286
16889W        W33363  10.257  11.201   0.118 -0.1930 -0.0099 -0.1441
16890W        W33364   7.846   0.418  15.325  0.0992  0.0951 -0.0572
16891W        W33365   3.282   4.917   2.080 -0.2463 -0.1126  0.0458
16892W        W33366   6.654   1.077   2.892 -0.1510 -0.2201  0.2649
16893W        W33367   6.465   7.553   0.836  0.1269 -0.1887  0.2236
16894W        W33368   6.128   1.898  15.329 -0.1426 -0.0045 -0.0521
16895W        W33369   2.779   2.227   2.391  0.0464  0.1895 -0.0045
16896W        W33370   9.818   5.216  13.318  0.1246  0.0993  0.0219
16897W        W33371  15.537   7.482  11.447  0.0654  0.0364 -0.1183
16898W        W33372   5.792  10.781   2.907 -0.0401  0.0715  0.1004
16899W        W33373   5.316   5.842  15.347  0.1059  0.0717 -0.0015
16900W        W33374   2.343   3.840  14.917  0.2620 -0.1155  0.1551
16901W        W33375   2.133   4.405  11.105 -0.2899 -0.4343  0.0847
16902W        W33376   4.272   9.409  13.870  0.1319 -0.2635 -0.2313
16903W        W33377  12.705   6.631   1.008 -0.1047 -0.1574  0.2368
16904W        W33378  13.230   8.846   0.326  0.1395 -0.1092  0.1179
16905W        W33379   2.069   2.893  12.756 -0.0775  0.0591 -0.1640
16906W        W33380  12.303  17.456  13.686  0.2288 -0.2398  0.0639
16907W        W33381  16.077   7.113   2.581  0.1926 -0.0357 -0.2471
16908W        W33382   9.042  10.483  11.324  0.1840  0.4997  0.2164
16909W        W33383  17.401   9.332  11.452  0.0957 -0.1144 -0.0010
16910W        W33384   1.506   7.658  14.276 -0.1180  0.1144 -0.0247
16911W        W33385   8.943  14.240   3.748 -0.0556  0.0042 -0.0389
16912W        W33386  10.871  14.827   0.460 -0.2022 -0.1007 -0.2256
16913W        W33387  13.771  10.930   2.992 -0.0508 -0.0883  0.1784
16914W        W33388   2.481  12.365  15.168 -0.1051  0.1016 -0.0030
16915W        W33389  17.815   6.150   4.801 -0.1939 -0.1895  0.1611
16916W        W33390  10.927  17.451  13.533 -0.0380  0.1519 -0.3112
16917W        W33391   2.529  10.478   3.194 -0.0086 -0.1116  0.2090
16918W        W33392  11.176  15.633  13.125  0.0785  0.2611  0.0728
16919W        W33393  17.404   6.239  13.325 -0.0281 -0.0994  0.1301
16920W        W33394   8.559  10.982  14.235 -0.5014  0.0502 -0.1087
16921W        W33395  16.493  18.456  10.951 -0.1765 -0.1418  0.0150
16922W        W33396   8.805  18.537  14.078  0.0663 -0.3647  0.0054
16923W        W33397   7.853   9.191   2.137  0.1369  0.1204  0.1681
16924W        W33398   6.806   3.351   0.977 -0.0993 -0.2895  0.0795
16925W        W33399  14.841   6.905   4.794  0.0193  0.0030 -0.1415
16926W        W33400  13.769  16.737   5.185 -0.1614  0.0052  0.2134
16927W        W33401  14.682   9.380   5.777 -0.4934  0.0210 -0.1018
16928W        W33402   1.311  15.336   1.186 -0.0699 -0.0781 -0.0004
16929W        W33403  12.954   9.544   0.855  0.0106 -0.1246  0.2473
16930W        W33404  16.634  12.264   5.242  0.1240  0.0555 -0.3267
16931W        W33405  12.643  17.400   4.043 -0.1716  0.2364 -0.1575
16932W        W33406   4.170   1.847   3.666  0.1603  0.0190  0.3138
16933W        W33407   3.056   1.005   3.237  0.0569  0.0484  0.2369
16934W        W33408   8.885   3.202  14.436 -0.1651  0.0173 -0.5870
16935W        W33409   2.932   1.991  12.380 -0.3192 -0.0083 -0.2839
16936W        W33410   9.482   4.229   2.521  0.0136  0.3240 -0.0555
16937W        W33411  14.366  16.548   4.123  0.1699 -0.1587  0.1837
16938W        W33412  18.228  12.584  15.152  0.2958 -0.1235  0.3416
16939W        W33413   8.728  16.460  14.182  0.1424  0.2718  0.2193
16940W        W33414   2.206  13.207   3.157 -0.0016  0.1643  0.0800
16941W        W33415   6.118  12.195   3.252 -0.0692  0.1214 -0.1525
16942W        W33416   7.607  18.278   4.634 -0.3606 -0.2439  0.1100
16943W        W33417   7.808   5.853  12.099  0.0430  0.0871  0.0232
16944W        W33418  15.527  15.522  11.577  0.0425  0.0479 -0.0903
16945W        W33419  11.399   2.159   1.534  0.2330 -0.2091 -0.0601
16946W        W33420  15.113   9.421  14.850  0.1132 -0.0343 -0.4556
16947W        W33421  16.944  17.578  10.762 -0.0783 -0.2776 -0.2639
16948W        W33422   8.745  10.103  10.990 -0.2795  0.0483 -0.0805
16949W        W33423  11.477   4.629  13.488  0.0606 -0.0649  0.2174
16950W        W33424   3.064   3.495  11.707 -0.0481 -0.0822 -0.1015
16951W        W33425  15.246   8.194  10.984 -0.2253 -0.1627  0.0920
16952W        W33426  15.281   7.960   5.656  0.0225  0.0668  0.0436
16953W        W33427  18.717  17.381   3.710 -0.1180  0.1354 -0.0593
16954W        W33428  13.534  15.603  13.723  0.0552 -0.1455  0.2143
16955W        W33429  10.290   3.714   3.917 -0.0298  0.2189 -0.0039
16956W        W33430   6.533   7.988   2.444 -0.1365 -0.1428  0.1625
16957W        W33431  13.905   4.515   1.316  0.0034 -0.0460  0.0462
16958W        W33432  17.229  12.808  12.844 -0.0273 -0.2927 -0.0475
16959W        W33433   3.909  13.434  13.832  0.0128  0.1792  0.4021
16960W        W33434  11.876   8.765   3.940 -0.1022  0.1992 -0.3378
16961W        W33435  12.211   3.162  11.209  0.1901  0.0965 -0.1606
16962W        W33436  10.669   0.242   3.014  0.2082 -0.2089 -0.0068
16963W        W33437   8.947   6.014   4.152 -0.0218  0.1429  0.0525
16964W        W33438  13.853   2.518  14.451 -0.1299  0.0629  0.0760
16965W        W33439   8.012  12.643   1.589  0.1732  0.2556  0.1736
16966W        W33440   8.235   3.404   1.669 -0.1795  0.1169  0.2704
16967W        W33441   8.707  17.446  12.202 -0.3397 -0.2762 -0.0494
16968W        W33442  13.972  11.476  11.515 -0.1574 -0.1781  0.1516
16969W        W33443   9.383   5.330  11.925 -0.4412 -0.2484 -0.1176
16970W        W33444  16.801  15.584   1.137  0.2047  0.1246 -0.2724
16971W        W33445   9.209  17.064   4.801  0.0419 -0.0140  0.0709
16972W        W33446   5.423   3.986  12.259 -0.0412  0.0077 -0.3236
16973W        W33447  10.017   8.607  11.757 -0.0618 -0.4419  0.1278
16974W        W33448   6.830   1.386  10.691  0.1327 -0.1586 -0.4613
16975W        W33449   7.022  18.583   3.136  0.3563 -0.0818  0.1034
16976W        W33450   2.918  11.500  14.918 -0.1823  0.1980 -0.0387
16977W        W33451  12.248  13.244   0.271  0.3597 -0.0091 -0.1847
16978W        W33452  13.057  12.253   3.940 -0.1083  0.1712  0.0964
16979W        W33453  16.752   2.677  11.448  0.2179 -0.0376  0.1074
16980W        W33454   8.628   8.796   1.233 -0.0844 -0.0175  0.1564
16981W        W33455   4.172   5.257   5.111 -0.2009 -0.0226  0.2865
16982W        W33456  16.231   2.630   5.879  0.0107 -0.1465  0.0975
16983W        W33457  14.314  18.038   1.015 -0.1396 -0.0618  0.0107
16984W        W33458  13.323   0.444   1.105 -0.1907  0.0483 -0.2034
16985W        W33459   5.759   7.541  13.854 -0.1671 -0.1934  0.1049
16986W        W33460  14.675   0.633  14.199 -0.1496 -0.1636  0.0764
16987W        W33461  18.309  12.200   2.021  0.5631  0.3062 -0.3490
16988W        W33462   4.504   6.916  12.764 -0.3816  0.0934  0.0246
16989W        W33463  12.308   1.308  13.294  0.3354 -0.0602  0.0050
16990W        W33464   6.666   7.493   2.475 -0.0473  0.2617 -0.3915
16991W        W33465  13.192  17.792  10.819 -0.1322  0.0201  0.1483
16992W        W33466   4.452  13.057   1.493 -0.1399  0.0766  0.0802
16993W        W33467   6.259  11.979  14.495  0.0540  0.3049 -0.1823
16994W        W33468   9.228   5.290   4.357  0.0225  0.0996  0.0050
16995W        W33469   0.978   4.594   3.801  0.0059  0.0934 -0.1044
16996W        W33470   5.419   3.688  11.226 -0.0331  0.0107 -0.1271
16997W        W33471  12.308   7.420   4.097  0.2530  0.1759  0.0832
16998W        W33472  14.559  16.489   4.774  0.3464 -0.4260  0.1434
16999W        W33473   8.755  12.298   4.366  0.2225 -0.0519  0.1645
17000W        W33474   0.284  13.276   5.560  0.3720 -0.1259 -0.1371
17001W        W33475  13.823  12.021  14.935 -0.1740 -0.2592 -0.0468
17002W        W33476   3.069  17.926   4.771  0.1270  0.1108  0.0638
17003W        W33477  14.283  16.034   1.510 -0.1993  0.0990 -0.1398
17004W        W33478  15.343   8.601  12.870 -0.0793 -0.1039 -0.3710
17005W        W33479   8.117  17.389  12.892 -0.1768  0.1050 -0.1191
17006W        W33480  14.165   0.320  14.887 -0.0018 -0.0650 -0.0943
17007W        W33481   3.008  17.340  11.163 -0.2366  0.0075 -0.2053
17008W        W33482   8.241   1.004  14.795  0.1388 -0.1004 -0.1027
17009W        W33483   0.596  15.007   2.139  0.0385 -0.0171 -0.2001
17010W        W33484  13.665   4.482  12.124  0.3616 -0.3142  0.0752
17011W        W33485  17.670   0.063  12.252 -0.0245 -0.0311 -0.3087
17012W        W33486   2.302  12.496  12.660 -0.0257  0.3387 -0.2486
17013W        W33487  13.981  14.822   4.783 -0.0900  0.0566  0.0335
17014W        W33488   0.903  18.140   0.047  0.3166 -0.0807  0.1141
17015W        W33489   9.414  13.944  14.686  0.3787 -0.0072  0.2212
17016W        W33490  12.324   7.758  11.675  0.0654 -0.0828 -0.0109
17017W        W33491   4.498   8.837   4.429  0.1480  0.0169  0.2088
17018W        W33492  12.701   2.186   3.120  0.7236  0.2968  0.1891
17019W        W33493   6.834  16.361   1.774 -0.4255 -0.2993  0.0998
17020W        W33494  15.492   5.272  15.075  0.1344 -0.2251  0.0880
17021W        W33495   1.541   2.805   4.575 -0.2733  0.0844 -0.0158
17022W        W33496  11.717   6.687   0.571  0.1030  0.0327  0.0475
17023W        W33497   4.833   3.287  12.800 -0.5355 -0.2052  0.0606
17024W        W33498   1.121   6.396   1.493  0.1260 -0.0472 -0.2025
17025W        W33499   7.698   4.904  11.973 -0.1702  0.0617  0.1189
17026W        W33500  10.280   3.798   0.496  0.1114 -0.1576 -0.0577
17027W        W33501   2.568  17.665   3.944  0.1503  0.2135  0.0470
17028W        W33502  14.017   9.924   0.105  0.1767 -0.1401 -0.0595
17029W        W33503   9.985  10.621  13.549  0.1930 -0.0681  0.0534
17030W        W33504   2.856  10.857   0.890  0.3019 -0.0251  0.3699
17031W        W33505   8.118   2.259   3.955  0.3151 -0.0367  0.0852
17032W        W33506   6.396  14.461  12.421  0.1181 -0.0581 -0.0934
17033W        W33507   4.385   0.776   1.510 -0.0798 -0.0245 -0.1307
17034W        W33508  18.057   5.397   4.883  0.0093  0.1385 -0.1325
17035W        W33509   1.095   0.631  14.400  0.0473  0.0179 -0.3868
17036W        W33510   8.870  16.875  10.462 -0.3916  0.3323 -0.1259
17037W        W33511   5.307  16.914  14.398 -0.0350  0.1910 -0.3018
17038W        W33512   4.825  14.396   1.829 -0.1245  0.1952  0.3993
17039W        W33513  16.543   6.721  11.005  0.0151  0.1063 -0.2759
17040W        W33514   0.849   4.349  11.245 -0.1862  0.3513 -0.2349
17041W        W33515  14.687   7.800  14.937  0.0590  0.0390 -0.1367
17042W        W33516   4.496   9.294  14.379 -0.1454  0.2002  0.1307
17043W        W33517  12.612   4.972   0.259  0.2470  0.2434 -0.1549
17044W        W33518  16.720   5.403   9.738  0.0630  0.2463  0.1373
17045W        W33519   0.792   0.486  12.981 -0.3830  0.0257  0.2098
17046W        W33520   4.865  14.545   1.273 -0.0275 -0.0232 -0.0681
17047W        W33521   5.861  14.312   3.010  0.1832 -0.0277 -0.0051
17048W        W33522  15.444   6.516   1.547  0.1868  0.2541  0.0763
17049W        W33523   9.092   7.537  14.823 -0.0621 -0.0950  0.1454
17050W        W33524  18.061   6.755   2.599  0.1021 -0.0797 -0.0544
17051W        W33525  17.396  14.991   3.836 -0.2211 -0.0868 -0.2139
17052W        W33526   2.315   5.184  10.882  0.0823  0.1137  0.1946
17053W        W33527  11.804  13.533  15.179 -0.3005 -0.3861  0.1484
17054W        W33528   6.943  13.009   4.532  0.0139 -0.1907 -0.5253
17055W        W33529  17.315  17.969  11.699  0.1527 -0.1806 -0.0155
17056W        W33530   2.263  18.607   4.086 -0.2449 -0.0748 -0.0217
17057W        W33531  12.801  11.768  12.183 -0.0049  0.2540 -0.0545
17058W        W33532  12.372  15.738  11.659 -0.1437 -0.0755 -0.4493
17059W        W33533   6.870  16.491  11.782 -0.0990 -0.0898 -0.1436
17060W        W33534   0.598   0.248  11.989  0.2477 -0.0787  0.2946
17061W        W33535  15.620   8.380   1.751  0.1923 -0.4105 -0.1875
17062W        W33536   9.642  14.000  13.772  0.1077  0.0515  0.0829
17063W        W33537   0.563   0.687  12.298 -0.0984 -0.1482 -0.0474
17064W        W33538  17.014  12.675  11.697  0.0368 -0.1327  0.0827
17065W        W33539   7.249   7.674   0.202  0.1160 -0.1106  0.4225
17066W        W33540  16.684   0.067   0.701  0.3291  0.0561 -0.1494
17067W        W33541   6.867   3.490  14.923  0.1491  0.1696  0.2338
17068W        W33542   1.827  16.572  12.106 -0.1534  0.3804 -0.2898
17069W        W33543   8.097   5.837   2.847 -0.0170 -0.1799 -0.2779
17070W        W33544   2.103   2.325  12.708 -0.1112 -0.0047  0.0296
17071W        W33545   2.789  17.326   3.605 -0.0160  0.0578 -0.0609
17072W        W33546  16.634   6.288   1.897  0.0350  0.0440 -0.1251
17073W        W33547  14.378   1.334   0.214  0.1744  0.1601  0.0684
17074W        W33548   0.391  17.651  12.085 -0.0276  0.1538 -0.1883
17075W        W33549  11.809   9.688  14.964  0.2458  0.1035  0.1841
17076W        W33550   7.814   0.509   5.191  0.0029  0.2225  0.2694
17077W        W33551  12.024  12.478   5.165 -0.1380 -0.0751 -0.1762
17078W        W33552  14.816  17.770  14.532  0.1459 -0.0062  0.0815
17079W        W33553  14.147  14.735   3.135  0.3266 -0.0746  0.1734
17080W        W33554  17.428  16.996   4.858  0.0669  0.0432  0.0249
17081W        W33555   0.850  14.682  11.989  0.0109 -0.1099  0.1354
17082W        W33556   5.553   6.434   1.660  0.2971  0.0147 -0.2844
17083W        W33557  11.092  12.734   2.832 -0.2998 -0.0581 -0.3240
17084W        W33558  18.434   7.641  12.320 -0.3897  0.0189 -0.0333
17085W        W33559   3.646   3.464  13.185 -0.0992  0.1035  0.1124
17086W        W33560  12.976  12.623  15.388  0.0525 -0.2717 -0.0620
17087W        W33561   9.352   9.118   4.369 -0.2159  0.2112  0.3875
17088W        W33562   7.537  18.656  11.329  0.2082 -0.3046 -0.2289
17089W        W33563  10.284  10.823   3.780  0.1275  0.2359  0.2468
17090W        W33564   0.328   7.096   2.144 -0.0693 -0.0009 -0.0506
17091W        W33565  14.256  10.437  15.493 -0.3226 -0.1047  0.0380
17092W        W33566   6.513  11.625  12.767  0.2032  0.1824 -0.1258
17093W        W33567   2.966  11.090  15.192 -0.1443 -0.0690 -0.0445
17094W        W33568  18.776   5.704  12.807 -0.0727  0.3911 -0.2406
17095W        W33569  10.040   7.593   3.781  0.2626  0.0649 -0.1176
17096W        W33570   4.249  18.131  12.573  0.1625 -0.1017 -0.1131
17097W        W33571  11.321   7.485  11.027  0.1157  0.1397 -0.1395
17098W        W33572   7.117  13.472  14.837 -0.1292 -0.2807  0.2045
17099W        W33573  17.094  17.708  11.271  0.0789  0.4155 -0.0332
17100W        W33574   0.809  15.509  15.475 -0.2702  0.2257 -0.0235
17101W        W33575  12.353   5.706  13.742 -0.2173 -0.1907  0.0300
17102W        W33576  16.735  15.286  12.411 -0.0809  0.0044 -0.1382
17103W        W33577   1.167  14.671  15.409 -0.2019 -0.0773 -0.1078
17104W        W33578  15.514   6.694   4.753 -0.0863 -0.3275  0.2985
17105W        W33579   8.759   3.922   4.671 -0.4554 -0.0626 -0.1483
17106W        W33580   1.703  16.835   2.141 -0.3137 -0.1469  0.1325
17107W        W33581   6.851  17.324  11.259  0.3599 -0.0285  0.0680
17108W        W33582   2.418   0.347  11.292 -0.0843  0.0018  0.1789
17109W        W33583   2.230  14.090   0.547  0.0516 -0.0001  0.1414
17110W        W33584  12.664  14.764   2.194 -0.2989  0.1233  0.0158
17111W        W33585   3.117   0.792   1.104 -0.1598  0.0279 -0.0847
17112W        W33586  14.144   6.165   5.101  0.0648 -0.2460 -0.1204
17113W        W33587  14.052  10.557   4.429  0.2158 -0.0256 -0.0214
17114W        W33588   5.000  15.601   3.956 -0.3106  0.2394  0.4656
17115W        W33589   4.101   9.604  11.311  0.2673 -0.0010 -0.0800
17116W        W33590   2.463   6.477  10.695 -0.2925 -0.1317 -0.4230
17117W        W33591   9.090   6.837   3.560 -0.0207 -0.1360  0.2079
17118W        W33592   6.981   1.863  14.025 -0.2187 -0.0634 -0.1321
17119W        W33593  14.566  14.385   2.965  0.0047  0.1046 -0.3282
17120W        W33594  18.488   5.661   3.081 -0.2992 -0.1907  0.0410
17121W        W33595   7.046   7.975  12.797  0.1528 -0.0576 -0.2161
17122W        W33596   6.064   7.968  12.003  0.3104  0.1453 -0.2068
17123W        W33597  12.093  14.937   5.255  0.2782  0.1298  0.1949
17124W        W33598   8.796  15.385  13.372 -0.1372 -0.2619  0.1188
17125W        W33599   2.774   7.010  12.633 -0.2385 -0.1965  0.1139
17126W        W33600   9.889  11.151   2.818  0.0185  0.1055  0.3263
17127W        W33601  16.298  18.199  11.349 -0.1332 -0.3149  0.3648
17128W        W33602   9.851  18.035  11.187 -0.1388  0.0964 -0.3386
17129W        W33603  12.190   3.696   5.489 -0.1499  0.6103  0.0019
17130W        W33604  14.793  11.671   3.972 -0.2091  0.1814  0.2682
17131W        W33605   4.773  12.957   4.501  0.0978  0.3393 -0.2216
17132W        W33606   1.392  17.224   1.096  0.1870  0.1215  0.3216
17133W        W33607  15.956  11.342   0.127  0.0396 -0.1024 -0.1045
17134W        W33608   5.435  13.696   0.361 -0.3079 -0.0790 -0.0760
17135W        W33609   9.298   0.512  12.231 -0.4458 -0.0955 -0.3787
17136W        W33610   3.506  15.261   3.643 -0.1904  0.0244 -0.2517
17137W        W33611   4.820  17.283  13.965 -0.0428  0.0216 -0.1034
17138W        W33612  12.439   4.913   1.874  0.1093  0.2362  0.0128
17139W        W33613   6.821  14.558   2.959  0.1793 -0.0270  0.0875
17140W        W33614  10.757   1.240  10.894 -0.2165  0.2226  0.1470
17141W        W33615   9.681  11.557  14.060  0.3972 -0.0022 -0.0567
17142W        W33616   9.661   2.716  11.026 -0.1339 -0.1280 -0.1820
17143W        W33617   5.739   8.651   2.598  0.1783  0.0987  0.0917
17144W        W33618  18.636   6.704   3.340 -0.1600 -0.2704  0.1084
17145W        W33619   1.182  10.731  12.092  0.0052 -0.1998  0.1048
17146W        W33620   9.422  11.290   2.926 -0.1813 -0.0895 -0.0779
17147W        W33621  13.880   4.802  13.185 -0.0227 -0.3537 -0.1742
17148W        W33622   6.204  12.759  14.838  0.1250  0.0654 -0.1714
17149W        W33623   5.560  15.658   1.744 -0.1570 -0.2783 -0.0665
17150W        W33624  18.660  13.644   3.451 -0.0281 -0.3982  0.1432
17151W        W33625  16.000   6.515   0.279 -0.1249 -0.0802  0.0439
17152W        W33626  13.146   8.886   2.502  0.3364  0.0215  0.0639
17153W        W33627  11.923  11.883   2.075 -0.0021 -0.4245  0.0985
17154W        W33628  12.900   6.040  10.506 -0.1037  0.2549  0.3017
17155W        W33629   8.751  10.729  13.245 -0.0488 -0.1551  0.1160
17156W        W33630  16.599   6.762  13.046  0.1026 -0.1049 -0.2677
17157W        W33631   3.141   5.656  15.405 -0.1831  0.1981  0.1724
17158W        W33632  16.629   8.289   2.755  0.0684 -0.1574 -0.1525
17159W        W33633   1.243  14.930  13.616  0.1897  0.1210  0.0966
17160W        W33634  13.811  13.336  14.261  0.3138 -0.0649  0.1098
17161W        W33635   2.705   3.894  12.690  0.1446  0.1828  0.3688
17162W        W33636   2.469  15.895  13.425 -0.1967  0.4185  0.0772
17163W        W33637  12.003  12.285   4.672  0.0838  0.0513 -0.1142
17164W        W33638   0.549   1.968   4.883 -0.0836 -0.1752  0.0541
17165W        W33639  12.669  18.603  15.034 -0.0221 -0.1381 -0.0784
17166W        W33640  10.827  12.013   4.223  0.1439  0.0943 -0.1450
17167W        W33641   2.944   0.790  13.422 -0.1797 -0.1481  0.0933
17168W        W33642   2.516  16.262   5.446  0.1271 -0.0902 -0.1009
17169W        W33643  10.294   9.248  13.702  0.3280  0.3506 -0.1784
17170W        W33644  15.060   4.938   1.206  0.0460  0.0522  0.2139
17171W        W33645  17.824   8.520  12.201 -0.0925  0.2707  0.2970
17172W        W33646  10.602   6.431   1.137 -0.2827  0.2157 -0.0970
17173W        W33647  14.731   9.675  14.468 -0.3363 -0.0845 -0.0735
17174W        W33648  17.029  16.673   5.229 -0.2301 -0.0640  0.0688
17175W        W33649  12.666   4.658   4.118  0.4558  0.1787  0.1330
17176W        W33650  18.398   4.824   3.911  0.1498  0.2974  0.1915
17177W        W33651  18.280   1.170   3.113 -0.0874  0.1090  0.1488
17178W        W33652   5.818   2.091   5.163 -0.1653 -0.2456  0.2894
17179W        W33653  18.456   7.869   0.961 -0.1110 -0.2771 -0.0374
17180W        W33654   3.797  14.161  14.378  0.2687 -0.1834  0.2720
17181W        W33655  18.601   9.287  12.075  0.1254 -0.3642  0.1642
17182W        W33656  12.217   0.984  11.890  0.4284  0.1478 -0.1101
17183W        W33657   1.482  15.864  11.236 -0.0952 -0.0159 -0.0058
17184W        W33658  13.395  11.871  13.275 -0.1948 -0.0096  0.2748
17185W        W33659   7.152   6.202  13.579  0.3552 -0.1014 -0.0889
17186W        W33660  12.134  12.345  11.160 -0.2451 -0.0581  0.1412
17187W        W33661   3.042  18.530  15.155 -0.1801  0.0698  0.3103
17188W        W33662   2.728   0.036  14.907  0.0626 -0.4215 -0.0473
17189W        W33663  14.067   5.181   3.663 -0.0235 -0.1707  0.0962
17190W        W33664   7.906   9.316  12.669  0.0052  0.4546  0.0415
17191W        W33665   1.434   4.219   1.209  0.2451 -0.0175  0.0537
17192W        W33666   7.071   6.962   5.167  0.0873  0.1526 -0.2238
17193W        W33667  12.194  10.036  12.658 -0.1261  0.0861 -0.2633
17194W        W33668   8.477  16.137  12.926 -0.0252  0.2325  0.3127
17195W        W33669   7.896   5.787   2.075  0.1143  0.0263  0.1749
17196W        W33670   8.162  12.223   3.456 -0.0794 -0.2161  0.1644
17197W        W33671  14.059   1.644   0.820 -0.0346 -0.2628  0.0949
17198W        W33672   9.371  16.616   1.559  0.1216  0.0845  0.1817
17199W        W33673   5.769   6.661  14.189  0.1206  0.0448  0.0194
17200W        W33674  14.335   0.494   3.521 -0.2250 -0.1084 -0.1455
17201W        W33675   5.473   6.974   2.960  0.2174  0.2918  0.1553
17202W        W33676  14.905   3.510  11.051 -0.2726  0.1352 -0.0023
17203W        W33677   8.532   9.954   3.513  0.2312 -0.0594 -0.1843
17204W        W33678  17.526   1.836   1.046 -0.1008  0.2168 -0.0790
17205W        W33679  16.921   7.354  14.892  0.1142  0.1887  0.1912
17206W        W33680   2.592   7.560   3.647 -0.3497 -0.0132 -0.1037
17207W        W33681   9.779   6.851  14.956 -0.2730 -0.2830 -0.3150
17208W        W33682  10.943  13.693   2.575  0.0310 -0.3545 -0.0416
17209W        W33683  13.836   5.527   4.089  0.2301 -0.2080 -0.1956
17210W        W33684  14.622  17.858   0.689  0.1336 -0.1898 -0.0597
17211W        W33685   4.800  14.509  14.762  0.1221 -0.0338 -0.0179
17212W        W33686  11.939  10.877   0.143 -0.0970 -0.3211 -0.0370
17213W        W33687   0.933   7.287  10.510 -0.0784  0.0192 -0.1354
17214W        W33688   2.495  10.244   3.947 -0.1128 -0.0741  0.2481
17215W        W33689   7.334   9.844  13.406 -0.0288  0.0510 -0.0784
17216W        W33690   1.528  10.351   3.985 -0.4223 -0.3911 -0.2456
17217W        W33691  12.491   6.224   1.245 -0.1929 -0.0654  0.2094
17218W        W33692  17.278  10.273   0.843  0.0603 -0.0086 -0.0507
17219W        W33693   2.985  16.293  11.838 -0.0195  0.3894  0.0583
17220W        W33694  11.829  14.118   5.341 -0.2143 -0.3512  0.3260
17221W        W33695   7.039  17.340  13.630  0.0078 -0.3085  0.2598
17222W        W33696  11.817   7.719   2.344  0.0743  0.0533  0.1239
17223W        W33697   8.214   9.152  14.975  0.0338  0.3043  0.1701
17224W        W33698  12.950  10.988   5.181  0.1468  0.3715  0.0553
17225W        W33699   9.535   9.054  12.205 -0.0187  0.3630  0.0342
17226W        W33700  14.026  13.355   1.292 -0.1897  0.1403 -0.3455
17227W        W33701   8.747   7.393  13.432 -0.0874  0.0203  0.1566
17228W        W33702  12.122  11.525  11.775 -0.0740 -0.0871  0.1781
17229W        W33703  12.746  10.672  14.243  0.4856 -0.2788  0.0457
17230W        W33704   2.463   8.464  10.724 -0.1552  0.0410  0.1331
17231W        W33705  11.119  13.872   2.045 -0.0255 -0.1523  0.3649
17232W        W33706  10.218   8.056  11.728 -0.4044  0.0012  0.4097
17233W        W33707   8.257  15.276  11.717  0.0821 -0.0042  0.0257
17234W        W33708   2.967  15.011   2.069  0.0689  0.4284 -0.0862
17235W        W33709  13.507   7.238   1.609 -0.0293  0.1390 -0.2642
17236W        W33710   3.491   9.612   4.517 -0.1529 -0.1054 -0.1059
17237W        W33711  13.369   2.240  12.968  0.0516  0.3459 -0.1008
17238W        W33712   4.957   0.565  15.150  0.3203  0.0561  0.0574
17239W        W33713  15.799  16.960  14.278  0.0100 -0.0544  0.0534
17240W        W33714  14.049   2.364  11.002 -0.1350  0.2389 -0.1386
17241W        W33715   4.697   6.480   4.338  0.0073 -0.0896 -0.0725
17242W        W33716  11.785  15.775  14.201 -0.0086 -0.3919  0.1377
17243W        W33717   3.149  14.637   0.601  0.1141 -0.0662  0.0134
17244W        W33718   8.626   1.865  14.669  0.1325 -0.0914 -0.1172
17245W        W33719  15.201   2.837   4.147  0.3818 -0.0203  0.0026
17246W        W33720  18.554   0.911   4.204  0.1756  0.0141 -0.0730
17247W        W33721  12.202  15.271  10.894  0.1450 -0.2003  0.1635
17248W        W33722   0.789   0.468  14.809  0.3283 -0.2974 -0.1511
17249W        W33723   6.355   4.898  11.878  0.0238 -0.1043  0.0613
17250W        W33724  14.600   6.707   1.115  0.0594  0.2443 -0.0179
17251W        W33725  11.700  11.130  13.621 -0.0548 -0.0517  0.0306
17252W        W33726  10.759   4.177   2.961  0.1461 -0.0585  0.0401
17253W        W33727  11.636   2.332   2.391 -0.2172  0.2633 -0.4197
17254W        W33728   8.756  11.273   0.002 -0.1679 -0.1687 -0.0078
17255W        W33729  12.945   6.171  14.764  0.0448  0.1305 -0.0665
17256W        W33730   4.411   8.333   0.901  0.0607  0.0378 -0.0977
17257W        W33731   0.040  11.500   3.682 -0.1041  0.2567  0.3399
17258W        W33732  18.502  17.509  12.933 -0.2470 -0.1735  0.0000
17259W        W33733   6.710   8.246  12.531 -0.0159 -0.1207  0.1853
17260W        W33734   4.175  10.355   2.764  0.0135  0.0952 -0.1691
17261W        W33735   7.402  12.454   5.590 -0.1088 -0.0910  0.1578
17262W        W33736   5.265   2.612   1.552 -0.0443  0.3347 -0.0947
17263W        W33737   4.239  11.176   3.646 -0.4302 -0.2717 -0.1047
17264W        W33738   7.874   5.386   1.730  0.0446 -0.1435  0.2089
17265W        W33739  14.983   0.211   2.045  0.0178  0.0627  0.0359
17266W        W33740   0.972  10.509   3.189 -0.1943 -0.0698 -0.0699
17267W        W33741  15.317   7.458  13.027  0.0430  0.0335 -0.0449
17268W        W33742  10.640  18.414  10.955 -0.3228 -0.0223  0.0252
17269W        W33743  11.341   9.078   5.378 -0.0518  0.0354  0.1541
17270W        W33744   9.592  18.042   5.981 -0.1127 -0.0349  0.2485
17271W        W33745   3.158  14.146   0.528  0.1548  0.2110  0.2259
17272W        W33746  15.652  12.266  12.370 -0.0596 -0.0918  0.0790
17273W        W33747   9.050  12.848   0.773 -0.3927  0.0959  0.1217
17274W        W33748  14.347   5.863   2.622 -0.0410 -0.1968  0.3043
17275W        W33749  10.867   6.542   4.933 -0.1039  0.1704 -0.2832
17276W        W33750  11.401  13.231   0.428  0.0454 -0.2414 -0.1518
17277W        W33751  11.373   5.338  12.666 -0.0021  0.1737 -0.2916
17278W        W33752  15.442   2.894   4.704  0.0446  0.2919  0.1621
17279W        W33753   7.141  14.680   1.224 -0.1022  0.0164  0.0485
17280W        W33754  10.287   0.648   2.830 -0.2240 -0.1233 -0.1123
17281W        W33755   5.496  17.349   2.946 -0.0799  0.1331 -0.1055
17282W        W33756   9.255  12.342  11.858 -0.1254 -0.2533 -0.1254
17283W        W33757   2.427   7.153   3.999 -0.0945  0.2974 -0.0605
17284W        W33758  14.212   4.423   5.425  0.0365 -0.0022 -0.2906
17285W        W33759   5.836   6.828  11.244 -0.2444  0.2071  0.0985
17286W        W33760   0.350   2.792   3.181  0.1400 -0.0383 -0.1065
17287W        W33761   1.847  14.416   3.425  0.0608 -0.3969  0.0483
17288W        W33762   1.399   6.792  11.561  0.3073 -0.3739  0.2834
17289W        W33763  14.669  16.809  14.858  0.2128  0.0613  0.2132
17290W        W33764  12.144  16.535  15.143  0.0477  0.1571 -0.3813
17291W        W33765  18.258  10.359  14.918 -0.0163  0.1466 -0.2542
17292W        W33766  10.824  16.459  11.008 -0.0131 -0.3501 -0.4178
17293W        W33767  10.881   4.180   0.026 -0.4364 -0.0173  0.0486
17294W        W33768  17.507   3.833  11.911 -0.2986 -0.0114 -0.1136
17295W        W33769   7.405   3.248   3.932  0.2009 -0.1591 -0.0896
17296W        W33770  14.251  16.796   4.966  0.0579  0.0501 -0.2212
17297W        W33771  14.416  10.046   1.140  0.1876 -0.1184 -0.2177
17298W        W33772  18.063  18.051  11.004 -0.1761  0.1490 -0.0624
17299W        W33773  16.818   7.497   0.383  0.0158  0.1288 -0.0648
17300W        W33774  10.630   4.547  12.198 -0.0129 -0.2064 -0.0314
17301W        W33775  14.557  17.124   4.046  0.3447 -0.0492  0.1380
17302W        W33776   2.048   4.665   2.228  0.0374  0.2157  0.0630
17303W        W33777  18.775   8.936   3.109  0.0711  0.0683 -0.0504
17304W        W33778   9.689   2.960   4.433  0.1294  0.0124  0.1293
17305W        W33779   6.982  13.435   2.408 -0.0672  0.3936  0.0004
17306W        W33780   6.481   5.466  12.073 -0.0476 -0.1491 -0.2377
17307W        W33781  12.739   1.532   3.918  0.2473  0.0940 -0.0400
17308W        W33782   0.447  16.610  15.015  0.1744  0.1608 -0.0108
17309W        W33783   2.690   1.703  11.030 -0.0860 -0.0771  0.0331
17310W        W33784  14.748  11.782  13.119  0.1277  0.2446  0.2929
17311W        W33785  16.839   2.915   4.215 -0.2734  0.0553 -0.2134
17312W        W33786   8.999   7.624   4.091 -0.2375 -0.0102  0.0373
17313W        W33787  15.850   9.942  13.188 -0.1101 -0.3148 -0.1558
17314W        W33788  17.365  14.485   2.905 -0.2127 -0.0526 -0.0156
17315W        W33789  12.451  12.283  11.544 -0.1269  0.0930  0.0502
17316W        W33790   0.600  16.848   0.075  0.2342  0.0970 -0.2131
17317W        W33791   0.414   4.926  10.544  0.0381 -0.0661  0.0352
17318W        W33792   4.609  18.160  11.455  0.0767 -0.0731  0.0027
17319W        W33793   5.302   5.931   2.511  0.0819 -0.2137  0.0317
17320W        W33794  10.543   8.653   0.486 -0.3388  0.0577 -0.1053
17321W        W33795  11.463   7.224  13.204  0.1518 -0.0465  0.1448
17322W        W33796  11.463  17.500  13.433 -0.1544 -0.0689  0.0506
17323W        W33797   3.490   3.105  14.280 -0.0815 -0.0291  0.0480
17324W        W33798  17.770   6.617   0.209  0.0209 -0.1837  0.1127
17325W        W33799   9.326  12.489   4.159 -0.2531 -0.0847  0.0473
17326W        W33800  12.021  15.040   2.975 -0.0172 -0.0540 -0.3546
17327W        W33801   7.836   7.060   1.354  0.2435  0.1092  0.1687
17328W        W33802  14.769   7.086  10.817  0.3956 -0.1213 -0.3967
17329W        W33803   9.516   6.791  15.358 -0.1513  0.1490 -0.0071
17330W        W33804   1.411   6.262   0.706 -0.3688  0.4935  0.2946
17331W        W33805  14.940  12.616   1.873 -0.0156  0.1449 -0.0151
17332W        W33806   5.376  17.830  14.497 -0.0263 -0.4127 -0.3237
17333W        W33807  11.918  12.032   2.533  0.0246  0.1737 -0.5604
17334W        W33808  18.482   5.942  11.961  0.2226 -0.1463 -0.3630
17335W        W33809  12.914   9.994   3.744 -0.2803 -0.1751  0.2035
17336W        W33810  14.114  11.817  12.473  0.0317 -0.2530  0.1612
17337W        W33811  16.741   5.421  12.572  0.1218 -0.2391  0.0288
17338W        W33812   7.217   5.441  13.749 -0.4413 -0.1039  0.3657
17339W        W33813   3.530   1.680   0.318 -0.2447  0.1423 -0.0081
17340W        W33814  10.518   4.118   4.131 -0.0572  0.3301 -0.1363
17341W        W33815   0.915   1.505  11.247  0.2432  0.1268 -0.0908
17342W        W33816   9.635   7.881  13.370 -0.0610 -0.0152 -0.2353
17343W        W33817  13.590  13.467  12.334  0.1813 -0.0695  0.0813
17344W        W33818   7.977  15.247  13.898 -0.0860 -0.0563  0.3615
17345W        W33819   7.857   8.437  13.223 -0.0240 -0.2617 -0.0961
17346W        W33820  17.233   0.576  11.597  0.0675  0.0776 -0.0367
17347W        W33821   7.235   9.545  13.027  0.1838  0.0128  0.1743
17348W        W33822   2.233   8.469   3.175  0.3303  0.1090 -0.1080
17349W        W33823  14.675  12.649   4.586 -0.3407 -0.2139 -0.4381
17350W        W33824   4.419  16.264  10.850  0.1210  0.1091  0.0336
17351W        W33825  17.080   1.548   3.678 -0.1035  0.0622 -0.1045
17352W        W33826   2.846  13.011   5.676 -0.0213 -0.3807  0.3226
17353W        W33827  14.754  18.478  13.248  0.0105  0.5962 -0.1305
17354W        W33828  18.090   4.952   1.587 -0.3979 -0.4153  0.1541
17355W        W33829   6.928   9.287   1.181  0.1078  0.1029 -0.1988
17356W        W33830   4.332  15.814   5.120 -0.1936  0.1628  0.0094
17357W        W33831  12.021   4.622   4.422 -0.0213  0.1920  0.0635
17358W        W33832  12.363  11.351   1.340  0.2137 -0.4046  0.1691
17359W        W33833  10.441  10.499  13.764 -0.2592  0.0162 -0.1023
17360W        W33834  17.405  10.043  10.853  0.2380  0.2978  0.3769
17361W        W33835  17.212  18.765  14.494 -0.5487  0.0486 -0.0749
17362W        W33836  13.946   9.096  15.416 -0.0867  0.2712 -0.0909
17363W        W33837  16.050   7.934  14.213  0.0357 -0.0868  0.0355
17364W        W33838   8.421  14.387  15.466 -0.5580  0.2583 -0.1275
17365W        W33839  13.925   9.157   3.637  0.4086  0.1814 -0.0325
17366W        W33840   7.536   6.457  13.759  0.1177  0.0995  0.4531
17367W        W33841  10.371  11.495   1.223 -0.0730 -0.2041 -0.2155
17368W        W33842  16.262  18.346   2.072  0.1826  0.0054 -0.0489
17369W        W33843  10.318  15.665   5.093 -0.2481  0.0686 -0.3600
17370W        W33844  12.452   4.558  10.817 -0.3288 -0.0406  0.0372
17371W        W33845   7.515  15.830   5.084  0.0889 -0.0541  0.0823
17372W        W33846   3.629  11.905  11.191 -0.0959  0.1294 -0.3572
17373W        W33847   8.745  13.290   0.747  0.2280 -0.1551 -0.1750
17374W        W33848   1.423   4.640   3.425  0.0125  0.2630  0.1275
17375W        W33849   4.802   4.722  12.871  0.1513 -0.2802 -0.1553
17376W        W33850   0.205  10.690   4.431 -0.3005 -0.0881 -0.0005
17377W        W33851  11.247   3.258  11.866  0.4384  0.1028  0.0111
17378W        W33852   0.371  18.129  11.964 -0.1488  0.0258  0.3336
17379W        W33853   2.806  14.093   1.349 -0.1090  0.1508 -0.0104
17380W        W33854   3.223  10.826  12.361 -0.1219  0.1893  0.0798
17381W        W33855  18.079   0.598   1.694 -0.0880 -0.0053 -0.0943
17382W        W33856  18.066   2.087  11.822 -0.3959 -0.1820  0.0616
17383W        W33857   5.188  17.569   0.699  0.0208  0.0691 -0.0824
17384W        W33858   3.915   1.511  15.333 -0.1516 -0.0232 -0.1238
17385W        W33859  13.953   7.186   1.277 -0.2147 -0.0725 -0.2285
17386W        W33860  16.812  14.433   1.747 -0.1543  0.0162 -0.0669
17387W        W33861  14.865  13.587   2.398 -0.0355  0.1010 -0.1998
17388W        W33862  17.389  17.378   4.345  0.1811  0.1202  0.4231
17389W        W33863   9.213   0.900   3.612  0.0876 -0.2009 -0.0853
17390W        W33864   7.012   2.171   4.619 -0.1095 -0.1218 -0.0897
17391W        W33865   2.771   2.054  11.481  0.2298  0.2081 -0.0036
17392W        W33866  11.482   2.844  13.678 -0.0394  0.1995 -0.0391
17393W        W33867  16.193  12.257   3.174 -0.0160 -0.0871 -0.2026
17394W        W33868  11.055  15.005   2.912  0.0108 -0.0910  0.0267
17395W        W33869  15.222  10.392  14.109 -0.0780  0.1629 -0.0972
17396W        W33870   0.376   3.541  11.836  0.4425  0.1264 -0.0334
17397W        W33871  17.748  12.017  13.987  0.1652  0.1710 -0.2290
17398W        W33872   3.056   3.162  13.579 -0.0020  0.0386 -0.1360
17399W        W33873  11.671   8.247   0.201  0.1285  0.1930  0.1791
17400W        W33874   8.459  17.688  15.029  0.0896  0.0612 -0.2884
17401W        W33875   2.042  10.575  10.640 -0.0264  0.0274 -0.2837
17402W        W33876   7.146   9.058  14.189 -0.1706  0.1562 -0.1746
17403W        W33877  16.360   4.971   2.349 -0.0248 -0.0870 -0.0838
17404W        W33878  17.911  15.805   2.021 -0.1045 -0.0802 -0.1088
17405W        W33879   7.983  15.437  11.300 -0.3220 -0.4300  0.0176
17406W        W33880  11.831   0.225   0.854  0.0769 -0.0165 -0.0883
17407W        W33881   4.871  13.591   9.678 -0.2316 -0.2039  0.3304
17408W        W33882  17.828  11.770  12.031 -0.5446  0.1244  0.2729
17409W        W33883  17.106  18.228   0.489 -0.1303 -0.2298 -0.0497
17410W        W33884  13.334  15.316  10.954  0.1220  0.0080  0.1368
17411W        W33885   2.631   2.212  10.825  0.2576  0.0702  0.2571
17412W        W33886  13.106  18.742   2.815 -0.1907  0.0957 -0.1273
17413W        W33887   1.366   7.473   1.811  0.1156 -0.0872 -0.0724
17414W        W33888   8.121   4.277  10.713 -0.1401  0.2642 -0.2552
17415W        W33889   2.766   0.793  10.274  0.0924 -0.0469  0.3646
17416W        W33890   8.176   0.393  14.636 -0.2951 -0.0489 -0.0520
17417W        W33891  11.728  16.563   4.636  0.2489  0.0555 -0.0332
17418W        W33892  15.009  14.733   4.262 -0.1209  0.2204  0.1231
17419W        W33893  18.135   9.654   9.728 -0.0084  0.2102  0.2518
17420W        W33894   4.869  14.893  14.453  0.1059 -0.1056  0.0134
17421W        W33895   4.446   4.440  14.794  0.1170  0.1040  0.2690
17422W        W33896   3.413  10.558   1.536  0.1491  0.0966  0.0829
17423W        W33897  18.087   1.000  14.441 -0.0391 -0.1765 -0.0550
17424W        W33898   9.525  10.325  12.200 -0.3166  0.0719  0.2144
17425W        W33899  16.120   9.101   4.696 -0.0540 -0.3302  0.0390
17426W        W33900   0.655   5.729  13.561 -0.0996 -0.1040  0.1657
17427W        W33901  16.068  17.803  11.586 -0.1538 -0.2797 -0.0936
17428W        W33902   7.440  13.742   3.049 -0.2194 -0.1057  0.3993
17429W        W33903   0.805  13.246   2.858  0.2210  0.2298 -0.0331
17430W        W33904  14.566  14.741   1.284  0.0786 -0.1904  0.0749
17431W        W33905   2.728   9.422  10.610  0.1829  0.2074 -0.1728
17432W        W33906   1.414   6.215  12.816 -0.1220 -0.4766 -0.4124
17433W        W33907  18.701  17.080   4.363 -0.0377  0.2698  0.0457
17434W        W33908   7.836  17.296   1.853 -0.0157 -0.0093 -0.0540
17435W        W33909  14.632  13.676  15.305  0.0021 -0.1850 -0.2464
17436W        W33910   1.264   8.621   4.446  0.1022  0.0343  0.1753
17437W        W33911  11.405   3.252  13.960 -0.3149 -0.4601  0.2059
17438W        W33912  10.134   0.106  11.281  0.0023 -0.1991  0.2064
17439W        W33913   7.415   4.132  15.331  0.2021 -0.2899 -0.0226
17440W        W33914  13.277   3.604   0.182 -0.0570 -0.0341  0.0317
17441W        W33915  17.317   0.820  12.741  0.2684  0.1430 -0.0498
17442W        W33916   1.668   0.175   3.191 -0.2203  0.1825 -0.1746
17443W        W33917   9.056   2.348   2.840 -0.0248 -0.0812  0.1171
17444W        W33918   0.088   2.104  12.967  0.2498  0.0680  0.0359
17445W        W33919  12.052  11.888  14.291  0.1415 -0.0581  0.4218
17446W        W33920   5.385   3.258  14.815 -0.0621 -0.1027  0.0194
17447W        W33921   0.239  17.717  13.937  0.1177  0.0805 -0.1687
17448W        W33922   2.993  13.590   0.764  0.1656 -0.1727 -0.1886
17449W        W33923   5.780   1.125   0.235 -0.0189  0.2473  0.1750
17450W        W33924   1.188   7.724   9.830  0.2173  0.0957 -0.2234
17451W        W33925   2.386   9.452   1.052 -0.0982 -0.0035  0.2485
17452W        W33926   9.861  13.343  13.490  0.0052  0.0165  0.0094
17453W        W33927  10.538   8.184  13.842  0.3528 -0.2153  0.2214
17454W        W33928  14.532  14.866  13.332  0.1048  0.0153 -0.1950
17455W        W33929   6.981   1.944   0.374 -0.2122  0.0622 -0.1244
17456W        W33930  15.957  17.016  12.102  0.1325 -0.2690  0.0289
17457W        W33931   6.177   5.308  10.593  0.1301 -0.0013  0.0035
17458W        W33932  15.157   6.174   0.765  0.1156 -0.0782  0.0378
17459W        W33933   3.425  15.147  12.775  0.0482 -0.0138  0.2150
17460W        W33934   1.443   0.673   9.625 -0.1250 -0.1478 -0.2072
17461W        W33935   9.196   5.747   1.299 -0.1086 -0.1108 -0.0038
17462W        W33936  18.432  13.009   9.627  0.0096 -0.1113 -0.1119
17463W        W33937  13.561   9.474  11.977  0.2856 -0.0127 -0.0032
17464W        W33938  13.097   2.515   2.067  0.0975 -0.2282 -0.0938
17465W        W33939  11.127  16.523   4.271 -0.2296 -0.0543 -0.0952
17466W        W33940   2.723  12.131  12.946  0.2183 -0.2697  0.0167
17467W        W33941  17.825  17.448   4.064 -0.1022 -0.4472 -0.3105
17468W        W33942   2.799  13.877  12.516  0.1140  0.2681 -0.3014
17469W        W33943   3.102   0.597   3.644 -0.1018 -0.2264  0.1125
17470W        W33944   9.382   3.070   4.967  0.0743  0.2555 -0.3585
17471W        W33945  15.281   0.202  11.309  0.1539  0.1871 -0.1455
17472W        W33946   0.007   6.590  12.496 -0.1523  0.1846  0.3113
17473W        W33947   3.794   6.330  11.816 -0.0211 -0.0974 -0.2190
17474W        W33948  11.524  14.289   0.818  0.0825  0.1636  0.1190
17475W        W33949  17.578   0.902   1.480  0.1441 -0.0860  0.0148
17476W        W33950  15.765  16.410   4.377  0.1715 -0.0725  0.3425
17477W        W33951   7.997  11.905  14.359 -0.2758  0.1321  0.2665
17478W        W33952  13.329  13.544   2.029  0.0456 -0.1063  0.0578
17479W        W33953   9.469   0.184  12.737  0.0645 -0.0790  0.3156
17480W        W33954  17.451  13.763   3.969 -0.0792  0.2522 -0.2021
17481W        W33955   0.262   5.953  10.607  0.0549 -0.1808  0.3037
17482W        W33956  17.317   5.882   3.557 -0.1763  0.0084 -0.2730
17483W        W33957   0.662  12.095  10.365 -0.2694  0.2814  0.0833
17484W        W33958   8.450   2.775   1.133  0.0486  0.2392  0.0145
17485W        W33959   0.527  11.686   1.518  0.0924  0.3074  0.2389
17486W        W33960   1.464   7.134   0.121 -0.1957  0.1108  0.1603
17487W        W33961   4.883  12.364  10.483  0.1634  0.0973 -0.2271
17488W        W33962   3.910   3.782  14.579 -0.0090 -0.1218 -0.1981
17489W        W33963  14.921   8.296   5.736  0.0593 -0.2024 -0.1986
17490W        W33964   3.158   5.161  13.097  0.0314 -0.0850  0.0508
17491W        W33965  12.758  18.394   3.025 -0.1801  0.0390 -0.2787
17492W        W33966  14.833  18.134   1.634 -0.1146 -0.0299 -0.2325
17493W        W33967  17.077   1.547   1.758 -0.0846  0.1626  0.0216
17494W        W33968   0.252   9.895  12.687  0.1150 -0.1495  0.3067
17495W        W33969   5.840  13.617  10.014 -0.0932 -0.2786  0.1552
17496W        W33970  17.105   1.185  14.315 -0.0390 -0.2274  0.0859
17497W        W33971  16.528   3.869  15.319  0.0372  0.2504  0.1871
17498W        W33972   3.391  10.080  12.638  0.1378  0.3981  0.3735
17499W        W33973  10.592   0.802   3.186  0.0408 -0.0458 -0.0298
17500W        W33974  18.695   8.477  12.802  0.3328 -0.0473 -0.2069
17501W        W33975   3.598   8.672  15.408 -0.1643  0.1055 -0.3049
17502W        W33976   3.445   5.942   4.780 -0.0163  0.3116  0.1202
17503W        W33977  17.712  10.820   5.352  0.1061 -0.1547 -0.2640
17504W        W33978   4.103   4.780  11.286 -0.4044  0.2041 -0.0462
17505W        W33979  11.498   4.690   1.163 -0.0892 -0.2227 -0.2156
17506W        W33980  12.736  14.385   1.880  0.0420  0.0353 -0.0370
17507W        W33981  13.836   2.479   5.537 -0.1205 -0.1172 -0.2116
17508W        W33982  17.013   5.542   3.457 -0.4391  0.2251 -0.0738
17509W        W33983   9.088   6.658   4.412 -0.1290 -0.1279 -0.2005
17510W        W33984  11.250  15.122   2.452  0.0597 -0.0355  0.1332
17511W        W33985   3.107   4.252   3.164  0.1624  0.0470  0.2785
17512W        W33986   4.885  12.766  11.181  0.0829  0.0584  0.0407
17513W        W33987  11.187  16.259  11.297  0.0459 -0.1434 -0.0451
17514W        W33988   9.399  14.933   1.255 -0.0158  0.2257 -0.1362
17515W        W33989   9.692   1.564   5.084 -0.0521  0.0511 -0.0665
17516W        W33990   6.789  17.715   0.233 -0.1541  0.0016  0.0609
17517W        W33991  12.768  12.245  12.228 -0.0798 -0.0643  0.1403
17518W        W33992  15.904   9.955   0.985 -0.0810  0.0496  0.2961
17519W        W33993  16.081  10.583   0.817  0.2201 -0.1064 -0.3635
17520W        W33994   1.696   3.415  12.552 -0.0989 -0.1605  0.1872
17521W        W33995   2.145   1.056  10.888  0.1762 -0.1126  0.2357
17522W        W33996  15.427  17.134  13.198 -0.1465  0.0210  0.1355
17523W        W33997   4.539   2.660  15.046 -0.1818  0.0275  0.1777
17524W        W33998   3.870  16.322  14.558  0.1609 -0.1280 -0.0577
17525W        W33999   5.437   3.804  10.212  0.0943  0.0212  0.0250
17526W        W34000   0.941   3.698  14.543 -0.0592  0.0549  0.1963
17527W        W34001  17.595  13.637   4.448 -0.2339 -0.0530  0.2276
17528W        W34002  15.898   5.782  12.782  0.3164 -0.2528 -0.1190
17529W        W34003   5.667  15.836   3.319 -0.0458 -0.0294 -0.1056
17530W        W34004   9.992  13.880   1.185 -0.0893 -0.0388 -0.0675
17531W        W34005   5.915   6.583  10.525  0.3236 -0.0704  0.2266
17532W        W34006  16.481   3.374  14.338  0.0871  0.1411  0.0241
17533W        W34007  17.457  12.190   2.040 -0.0717  0.0816 -0.1032
17534W        W34008  11.352   0.021  13.507  0.0485 -0.0897  0.2233
17535W        W34009   7.416   0.731   4.591  0.0118  0.0353 -0.2057
17536W        W34010  18.738   3.060  15.501 -0.0830  0.0164  0.0372
17537W        W34011  16.909  17.111   4.878 -0.0855 -0.0876  0.3147
17538W        W34012   6.017   6.370   4.036 -0.1131  0.1462 -0.2379
17539W        W34013  12.825  18.068  13.904  0.0163  0.1526 -0.2601
17540W        W34014   1.787  17.129   2.578  0.0843 -0.3183  0.3967
17541W        W34015   0.171   6.915  11.147  0.2677 -0.0409  0.1087
17542W        W34016  15.442  13.831  12.676 -0.1095 -0.1903 -0.0880
17543W        W34017  10.763   0.230   0.285 -0.3644 -0.1350 -0.1796
17544W        W34018   4.411  18.773   3.368  0.0939  0.2117  0.0751
17545W        W34019   6.234   3.328   2.433  0.0966  0.0349 -0.2823
17546W        W34020   4.852   3.998  13.481 -0.0037 -0.1612  0.0660
17547W        W34021  15.266  13.504  13.827  0.4562  0.4055  0.2418
17548W        W34022   5.378   3.947  13.211  0.0464  0.1118 -0.3319
17549W        W34023   2.676  15.523   0.646 -0.0415  0.0945 -0.1105
17550W        W34024   7.197   0.908   1.242 -0.1626  0.2318 -0.1079
17551W        W34025  12.310   0.147  14.694 -0.0608 -0.0695  0.1404
17552W        W34026   1.796  15.312   3.681 -0.3032 -0.0606  0.0257
17553W        W34027   7.321  15.204   4.472  0.1511  0.0744  0.2205
17554W        W34028  15.736  12.832  10.729 -0.2862 -0.1082 -0.1860
17555W        W34029  17.239   4.668  15.159 -0.0286  0.4231 -0.2193
17556W        W34030   8.566   1.496   2.942  0.4467  0.0027 -0.1892
17557W        W34031   2.534   5.072  14.480  0.1533  0.1374 -0.0882
17558W        W34032   1.069   4.302  12.741  0.3102 -0.1712 -0.0552
17559W        W34033   0.103  11.120  13.864 -0.0633  0.0131 -0.1008
17560W        W34034   4.403  15.754  10.633 -0.0243  0.0330  0.1802
17561W        W34035   6.839  11.901  12.998 -0.1216 -0.1149 -0.0864
17562W        W34036   9.859   5.135  12.047 -0.0788  0.0955  0.1099
17563W        W34037  16.915   0.187   3.771 -0.1069 -0.2102  0.1844
17564W        W34038   2.887  10.163  12.770 -0.0231  0.3774 -0.0094
17565W        W34039   9.730   3.059  15.407 -0.1338  0.0702  0.1013
17566W        W34040   4.582   7.344  12.462 -0.0284  0.2334 -0.0478
17567W        W34041   1.998  16.694   2.558  0.3617  0.3342 -0.1270
17568W        W34042   8.985   8.289   1.826  0.1152 -0.1616 -0.1813
17569W        W34043   1.357   0.120   4.163 -0.1482  0.0179  0.0557
17570W        W34044   7.296   4.950   3.646 -0.1121 -0.1043  0.2020
17571W        W34045   4.897   2.986  15.106 -0.2066  0.3916 -0.0377
17572W        W34046   5.661   1.055   0.731  0.1500 -0.0652  0.0188
17573W        W34047  12.464   7.148   2.147  0.0441  0.1812  0.2338
17574W        W34048  10.031  10.183   2.677 -0.1335  0.1111 -0.1096
17575W        W34049  13.650   2.483  13.756 -0.1588  0.3526  0.1998
17576W        W34050  13.415   1.302  12.335  0.0823 -0.1258 -0.0712
17577W        W34051  14.209   3.091  12.327  0.1386 -0.0048 -0.2482
17578W        W34052   6.898   8.499  14.684 -0.0046  0.0559  0.0888
17579W        W34053  10.728   3.348   0.597 -0.1581 -0.2339 -0.3674
17580W        W34054  15.257  11.441  13.784 -0.1525  0.0284 -0.2927
17581W        W34055   1.390  12.439  11.510 -0.4129 -0.1887  0.0013
17582W        W34056  13.334  17.838  10.361 -0.0781 -0.1251  0.1726
17583W        W34057   6.051  11.113  13.904 -0.0916  0.0582  0.3117
17584W        W34058   3.203   7.463   5.107 -0.0069 -0.0039 -0.0738
17585W        W34059   8.452   7.981   0.048 -0.1933 -0.0197  0.1018
17586W        W34060   0.253  13.586   0.010 -0.4358 -0.0135  0.1338
17587W        W34061  16.182  13.525   2.919  0.0425  0.2202 -0.1260
17588W        W34062  14.122  11.392   3.160  0.0291 -0.0385  0.1463
17589W        W34063   7.189  16.254  14.514  0.0111  0.0297 -0.0340
17590W        W34064   1.824  18.722  13.436  0.1266 -0.1001  0.3606
17591W        W34065   8.077   8.789   1.867 -0.0443 -0.1980 -0.1817
17592W        W34066  17.409   3.432  12.893 -0.0501  0.1650 -0.1465
17593W        W34067  11.575   7.027  15.477  0.0085  0.2848 -0.0897
17594W        W34068  15.853   5.380  11.355  0.0503 -0.0403 -0.0217
17595W        W34069  17.122  16.339   4.282  0.0438  0.0625  0.5644
17596W        W34070   2.699  12.301  12.436 -0.1144 -0.0417  0.3359
17597W        W34071  17.329   0.651  13.227 -0.0290 -0.3514 -0.0440
17598W        W34072  11.978   8.738   3.254 -0.1418 -0.0824  0.3318
17599W        W34073   7.011  13.945   4.577  0.0575  0.3260 -0.1381
17600W        W34074  14.666  12.998   1.858 -0.1018 -0.2006 -0.3357
17601W        W34075   6.983   1.594  14.877 -0.0541  0.1122 -0.2769
17602W        W34076   3.655   2.513   4.398  0.0269 -0.1571 -0.4412
17603W        W34077   7.195   2.521  13.491  0.1465 -0.3098  0.0719
17604W        W34078   2.544   7.042   1.669  0.0167  0.0565 -0.2067
17605W        W34079  10.736  11.806  11.290  0.0574  0.0249  0.4282
17606W        W34080  12.284   3.812   2.818  0.3093  0.0032 -0.1886
17607W        W34081   3.701  13.083   5.354  0.0356 -0.1807  0.0236
17608W        W34082   1.000   8.542   2.847  0.3160  0.2017 -0.0236
17609W        W34083  15.392  17.487  15.161 -0.0786 -0.2138 -0.1400
17610W        W34084  14.894  15.664   0.684 -0.1267 -0.0114  0.1406
17611W        W34085  16.447  11.664  13.892  0.0840  0.0429 -0.0938
17612W        W34086  13.513   3.783  15.069  0.0371  0.1109 -0.1146
17613W        W34087   7.630   3.052   2.432  0.0614  0.1819  0.3273
17614W        W34088  12.087   9.155   2.158 -0.0694 -0.0200 -0.0352
17615W        W34089  16.513  14.226   2.995  0.0237  0.3539  0.0057
17616W        W34090   1.343   2.769   2.078 -0.1305  0.2098 -0.2831
17617W        W34091   5.860   4.709  10.871  0.5017  0.0310 -0.1059
17618W        W34092   1.738   3.225  13.048  0.1781  0.1853  0.1422
17619W        W34093  11.509  18.221   5.370  0.0718 -0.3073 -0.0447
17620W        W34094  11.609  13.774   3.821 -0.1281  0.2705 -0.1988
17621W        W34095   6.320   0.568  10.347 -0.1133  0.3095 -0.1397
17622W        W34096   7.793   2.675  12.658 -0.2771  0.0626  0.1195
17623W        W34097  10.233  15.017   1.009  0.2518  0.0032 -0.0826
17624W        W34098   1.823  17.680   3.089 -0.2036 -0.1630  0.0991
17625W        W34099   7.429  11.940   4.036 -0.2196  0.0994  0.0139
17626W        W34100   7.275  17.032   1.235  0.3030  0.0847 -0.0291
17627W        W34101  18.352  13.528  10.708 -0.0974  0.1376 -0.1825
17628W        W34102  13.015  17.261   0.572 -0.0085 -0.3190 -0.0645
17629W        W34103  15.117  18.153  14.554  0.2591  0.0516 -0.1046
17630W        W34104   0.186   5.120   3.752 -0.2570 -0.1221 -0.0867
17631W        W34105   5.034  10.874  14.907  0.0952 -0.1156  0.2283
17632W        W34106   2.129   3.107   2.376 -0.0762 -0.3365  0.1105
17633W        W34107  17.757   8.343  12.824  0.0635 -0.2223 -0.0813
17634W        W34108  17.827  17.329   4.586 -0.0761 -0.0251  0.0672
17635W        W34109  16.969  14.891  12.299 -0.0582  0.0827 -0.0209
17636W        W34110   3.398  15.292   2.105 -0.1260 -0.2499 -0.2539
17637W        W34111   6.867   7.390  11.605 -0.1914  0.1052 -0.1055
17638W        W34112   8.635  13.984  12.120 -0.2355  0.1740 -0.1999
17639W        W34113   5.664  12.703   1.021 -0.3010  0.2646  0.4902
17640W        W34114   7.115   6.551   0.811  0.2129  0.0989 -0.1299
17641W        W34115  11.349  11.105   4.315  0.0164  0.1403 -0.2889
17642W        W34116   6.707  15.397   0.430  0.2199  0.0902 -0.2137
17643W        W34117  14.782   0.394  11.782  0.2526 -0.0292  0.3380
17644W        W34118  12.390  15.113   0.064 -0.0800  0.1916  0.1567
17645W        W34119   4.226  13.261  14.662  0.3458 -0.1210 -0.0415
17646W        W34120  10.008   3.535   1.318 -0.2009  0.2053  0.2012
17647W        W34121   5.128   5.972  12.393  0.2237 -0.3864  0.1229
17648W        W34122  14.529  10.602  11.571 -0.1718 -0.1922  0.0679
17649W        W34123  14.547   3.545   5.333  0.4277 -0.1441 -0.2392
17650W        W34124   7.884   3.356   2.064 -0.1328  0.3353  0.1418
17651W        W34125  17.528  14.598  13.503 -0.0051 -0.2012  0.1045
17652W        W34126  16.737  18.000  10.921 -0.1075 -0.1575 -0.1605
17653W        W34127  14.999   9.574  11.701 -0.0974  0.0136  0.2739
17654W        W34128  14.361   0.783   1.125 -0.0482 -0.2195  0.1469
17655W        W34129  16.949   6.996  15.354  0.1341 -0.1385  0.1140
17656W        W34130   1.098   3.364  10.853  0.0241 -0.0279  0.1249
17657W        W34131  14.970   6.258   1.481  0.0826 -0.1074 -0.0591
17658W        W34132   5.826   2.132  10.644  0.3809 -0.0019 -0.2897
17659W        W34133  14.841   5.063  10.746 -0.0219  0.1881 -0.2051
17660W        W34134   3.482   0.708   3.230 -0.1864  0.0880  0.2315
17661W        W34135  15.975   5.332  13.702  0.1189  0.0349 -0.1502
17662W        W34136   5.452   4.666  11.615 -0.1841 -0.2149 -0.2069
17663W        W34137   0.211  16.774  13.029 -0.1431 -0.1255  0.2299
17664W        W34138   4.539   3.796  10.330 -0.2262  0.1460 -0.0506
17665W        W34139  14.763  18.618  12.008  0.0838  0.0656  0.0828
17666W        W34140  15.630   4.765  14.855 -0.1781 -0.1035 -0.0851
17667W        W34141   5.317   7.871   2.352 -0.2137  0.0019  0.3924
17668W        W34142   0.656  10.389   0.974 -0.3508  0.1577 -0.0066
17669W        W34143   5.245   9.058   1.718  0.0686  0.2202 -0.0974
17670W        W34144  13.683   7.758   4.846 -0.1731  0.1325  0.0785
17671W        W34145  13.173  14.495   1.037 -0.0913 -0.0648  0.0920
17672W        W34146   7.731   0.227  12.989  0.0214  0.0646 -0.2930
17673W        W34147   6.742   8.275  15.243 -0.5186 -0.1418  0.0117
17674W        W34148  16.845   9.056   1.085 -0.0877  0.1849  0.0663
17675W        W34149   8.228  10.234   3.166 -0.0518  0.0970  0.3073
17676W        W34150   2.510  10.607  12.081  0.0696 -0.5047  0.2406
17677W        W34151  12.429  10.702   3.145  0.0438  0.2097 -0.0052
17678W        W34152   5.482  16.101  15.461  0.2408 -0.3605 -0.0752
17679W        W34153  18.345  18.364   0.235  0.2379  0.2329  0.0376
17680W        W34154   3.149  11.605  13.772 -0.0120  0.1429  0.1047
17681W        W34155  15.123  18.771  15.182  0.0014  0.1630  0.0791
17682W        W34156  14.684   9.162   5.296 -0.3436 -0.1579 -0.0649
17683W        W34157   5.631  12.285   4.752 -0.1778 -0.0595  0.0469
17684W        W34158   5.831  18.269   4.477 -0.0279  0.0749  0.0066
17685W        W34159   4.317  18.367  15.236  0.1530  0.1593  0.0131
17686W        W34160   0.758   8.746  13.278  0.1258 -0.2235  0.1198
17687W        W34161  12.867  12.591  11.820  0.2142 -0.0867 -0.0705
17688W        W34162   6.162   2.689  14.076  0.0799 -0.1881  0.4402
17689W        W34163  12.471  14.208   0.881 -0.2509  0.0808 -0.0103
17690W        W34164  11.511  15.562   3.704  0.0422  0.1813 -0.0771
17691W        W34165   9.116   8.871  12.655  0.0778 -0.2019 -0.0413
17692W        W34166  16.029   5.397   2.095 -0.0488  0.1332 -0.0046
17693W        W34167   5.363  15.684  14.554  0.0995  0.1039 -0.0117
17694W        W34168   1.966  12.526   2.390  0.2249 -0.0121  0.1686
17695W        W34169  14.941  11.080   1.861 -0.0402  0.0373 -0.4393
17696W        W34170  18.655  18.068  15.538 -0.0879  0.0320  0.1502
17697W        W34171  16.455   7.754  13.903 -0.1197 -0.1306 -0.0329
17698W        W34172  16.143   6.997   4.030  0.0202  0.2551 -0.0527
17699W        W34173   7.650   7.939  13.707 -0.1130  0.0814 -0.1504
17700W        W34174   5.283  14.685  14.125  0.0309  0.3923 -0.0515
17701W        W34175   7.425   0.454   5.590  0.1920  0.1783 -0.1952
17702W        W34176  17.595  11.700   1.672 -0.1653  0.0381 -0.1226
17703W        W34177   3.480  11.037   4.109 -0.1106  0.1666  0.1753
17704W        W34178   5.239  17.261  10.081 -0.1351  0.0822  0.1206
17705W        W34179   7.702  17.853   9.957  0.2498  0.3257 -0.1983
17706W        W34180  15.698  13.386  14.900  0.0974 -0.1610  0.5015
17707W        W34181  13.549  17.596   6.018  0.0426 -0.0444 -0.1277
17708W        W34182  11.892   7.184   4.250  0.0398 -0.0072 -0.0533
17709W        W34183  12.773   3.813   5.674  0.0924  0.0251  0.2006
17710W        W34184   9.448   0.207   3.923  0.1205  0.0714 -0.0357
17711W        W34185   5.567   3.169   4.100  0.0979  0.1868 -0.1752
17712W        W34186   9.410  10.740  11.864  0.0843  0.0538  0.3506
17713W        W34187   6.591  17.772   3.006  0.0892 -0.0207 -0.1403
17714W        W34188   7.578   1.596   1.146 -0.0598  0.1700 -0.2718
17715W        W34189  18.199   0.665   2.899 -0.0918 -0.1951  0.0375
17716W        W34190   8.908  11.697   2.222  0.2502  0.0172  0.0010
17717W        W34191   6.180  14.052   2.063  0.0198  0.1055  0.0733
17718W        W34192   6.581  11.969  13.614 -0.1525 -0.3799  0.3690
17719W        W34193  16.992  12.790  13.324  0.1913  0.4685  0.0556
17720W        W34194   7.094  11.071   4.328 -0.1257 -0.1226 -0.0694
17721W        W34195  12.919   1.118   4.109 -0.2492  0.0313 -0.1421
17722W        W34196  12.891  10.833  14.976  0.0644  0.1013  0.0775
17723W        W34197  15.115   3.751   1.400 -0.1466  0.1390 -0.0427
17724W        W34198   0.643   0.988   1.267 -0.1142 -0.0674  0.1370
17725W        W34199   6.260  11.976   2.555 -0.0750  0.0537 -0.0357
17726W        W34200  10.134  17.233   1.668 -0.2811  0.1820 -0.0341
17727W        W34201  12.458  15.765   3.069 -0.2217 -0.1493  0.2740
17728W        W34202  11.851  15.034   0.002  0.0247 -0.3129 -0.1712
17729W        W34203   7.656   2.697   2.805  0.0484  0.1123  0.2470
17730W        W34204   7.866   4.622  15.516 -0.2117  0.1125  0.1700
17731W        W34205  17.505  15.438   2.599  0.0197  0.1888  0.1491
17732W        W34206   8.100   9.537   5.847  0.2695 -0.2948  0.0777
17733W        W34207  18.444  10.460   1.748 -0.1614 -0.1418  0.0953
17734W        W34208  12.141   0.011   2.352 -0.4468  0.1862  0.2388
17735W        W34209   7.943   1.302   1.012  0.0228 -0.1810  0.3236
17736W        W34210   3.808   6.907   9.832  0.1244  0.1907 -0.1491
17737W        W34211  15.514  13.759  13.488  0.1968 -0.0013  0.0320
17738W        W34212   1.258   8.939   2.960 -0.1424  0.0251 -0.2571
17739W        W34213   2.286  16.461  11.895 -0.1050 -0.1608 -0.1744
17740W        W34214   6.020  13.468  15.241  0.1595 -0.1291  0.0349
17741W        W34215   9.482   8.209   1.890 -0.2253 -0.2021  0.2047
17742W        W34216   6.147   1.320   1.645 -0.0520  0.1039  0.2648
17743W        W34217   8.657   6.961   1.051 -0.2054  0.1419 -0.1747
17744W        W34218  17.164  15.889   4.561  0.0284 -0.0235 -0.0621
17745W        W34219   6.675  15.966   4.783  0.1699 -0.0634 -0.1132
17746W        W34220   8.470  17.544   9.892  0.4302 -0.0709 -0.2506
17747W        W34221  18.696  10.003   0.932  0.0829 -0.0640  0.0492
17748W        W34222  18.289  16.543   1.122 -0.1968 -0.0261  0.0833
17749W        W34223  18.509   0.414  14.812 -0.0732  0.0538 -0.1551
17750W        W34224   1.088   1.681  11.685  0.2525 -0.1365 -0.2906
17751W        W34225  14.913  13.590   1.261  0.0861  0.2051  0.0305
17752W        W34226  14.159  15.511   4.671 -0.3209 -0.1640  0.1967
17753W        W34227   9.689   3.184  10.891 -0.0785 -0.1401 -0.1754
17754W        W34228   1.810   1.342  12.084  0.1039 -0.2331  0.0332
17755W        W34229   1.671  18.387   4.719 -0.2038  0.0047 -0.1996
17756W        W34230  12.060  10.055  13.746 -0.0791 -0.1118  0.1000
17757W        W34231  12.474  12.124  15.310  0.1734 -0.0272 -0.0262
17758W        W34232   2.664  16.289  14.690  0.1743 -0.2479 -0.1726
17759W        W34233   8.890  17.651  15.353 -0.2285  0.0377 -0.0724
17760W        W34234   1.538   3.168   0.144  0.0362 -0.3265  0.0152
17761W        W34235   3.476  13.999   3.961 -0.0152  0.0146 -0.1110
17762W        W34236   7.855   1.839   5.810 -0.1782  0.2763  0.1450
17763W        W34237   2.575   4.285  11.331 -0.3582  0.0223  0.1392
17764W        W34238   7.001  14.638  14.624  0.0800  0.5260  0.0302
17765W        W34239   7.999   9.349   5.310  0.0532  0.3045 -0.0235
17766W        W34240  16.812  13.761  12.301  0.3291  0.1416  0.0189
17767W        W34241   5.350   1.281   2.209  0.2934  0.3098  0.1598
17768W        W34242  15.776  15.833   2.678  0.1158  0.0007 -0.0585
17769W        W34243   7.353  11.922  12.368 -0.3731 -0.3093  0.2624
17770W        W34244   0.355  10.424   3.532  0.2394 -0.1981 -0.2793
17771W        W34245  18.444  18.403   1.753 -0.0950  0.0692  0.3516
17772W        W34246  15.690  14.672   5.825  0.2146  0.1520  0.1916
17773W        W34247   1.499  12.447   4.620  0.3023 -0.0764 -0.0500
17774W        W34248  13.081   8.086  12.545 -0.0506  0.2834 -0.0371
17775W        W34249  10.251   0.644   1.749 -0.2002 -0.0111  0.3257
17776W        W34250  14.958   5.467   3.531  0.0452 -0.3551 -0.3391
17777W        W34251   7.284   6.062   5.300 -0.1446 -0.2007  0.1446
17778W        W34252  18.200   7.577   2.933  0.1477  0.0334  0.1537
17779W        W34253  16.789  10.131  14.409  0.1643 -0.1449  0.0705
17780W        W34254  10.130  13.327  12.432  0.0183  0.3603 -0.2341
17781W        W34255  17.265   0.405  11.128 -0.0145 -0.0023  0.1488
17782W        W34256  10.444  11.923  11.913 -0.0396  0.1297  0.3309
17783W        W34257   4.151  15.902  13.637  0.0694  0.2337 -0.0331
17784W        W34258  14.043   9.099   2.252 -0.0218  0.1019 -0.0969
17785W        W34259   2.008  17.798   4.024  0.0894  0.2010 -0.0021
17786W        W34260  15.176  16.146   3.967 -0.0043 -0.0775 -0.1082
17787W        W34261   3.396  17.261  11.687 -0.0364 -0.4082 -0.0320
17788W        W34262   2.436   7.813  11.876 -0.0002 -0.3127  0.0698
17789W        W34263  14.414   3.510  12.108  0.1860  0.1676  0.2389
17790W        W34264   2.494   0.616   9.879  0.1614 -0.1779 -0.0769
17791W        W34265   9.580  18.552  13.050 -0.0220  0.1587  0.2537
17792W        W34266   9.196   9.845  15.184  0.1803 -0.0865  0.0077
17793W        W34267  11.185  13.325  13.468 -0.0484  0.0200 -0.5147
17794W        W34268   1.054  12.393  13.285  0.0159 -0.1403  0.0854
17795W        W34269   1.867  13.377  14.594 -0.3169 -0.0937 -0.1231
17796W        W34270   5.058  14.657  10.542 -0.0718  0.0583 -0.2307
17797W        W34271   6.134  12.309   0.237 -0.3165  0.0106  0.1294
17798W        W34272  12.724   5.344  11.337 -0.1086 -0.0224  0.1073
17799W        W34273   7.408   3.187  11.386  0.1680  0.0246 -0.1842
17800W        W34274  10.438   5.896  14.202 -0.0677  0.0334  0.3284
17801W        W34275  16.358  14.683   3.778  0.0355 -0.0900 -0.2165
17802W        W34276  13.015  10.668  11.055 -0.3394 -0.0892 -0.1043
17803W        W34277   3.053  13.139   1.155 -0.4730  0.1546  0.1058
17804W        W34278  12.834  15.260  14.513  0.1651 -0.1386  0.0424
17805W        W34279   4.798   0.929   0.262  0.2155 -0.3079 -0.0071
17806W        W34280  13.989  12.451  12.178 -0.2424  0.1168  0.1207
17807W        W34281   5.004   4.044  11.062  0.3203 -0.1056  0.0979
17808W        W34282   2.720  11.477  10.650  0.1550  0.1864 -0.3140
17809W        W34283   5.155  15.158  15.391  0.0500 -0.0543 -0.0932
17810W        W34284   7.176  16.379   0.410 -0.2176 -0.1820  0.2187
17811W        W34285  10.935   4.530  14.481  0.1066  0.3613  0.0738
17812W        W34286  11.687  14.360  14.249 -0.2206  0.3285  0.0263
17813W        W34287  16.395   4.985   3.031 -0.1074 -0.0609 -0.2014
17814W        W34288   0.020  14.257   0.560 -0.0037 -0.0874 -0.0573
17815W        W34289   4.381  12.736   3.473 -0.1040 -0.2469  0.0019
17816W        W34290  15.618   2.240   5.250 -0.4949  0.3534 -0.1412
17817W        W34291  16.775   5.037   2.615  0.0604 -0.0328  0.0327
17818W        W34292  10.875  18.393  12.014 -0.1516  0.1391  0.0297
17819W        W34293   9.216   8.361  11.676  0.1964 -0.0654 -0.1206
17820W        W34294   3.720  16.716   4.452 -0.0655 -0.0522  0.2072
17821W        W34295   5.228   6.786  14.917 -0.1433 -0.4194 -0.1543
17822W        W34296   8.151   9.326   0.260 -0.1042 -0.0302 -0.2762
17823W        W34297   0.352   6.855   1.687  0.1317  0.0331  0.0987
17824W        W34298  14.526  15.919  12.644 -0.0234 -0.1325 -0.0067
17825W        W34299   6.292   8.682  14.883 -0.0682  0.3619 -0.1408
17826W        W34300   9.987   0.487   3.601 -0.0281  0.0755  0.0945
17827W        W34301  12.486  12.344  14.865  0.0871 -0.2519  0.0397
17828W        W34302   5.164  17.684  11.136  0.1814 -0.1111  0.5141
17829W        W34303  16.218   0.814  12.801  0.2908  0.1628 -0.0014
17830W        W34304   3.533  11.894  13.822 -0.3181  0.2089 -0.0125
17831W        W34305  15.906  11.658  11.648 -0.1443  0.3072  0.0099
17832W        W34306   0.416  11.958   4.770  0.3044  0.0348 -0.2463
17833W        W34307   6.063   0.273  15.356  0.0890  0.0648  0.1648
17834W        W34308  16.584   6.133  10.966  0.2536 -0.2439 -0.0055
17835W        W34309   4.624   2.954   2.623  0.3732  0.0197 -0.0868
17836W        W34310  10.411   0.255   0.702  0.0591  0.4395  0.1612
17837W        W34311   2.405   2.440  13.089  0.0826  0.0322 -0.1204
17838W        W34312  10.533   0.409   3.546 -0.2021 -0.3336  0.0913
17839W        W34313   0.226   4.826  14.767  0.2451  0.2504 -0.3630
17840W        W34314   3.824  11.999  14.672 -0.0081  0.2161  0.2486
17841W        W34315  15.053  13.465  12.731  0.0976 -0.1765 -0.0588
17842W        W34316  11.971   7.611   4.494  0.2063  0.3081  0.1815
17843W        W34317  10.126  16.728  15.341 -0.0247 -0.2520  0.4262
17844W        W34318   5.475  12.734  14.456  0.0998 -0.2582  0.1075
17845W        W34319   3.356  13.636   0.385  0.4934 -0.0824 -0.2071
17846W        W34320   5.780  13.851   1.832  0.3086  0.0419  0.0462
17847W        W34321  18.616  12.058   3.998  0.0729  0.1576  0.2425
17848W        W34322  12.409   0.510  14.352  0.1008 -0.1371  0.0108
17849W        W34323   0.591  16.506  12.874 -0.0012  0.0475  0.1792
17850W        W34324   3.865  18.288  14.789 -0.0573  0.1327  0.0227
17851W        W34325  13.191   5.130   3.321 -0.1221  0.2526 -0.1466
17852W        W34326  13.135   6.761   5.509  0.0654 -0.2318 -0.0878
17853W        W34327   2.506   7.900  14.938  0.0210  0.2313 -0.0874
17854W        W34328  12.948   8.022   3.743  0.1248  0.4273 -0.1901
17855W        W34329   4.875   2.053  12.472 -0.1828  0.1630  0.1429
17856W        W34330  18.560  12.362   3.046 -0.0328  0.0204  0.2236
17857W        W34331  11.353   6.064   1.314 -0.0870  0.1506  0.0716
17858W        W34332   3.115   9.395   3.407  0.1088 -0.2780  0.0155
17859W        W34333   7.852   3.887  14.164 -0.0483 -0.0747  0.2789
17860W        W34334  15.823   1.021   4.063  0.1001 -0.2333  0.0962
17861W        W34335   4.967   9.964  15.121 -0.1359  0.0759 -0.1796
17862W        W34336   6.068   6.956  11.638 -0.0450  0.0882  0.0058
17863W        W34337  13.248   6.340   0.100  0.2320 -0.1994 -0.0009
17864W        W34338  17.246  15.484  13.756  0.3048 -0.1912  0.0949
17865W        W34339   1.240  12.472   0.687  0.3923 -0.0490 -0.0812
17866W        W34340   2.141   2.658  12.308 -0.1833  0.2806  0.1441
17867W        W34341  15.351   5.544  11.211  0.2507  0.2161  0.2059
17868W        W34342   6.728  14.175   3.270  0.1194  0.1807  0.1042
17869W        W34343  14.476   1.446   1.107 -0.2742  0.1657 -0.0448
17870W        W34344   2.564  14.336  13.914 -0.0903  0.2315 -0.2784
17871W        W34345   2.248  11.398   1.534 -0.3302  0.2136 -0.0821
17872W        W34346   9.049  15.793  12.596  0.0356 -0.0763  0.1461
17873W        W34347   5.113   0.560   3.731 -0.1526 -0.0946 -0.0563
17874W        W34348   4.232   0.059  11.214  0.3150 -0.1096  0.1058
17875W        W34349   3.112  12.573  14.065  0.1712  0.2977  0.0603
17876W        W34350   9.125   8.359  12.811 -0.0306  0.3296  0.2516
17877W        W34351  15.776  17.833  13.216  0.2284  0.3063  0.0348
17878W        W34352  15.750   3.528   4.245  0.0336 -0.3588 -0.1608
17879W        W34353   9.718   6.815  12.698  0.0330 -0.0856 -0.1090
17880W        W34354   2.462  11.488  15.090  0.1097 -0.1786 -0.1828
17881W        W34355  10.254   1.787   2.014 -0.2127 -0.0965 -0.0789
17882W        W34356   3.860  16.955   0.558 -0.3859 -0.0677  0.0400
17883W        W34357  10.450  10.747   0.225  0.0559  0.0659 -0.0631
17884W        W34358   0.761  14.962   4.376 -0.1114 -0.0178  0.2295
17885W        W34359  13.067  15.000   2.549 -0.0344 -0.4476  0.4271
17886W        W34360  18.061   1.749  12.253  0.2028 -0.2109  0.3778
17887W        W34361  16.453  11.285   1.033  0.1994 -0.0770 -0.1948
17888W        W34362  12.695  11.787  14.909 -0.0991  0.0771  0.0244
17889W        W34363  15.575   0.937  13.414  0.0306  0.0332 -0.0112
17890W        W34364  14.366  13.771   2.401  0.0359  0.5132 -0.1678
17891W        W34365  10.004   5.771   0.240  0.1432 -0.0773  0.3084
17892W        W34366  14.429   5.257   0.827  0.0611  0.2028 -0.0668
17893W        W34367  18.534   6.833  15.440  0.1574  0.1009 -0.3589
17894W        W34368   9.785   1.545  11.181  0.0258 -0.1159 -0.2148
17895W        W34369   0.642  15.292   1.663 -0.1268 -0.3419  0.4736
17896W        W34370   6.556  13.509  13.531 -0.2216 -0.0638 -0.0068
17897W        W34371   8.982   9.399  15.236  0.1243  0.0579  0.2115
17898W        W34372  17.327   6.232   1.054  0.3645  0.4087 -0.2993
17899W        W34373   9.064  11.800   0.126  0.3133  0.1046  0.2674
17900W        W34374   7.784   1.170  13.121 -0.0885  0.3488 -0.0052
17901W        W34375   5.292  18.722  12.012 -0.4221  0.3941 -0.0380
17902W        W34376  18.119   2.664   1.303 -0.1066  0.1451 -0.0458
17903W        W34377   2.517  14.180  14.689  0.0814 -0.0628 -0.3294
17904W        W34378   7.262   3.123   0.909  0.0146  0.0681 -0.2067
17905W        W34379   8.088  10.428  13.674  0.1683  0.3922  0.1307
17906W        W34380   4.832  18.264   0.997 -0.0851  0.0246 -0.0591
17907W        W34381  10.704  16.983  12.932  0.0173  0.1265 -0.0612
17908W        W34382   5.516   9.475  14.050 -0.0496 -0.0218 -0.1154
17909W        W34383   2.359   1.931  15.353 -0.2535  0.0912 -0.1854
17910W        W34384   7.928   0.599   1.523 -0.0392  0.0666  0.1402
17911W        W34385   9.924  16.262  15.257 -0.0008 -0.3981  0.0615
17912W        W34386  12.458  18.302   2.438 -0.2918 -0.0631  0.1985
17913W        W34387   1.371   5.670   1.474  0.0528  0.2840 -0.0381
17914W        W34388  13.920   8.444  12.928  0.1051  0.0029  0.0516
17915W        W34389   2.849   1.113   1.946  0.1512  0.2297 -0.2102
17916W        W34390  12.200  13.974   6.005  0.0107 -0.0466  0.1008
17917W        W34391   9.817  10.440  14.294 -0.0734  0.1386 -0.1652
17918W        W34392  16.241  14.368  12.131  0.2885 -0.1740  0.1652
17919W        W34393   9.138   1.203   2.325  0.1584 -0.0953  0.0946
17920W        W34394  18.204   5.191   2.054 -0.4814  0.2936  0.0488
17921W        W34395  12.492  18.529   5.387 -0.0720  0.1654  0.1484
17922W        W34396  17.725   4.789   4.083  0.0089 -0.0629  0.0076
17923W        W34397  18.242   8.101   3.716  0.1593 -0.2071  0.0903
17924W        W34398   4.812  17.049   5.109 -0.1357  0.3296  0.2384
17925W        W34399   0.771   9.921  13.970 -0.0120  0.1842  0.1165
17926W        W34400   6.188   1.398   0.645  0.0109  0.3662 -0.4332
17927W        W34401   1.035   2.751   5.395 -0.1273 -0.3392 -0.1113
17928W        W34402   7.769  16.043  11.963 -0.2522 -0.1831  0.1537
17929W        W34403   7.342   7.547   4.196  0.1383 -0.1581  0.0820
17930W        W34404   4.011   0.695  11.054  0.0583  0.3004  0.0681
17931W        W34405   1.123  12.538   3.632  0.3567  0.1829 -0.1673
17932W        W34406  13.743  12.452   4.440 -0.0507 -0.2695 -0.0062
17933W        W34407  14.332   6.327   5.632 -0.2323  0.4109 -0.0074
17934W        W34408   9.199   0.771   4.942 -0.0221 -0.1021 -0.2151
17935W        W34409  12.193  10.065   3.878 -0.2314  0.0467 -0.3714
17936W        W34410   5.296   9.031  12.446  0.0474 -0.2450 -0.1034
17937W        W34411  11.613  11.545  11.910 -0.1135  0.2047 -0.1307
17938W        W34412   7.253   7.689  13.599  0.0968  0.2071  0.1693
17939W        W34413  12.033   5.281   1.683  0.2099 -0.0747  0.1453
17940W        W34414  12.383   4.870  13.280  0.0667  0.0350  0.3739
17941W        W34415   4.143   2.490   4.378  0.0489  0.1382 -0.0799
17942W        W34416   5.098  12.257   4.847  0.0027  0.2218 -0.2715
17943W        W34417   5.256  13.103  12.657 -0.0522  0.0642  0.1140
17944W        W34418   2.567  12.420  10.456 -0.1839 -0.0223 -0.0334
17945W        W34419  11.744  14.623  13.851  0.0784 -0.2670 -0.1222
17946W        W34420   1.002  12.405   4.334 -0.0715 -0.2402  0.0573
17947W        W34421  10.699   1.988   3.472 -0.2679 -0.0966 -0.2371
17948W        W34422  15.421   1.139   5.330  0.3992 -0.1653 -0.0755
17949W        W34423   0.243  15.484  13.210  0.0845  0.1475  0.0716
17950W        W34424   1.628   6.732   4.191 -0.1327 -0.1622  0.2173
17951W        W34425   7.397  14.049   3.427 -0.0858 -0.1827 -0.0051
17952W        W34426  13.445   7.640  15.075 -0.0876 -0.2418  0.1766
17953W        W34427  15.549  18.118   5.401  0.0662 -0.2820 -0.0953
17954W        W34428  17.267  13.436   4.822 -0.2657  0.0894  0.1963
17955W        W34429  12.421   6.178  14.673  0.0188  0.0027 -0.0567
17956W        W34430   1.999  11.692  11.853  0.3028 -0.0315  0.1765
17957W        W34431   0.988   2.123  11.443  0.2025 -0.1201  0.1213
17958W        W34432   0.437  11.488  11.941  0.1103  0.1012  0.0608
17959W        W34433   9.057   5.339  11.330  0.0570 -0.2517  0.0521
17960W        W34434  17.232  14.985   0.386  0.0882  0.1358  0.0943
17961W        W34435   1.130  16.020   1.993  0.0206 -0.0775  0.1389
17962W        W34436  16.152  14.515  11.675 -0.2403  0.2392  0.2033
17963W        W34437   8.792   1.057   4.112  0.2447 -0.4117  0.2103
17964W        W34438  10.526  15.088   6.209 -0.0580  0.0902  0.0931
17965W        W34439   9.446   0.531   1.604 -0.2113  0.3211 -0.1174
17966W        W34440   2.300   3.597   4.354  0.1481  0.2124 -0.2395
17967W        W34441   0.028  16.905   3.512 -0.1989 -0.0964  0.4407
17968W        W34442   9.125  16.193  15.004  0.1752 -0.3752  0.0062
17969W        W34443   6.773   1.165  15.325  0.1606  0.3301 -0.0027
17970W        W34444   5.141   2.435  12.817  0.0526 -0.1106 -0.0616
17971W        W34445   5.458   1.177  10.790 -0.2135  0.1766  0.0856
17972W        W34446   0.212  17.022   2.957 -0.1615  0.1223 -0.2864
17973W        W34447   2.101  12.492  13.148  0.1141 -0.0009  0.0551
17974W        W34448   0.553  15.963  14.598  0.3222 -0.2315  0.0393
17975W        W34449  16.535  11.852   4.924 -0.1334  0.0146  0.1012
17976W        W34450  15.742  14.731   5.004  0.0191  0.0032 -0.1815
17977W        W34451   0.098  14.498   1.704  0.1420 -0.0687  0.0166
17978W        W34452  10.408   9.401  14.668  0.2496  0.0569 -0.0277
17979W        W34453   9.057  17.951  12.194  0.1884  0.0716 -0.0276
17980W        W34454   4.336  15.256  14.738  0.0881 -0.2069 -0.1142
17981W        W34455   7.656  11.299   3.551 -0.0752 -0.2046  0.1540
17982W        W34456  13.197  17.867  13.595  0.1849  0.0668 -0.1705
17983W        W34457   4.898   1.150  14.339 -0.2285  0.2296  0.3086
17984W        W34458   1.621   5.207   2.661 -0.2252 -0.0945  0.0377
17985W        W34459  10.684   4.009  15.142  0.0384  0.2179  0.1729
17986W        W34460  15.480   5.188  14.614 -0.0027 -0.0999  0.2282
17987W        W34461   7.977  14.368  14.678  0.0492  0.2592 -0.3188
17988W        W34462  14.124  14.265   2.784  0.2029 -0.4008 -0.1652
17989W        W34463   7.862  12.324   0.019  0.1781 -0.1718  0.1486
17990W        W34464   3.381   9.083   0.129 -0.1839  0.2588  0.0368
17991W        W34465  12.029   2.362  14.218  0.1169 -0.0354 -0.1069
17992W        W34466   1.123   1.119   2.818 -0.0698  0.0393 -0.3237
17993W        W34467  18.761   0.168  14.438  0.1894 -0.1517 -0.0446
17994W        W34468   6.698   9.447   1.670  0.2679  0.1001  0.1006
17995W        W34469  14.308  12.799  12.187 -0.3401  0.0142 -0.0877
17996W        W34470  10.373   1.241   3.103 -0.1534  0.0243 -0.2809
17997W        W34471   9.932  15.655  14.781 -0.1064  0.0563  0.1862
17998W        W34472  17.544  12.561  13.210  0.0822  0.2729 -0.0496
17999W        W34473   4.071   4.699   9.523 -0.0085 -0.0987  0.1113
18000W        W34474   7.648   9.082  14.230 -0.3543 -0.1481 -0.0003
18001W        W34475  15.224  14.208   1.610  0.4187 -0.3167  0.1730
18002W        W34476   1.220   7.376   2.359  0.0288  0.1661 -0.3069
18003W        W34477  10.016   4.820  11.216  0.0151 -0.0927  0.0188
18004W        W34478  15.189  15.453   2.288  0.0517 -0.1008 -0.1897
18005W        W34479  15.952   4.563  13.345 -0.0839  0.1731  0.0629
18006W        W34480  12.699   0.418   4.672  0.0042 -0.1623  0.1756
18007W        W34481   7.096   1.001  10.757 -0.0292  0.0757  0.0745
18008W        W34482  10.627   9.572   2.481 -0.1572  0.2152  0.3952
18009W        W34483  16.581   6.329  12.795  0.0752  0.1163  0.2002
18010W        W34484   5.495   0.353   4.299  0.1873  0.0331  0.2590
18011W        W34485   5.541   0.742  12.663 -0.0818  0.2386  0.0682
18012W        W34486  17.890   8.033  12.400  0.0168  0.0306 -0.1742
18013W        W34487  13.726   2.513  10.525  0.1351  0.1565  0.3930
18014W        W34488   0.297  13.628  11.355 -0.1947  0.0473 -0.1598
18015W        W34489  15.298  15.708   1.829 -0.2686  0.0299 -0.0827
18016W        W34490   6.270  11.074   4.603  0.2373  0.2283 -0.0308
18017W        W34491  10.889   3.374  13.882  0.0319 -0.0104  0.1740
18018W        W34492  14.389   4.863   3.773 -0.4056  0.2578  0.2771
18019W        W34493  15.934  10.254  11.219 -0.0909  0.2001 -0.3055
18020W        W34494  16.388   2.456   1.635  0.1381  0.0144  0.3103
18021W        W34495   6.091   6.366  15.360 -0.0886  0.4663  0.0913
18022W        W34496  15.838   3.194  15.140  0.0091 -0.0655  0.0434
18023W        W34497   0.101  15.480   0.457  0.0114  0.0721 -0.0166
18024W        W34498   8.047  15.061  12.084  0.1778  0.3571 -0.0352
18025W        W34499  17.328   5.850   0.728  0.0792 -0.0900  0.0584
18026W        W34500  13.586  11.419   5.188 -0.1212 -0.0395  0.0006
18027W        W34501  10.562   0.398  14.246  0.1421  0.2051 -0.1646
18028W        W34502   6.200  15.388  14.848  0.2369  0.4926  0.3072
18029W        W34503  16.963  13.841   4.714 -0.0742 -0.2072 -0.0901
18030W        W34504   5.195   2.909  13.004 -0.4535 -0.2200  0.0485
18031W        W34505  18.626   7.641   1.782  0.1727  0.0590  0.3019
18032W        W34506   7.978   2.388   3.152  0.0614  0.1668  0.1915
18033W        W34507   2.772   2.100   4.893  0.2559 -0.1739 -0.0715
18034W        W34508  12.641  16.720  11.626 -0.0862  0.3293  0.1664
18035W        W34509   4.505   5.085  10.685  0.2647 -0.0613 -0.0557
18036W        W34510   3.848   7.962  12.174  0.2028 -0.1382  0.3642
18037W        W34511   3.703   2.263  13.507  0.0994  0.3212  0.3120
18038W        W34512   8.786   0.522  11.385 -0.0401 -0.1523 -0.0352
18039W        W34513   0.555  13.714   5.065  0.4394 -0.1838 -0.1423
18040W        W34514   7.659  17.543  13.097  0.1300  0.0774 -0.4521
18041W        W34515   7.498  12.677  14.470 -0.0903  0.2874 -0.0405
18042W        W34516   2.647   0.687   2.352  0.3222 -0.2023  0.3206
18043W        W34517  10.132  13.351   2.504  0.0164  0.1243 -0.0223
18044W        W34518  17.490   4.837  13.560  0.0193  0.0466  0.1480
18045W        W34519  18.619   2.800   1.414 -0.1347  0.2776 -0.2789
18046W        W34520   0.800  10.706  15.509 -0.0317  0.2501 -0.0744
18047W        W34521   8.657  16.556   2.703  0.0328  0.0571  0.0959
18048W        W34522  15.547   1.949   0.550  0.0519 -0.2033  0.0415
18049W        W34523   1.516  12.307  14.066 -0.0231  0.2705 -0.1474
18050W        W34524   8.620   7.139   1.970  0.3134  0.0909  0.1461
18051W        W34525  13.822   5.192  14.605 -0.0284  0.0396 -0.1574
18052W        W34526   1.240   1.884   0.595  0.0171  0.0306 -0.1330
18053W        W34527   0.038   5.074   2.122  0.1050  0.2248  0.0805
18054W        W34528  13.230   4.044  10.888  0.3722  0.2618 -0.2105
18055W        W34529  18.276  12.350  13.646 -0.1283  0.3831  0.0979
18056W        W34530   0.683  15.812  14.086 -0.3592  0.0061 -0.0904
18057W        W34531   7.189  12.230  12.772  0.1270  0.1735 -0.0887
18058W        W34532   2.450   8.355  14.817 -0.1851  0.2388 -0.2578
18059W        W34533   1.616   4.138  10.643 -0.2225  0.0416  0.0946
18060W        W34534   6.163  14.317   4.039  0.0729 -0.1881 -0.0589
18061W        W34535  14.795   3.835  10.659 -0.0177  0.1070  0.1252
18062W        W34536   6.834   8.872   0.965  0.0332  0.2417 -0.3570
18063W        W34537   1.750   9.530   4.472 -0.0693  0.1905 -0.0873
18064W        W34538  17.834  13.314   2.447  0.1646  0.0040  0.1483
18065W        W34539  16.395  18.620  13.219  0.2442  0.1426  0.0714
18066W        W34540  17.523   1.586   5.484  0.1097 -0.3271 -0.0382
18067W        W34541   7.543   2.221  15.282 -0.0387  0.2200 -0.2702
18068W        W34542   6.759   6.971  15.544  0.2086  0.5089 -0.0323
18069W        W34543   0.053   8.166   4.477  0.0171 -0.3882  0.0928
18070W        W34544   0.191  13.508  15.043 -0.1913 -0.1034 -0.1420
18071W        W34545  14.028  17.764  14.183  0.2528 -0.2268 -0.1032
18072W        W34546   7.065   3.077  11.790 -0.0238 -0.0188 -0.0641
18073W        W34547   5.743  14.629   3.975 -0.0843  0.2356 -0.1457
18074W        W34548  11.011   3.028  12.333 -0.1707  0.0471 -0.2057
18075W        W34549  13.234  16.754  11.294 -0.2836  0.1623 -0.2126
18076W        W34550  10.702  11.341   4.557 -0.1889 -0.3581 -0.1318
18077W        W34551   4.948   3.551   0.127 -0.1445  0.4143 -0.0880
18078W        W34552  10.682   3.195  11.931  0.0277 -0.4186 -0.2267
18079W        W34553   8.861   2.922  14.041 -0.0799  0.1154  0.0557
18080W        W34554   9.670   8.424   5.986 -0.0775 -0.3538  0.1871
18081W        W34555   9.877  15.196  12.351  0.2079 -0.1597  0.0508
18082W        W34556  13.136   8.172  13.072 -0.0590 -0.1071 -0.0003
18083W        W34557   3.170  14.154  14.706  0.0506 -0.2238 -0.0173
18084W        W34558   0.622  16.856   3.283 -0.0764 -0.1639 -0.1007
18085W        W34559  18.491   0.084  15.393 -0.0810  0.0442 -0.2154
18086W        W34560  18.201  13.675   1.113 -0.1582  0.0175  0.0259
18087W        W34561   8.322  12.758  12.142  0.3530 -0.1545  0.2156
18088W        W34562  15.166  10.317   0.636 -0.1557 -0.5016 -0.1796
18089W        W34563   0.580   6.085  10.970  0.1374 -0.2615 -0.0699
18090W        W34564   4.351  18.575  14.534  0.0267  0.0437  0.0216
18091W        W34565   2.640   5.621   3.108 -0.0765  0.0209 -0.2133
18092W        W34566  11.152  14.947  15.185 -0.0415 -0.1075  0.1300
18093W        W34567  13.255  12.498   4.735  0.5548  0.2689  0.2259
18094W        W34568   7.152  15.052   2.039 -0.3412 -0.0575  0.2610
18095W        W34569   5.672   2.762  12.306 -0.0082 -0.0866  0.0665
18096W        W34570   2.585   5.825  15.106  0.0993 -0.1136 -0.1026
18097W        W34571   2.491   4.674   1.875 -0.2288 -0.0079  0.1603
18098W        W34572  10.191  11.858  11.454  0.1869 -0.1216 -0.0331
18099W        W34573   8.397   8.674   4.501 -0.0681  0.1875  0.0159
18100W        W34574  11.995   3.385   2.792  0.0606 -0.0783 -0.0970
18101W        W34575   3.716  15.569  13.435  0.1366 -0.2325  0.2711
18102W        W34576  13.521  13.471   1.163  0.0439  0.0591  0.3085
18103W        W34577  11.598   5.181  13.081  0.2844  0.1681  0.0654
18104W        W34578  10.384   1.985   5.465  0.1331  0.1531  0.2665
18105W        W34579   6.429  17.272  12.478  0.4856 -0.3890 -0.1377
18106W        W34580  16.535  13.889  13.543 -0.0587 -0.1000 -0.0019
18107W        W34581  18.229   1.092   2.632 -0.0192  0.0497  0.1584
18108W        W34582  16.978  11.748  12.558 -0.1409 -0.0616 -0.0442
18109W        W34583   1.736   5.910   4.432  0.1308 -0.2014  0.3108
18110W        W34584  14.096   7.101   4.332 -0.2084  0.2466 -0.1088
18111W        W34585   1.203   5.730  12.695  0.1568 -0.1656 -0.1720
18112W        W34586  18.540  13.332   0.877 -0.2071 -0.0359 -0.1079
18113W        W34587  10.399   0.718   4.888 -0.1515  0.1247 -0.1520
18114W        W34588   7.334   2.164  13.854 -0.3225 -0.0225  0.4166
18115W        W34589   2.883  11.458  15.522  0.0314  0.1923  0.1587
18116W        W34590  12.442  12.180  13.438  0.1942  0.1590 -0.1178
18117W        W34591  18.092   9.147  10.860 -0.0329  0.1342  0.2634
18118W        W34592   3.543   0.653   0.810  0.0100 -0.1008 -0.2075
18119W        W34593  14.647   6.191   4.777 -0.0337 -0.1251 -0.1702
18120W        W34594   3.761  11.747   2.137  0.0750  0.2063 -0.0606
18121W        W34595   2.247  10.149   0.409 -0.0855  0.1546  0.1444
18122W        W34596   5.705   5.536  15.175 -0.0218 -0.3543  0.2370
18123W        W34597   1.900   7.968  12.043 -0.0419  0.0360  0.0645
18124W        W34598   3.867  14.460  11.083 -0.1920 -0.1845 -0.1821
18125W        W34599   0.272   7.940   1.808  0.1911  0.1374 -0.1478
18126W        W34600  12.397  11.116   0.096  0.0841  0.0093 -0.4559
18127W        W34601  18.391  11.886   4.420  0.1601 -0.0911 -0.1106
18128W        W34602  15.305  17.575  14.436 -0.0454  0.1473  0.1295
18129W        W34603   4.647   3.322   2.971 -0.0833  0.0618  0.0715
18130W        W34604  16.069   4.837  12.510 -0.1927  0.1551  0.0779
18131W        W34605  15.147   5.942  11.574 -0.0611 -0.0084 -0.1211
18132W        W34606   6.534   3.817   0.906 -0.0418 -0.0450 -0.1575
18133W        W34607   9.986  12.714   1.314  0.3882  0.0820  0.2608
18134W        W34608  15.020  17.062   5.275  0.0188  0.0599 -0.1295
18135W        W34609  10.034  13.390   0.422 -0.0113 -0.2521 -0.0913
18136W        W34610  16.930   8.319  15.172  0.0927 -0.0283  0.0801
18137W        W34611  16.379   1.061  11.658 -0.2400  0.0642 -0.2995
18138W        W34612  16.826   5.386   3.939  0.1405 -0.0125 -0.2035
18139W        W34613   6.712  13.029  14.019  0.2280 -0.3772 -0.1488
18140W        W34614   0.393   3.239  12.671 -0.4458 -0.0145 -0.2766
18141W        W34615   6.430   5.972   4.593 -0.1684 -0.0396  0.1918
18142W        W34616  16.976  14.978  13.145 -0.1103  0.0600 -0.0153
18143W        W34617  17.142   8.369   2.234 -0.1423 -0.2341  0.0212
18144W        W34618  15.518   9.548   1.593  0.1414  0.1642 -0.1155
18145W        W34619   8.399  18.709   0.291  0.0835  0.2521  0.0193
18146W        W34620   6.988   3.928   3.320 -0.0045  0.1548  0.4144
18147W        W34621   8.642  13.409   3.460  0.0399  0.0767 -0.3297
18148W        W34622   3.830  12.133   4.999 -0.0907 -0.0284  0.1037
18149W        W34623  11.109  13.104   2.488  0.1040  0.0172 -0.2155
18150W        W34624  18.724  17.937  10.323  0.0651 -0.0475 -0.0567
18151W        W34625   6.028   2.258   1.107 -0.0245  0.1124 -0.2122
18152W        W34626   9.581   1.240  10.748 -0.0943  0.1207 -0.0322
18153W        W34627   6.236   1.885  13.582 -0.0618  0.1878  0.0230
18154W        W34628   2.232  14.201   3.287  0.2660  0.0969  0.1373
18155W        W34629  17.959  17.568   4.977 -0.2114  0.2144 -0.1142
18156W        W34630   7.081  15.039  12.166 -0.1613 -0.2014  0.3838
18157W        W34631   8.287   3.130   0.619  0.0499 -0.0845 -0.0479
18158W        W34632   5.783   8.128   2.525 -0.0771 -0.1155  0.2065
18159W        W34633  17.640   5.278   4.166 -0.1586 -0.2741 -0.0590
18160W        W34634  10.984  11.671   4.969  0.0708  0.0548  0.1588
18161W        W34635   0.060   6.863   0.245 -0.1247 -0.0703 -0.0357
18162W        W34636  13.483  12.183   2.497  0.1983  0.1957 -0.0398
18163W        W34637   6.986   7.314   2.201 -0.2103  0.0056 -0.1239
18164W        W34638   4.332   5.069  11.638  0.1883  0.0552  0.0112
18165W        W34639  17.947   0.454  12.367  0.1012  0.2487 -0.0125
18166W        W34640   2.132   6.840   4.399  0.1196  0.1575  0.0143
18167W        W34641  10.311  10.465  12.784 -0.2107 -0.0387  0.0230
18168W        W34642  10.697  10.782  12.698 -0.1971 -0.1437  0.0116
18169W        W34643  16.507  16.582  15.472 -0.0320 -0.1989  0.3844
18170W        W34644   3.942   4.262  14.712 -0.1691 -0.1835 -0.0984
18171W        W34645   4.975  18.047   4.336 -0.0591 -0.2840 -0.0483
18172W        W34646  13.845  14.721  15.061 -0.0853  0.1608  0.0551
18173W        W34647  17.172  13.242  14.519  0.1029 -0.0807  0.1359
18174W        W34648  10.925  13.960  12.909  0.1049 -0.0057 -0.0012
18175W        W34649   7.802  10.562   4.516 -0.2051 -0.2133 -0.1152
18176W        W34650   6.417   7.664   5.198  0.0368  0.1498  0.1571
18177W        W34651   1.754   3.783   1.032 -0.0164  0.0739  0.0208
18178W        W34652  14.906  10.312   2.090  0.0482 -0.0505  0.1358
18179W        W34653   9.526  11.755  15.468 -0.2170  0.3370 -0.0178
18180W        W34654   2.815  12.800   3.883 -0.1272 -0.1264 -0.1437
18181W        W34655  13.280   1.032   2.474  0.1541 -0.1433 -0.2186
18182W        W34656   3.022  16.919   1.235  0.1579  0.3852  0.0843
18183W        W34657   1.997  17.735   0.035  0.0298  0.0732 -0.1302
18184W        W34658   7.024   0.840   0.755 -0.1019  0.1639  0.2913
18185W        W34659  11.815   5.463   3.087  0.2906 -0.2373  0.0477
18186W        W34660   6.061  15.400   2.985  0.2526  0.1382  0.2330
18187W        W34661  17.283   7.377   0.045 -0.1499  0.1537 -0.3421
18188W        W34662  18.453   1.623  12.043  0.1060 -0.0644 -0.1206
18189W        W34663   8.018  15.617  14.688 -0.1899  0.0401 -0.1944
18190W        W34664  14.257   2.516   0.559 -0.4878 -0.0253 -0.2722
18191W        W34665  14.934   4.144   1.139 -0.0377 -0.3402  0.0739
18192W        W34666  13.085  15.815  12.974  0.1531  0.0401  0.1581
18193W        W34667  11.492  16.723  12.489 -0.1211  0.1225  0.2013
18194W        W34668   6.998   8.709   2.764  0.4371  0.1940 -0.0718
18195W        W34669   3.114  13.068   4.726  0.0029 -0.2173  0.1538
18196W        W34670   7.364  12.039   4.550  0.2189 -0.0721 -0.0581
18197W        W34671  16.616   3.752  13.406  0.1837  0.1838  0.1569
18198W        W34672   0.320  17.290   0.098 -0.0928  0.1142 -0.1125
18199W        W34673   3.618  10.035  13.108 -0.1546  0.0192 -0.1103
18200W        W34674   2.941   6.508   2.914 -0.3455 -0.1724 -0.0495
18201W        W34675   6.046   2.836   2.622  0.2346  0.3585 -0.1296
18202W        W34676  17.869  16.719   3.527  0.0889 -0.0435 -0.3945
18203W        W34677  16.137  14.991   1.047  0.0844  0.2090  0.2493
18204W        W34678   4.581   0.641   3.656  0.2755  0.0539 -0.1557
18205W        W34679   5.724   8.120   0.748  0.0630 -0.1679 -0.2203
18206W        W34680   2.872  17.525   2.684 -0.0054 -0.0820  0.1656
18207W        W34681  10.806  18.152   3.319 -0.0211  0.3890 -0.2508
18208W        W34682  15.190  16.911  11.115  0.1309 -0.1242 -0.2305
18209W        W34683   5.006  15.873   9.758  0.0243 -0.2911  0.2142
18210W        W34684  11.609  13.271   3.543 -0.1427 -0.0409 -0.1455
18211W        W34685  17.865   6.604  14.679  0.2737  0.1374 -0.1699
18212W        W34686   4.959  14.426  11.100  0.2475 -0.0001 -0.1217
18213W        W34687   1.507  14.616  11.321 -0.1229 -0.2844  0.3000
18214W        W34688  10.546  15.299   0.774 -0.1864 -0.0386 -0.3440
18215W        W34689   6.980  14.170   1.987 -0.2363 -0.1493 -0.1774
18216W        W34690  10.257  16.268   2.981 -0.2423  0.2044 -0.1017
18217W        W34691  16.473  10.283   4.684 -0.2573 -0.2630 -0.2279
18218W        W34692   6.299  12.346  13.810 -0.1196 -0.2267 -0.2045
18219W        W34693  17.819   0.850   0.115  0.1196  0.0517  0.2656
18220W        W34694  11.369   8.755   1.606  0.0694 -0.1997 -0.0064
18221W        W34695  14.266  15.102  14.340  0.2405 -0.1256 -0.1341
18222W        W34696   8.628   2.020   2.778 -0.0260 -0.2851 -0.1001
18223W        W34697   2.169  10.605   1.859  0.0978  0.0271 -0.0103
18224W        W34698   4.300   3.599   0.682 -0.0884  0.0662  0.1747
18225W        W34699  13.452   6.076  12.966  0.1006 -0.1363  0.0657
18226W        W34700   2.867   4.285   1.010 -0.1133 -0.1495  0.0727
18227W        W34701  11.935   4.975   3.494  0.0460  0.0412 -0.2786
18228W        W34702   3.202  15.535  12.222 -0.0367 -0.1397 -0.1942
18229W        W34703   7.242  14.269   4.185 -0.0835 -0.3973  0.0764
18230W        W34704   6.640   5.236  10.293 -0.0795 -0.0429  0.2894
18231W        W34705  18.204  12.579  14.600  0.1908 -0.0850 -0.1200
18232W        W34706   3.352   5.812   0.228  0.2323  0.1034  0.1151
18233W        W34707  16.488   9.219   3.511 -0.3724 -0.1048 -0.0221
18234W        W34708   3.454   3.649  11.960 -0.0917 -0.0285  0.0120
18235W        W34709  14.650   9.646   3.398  0.0051  0.1476  0.1515
18236W        W34710  14.962  17.830  14.070 -0.2247  0.3345  0.3801
18237W        W34711   9.999   8.815  13.796 -0.2086  0.3329 -0.0063
18238W        W34712  16.544   4.342   0.721 -0.3685  0.0875  0.3668
18239W        W34713  15.378  17.160   0.875  0.0202  0.0295  0.1794
18240W        W34714   6.670   8.018   4.136  0.1003 -0.1542  0.4024
18241W        W34715   6.106   4.835  15.035 -0.2009  0.2891 -0.0002
18242W        W34716  16.180  15.658  10.362  0.0766  0.2375  0.1472
18243W        W34717   6.487  12.321   5.408 -0.1997 -0.1322 -0.0525
18244W        W34718  18.609   1.862   4.353  0.1142 -0.2329 -0.0545
18245W        W34719  13.545  12.950  14.073  0.0432 -0.0355  0.1350
18246W        W34720   2.929   8.333   3.624 -0.0275 -0.3666 -0.1614
18247W        W34721  12.338  15.088  10.048 -0.0289  0.0791  0.0385
18248W        W34722  13.055   8.284   2.003 -0.2931 -0.0800  0.2358
18249W        W34723   8.194  16.915  13.085  0.1909  0.3517 -0.0148
18250W        W34724  13.772   1.706  12.243 -0.0747  0.1049 -0.1270
18251W        W34725   8.648   7.330   1.465 -0.0467  0.0322 -0.0309
18252W        W34726   2.011  12.387  15.013  0.0461  0.0923  0.0959
18253W        W34727   1.248  13.909   0.228  0.1179  0.2908  0.1313
18254W        W34728   3.023   2.303  11.127  0.0263  0.1470 -0.2075
18255W        W34729   4.702  15.201  15.081 -0.2424 -0.0704  0.2056
18256W        W34730  13.852  11.014  13.264 -0.2731 -0.4513  0.3532
18257W        W34731   4.222   9.317  13.332 -0.1204 -0.2199 -0.2897
18258W        W34732  15.492  11.486  11.808  0.1196  0.0765  0.2594
18259W        W34733   7.829   3.735   4.840  0.1487 -0.3183 -0.0407
18260W        W34734  15.107   1.562   1.027  0.1908  0.0583 -0.0231
18261W        W34735   0.611  11.465   4.747 -0.1512  0.3535  0.0500
18262W        W34736  18.480  14.693   2.233  0.1841 -0.1178  0.1769
18263W        W34737   1.719  11.714   3.668  0.0410 -0.0974  0.0263
18264W        W34738   2.542   5.124   9.932  0.1877 -0.0877  0.0408
18265W        W34739  15.852   1.123  13.046 -0.1763 -0.2408  0.1962
18266W        W34740  13.946  14.164  15.319  0.0739 -0.0817  0.1152
18267W        W34741   3.256   0.557  11.364  0.0440  0.0215 -0.1400
18268W        W34742  10.655  12.967  12.669  0.0528 -0.0606 -0.1625
18269W        W34743   0.871  14.282  15.349  0.3047 -0.0597 -0.0863
18270W        W34744   8.703   0.359   0.981 -0.1894 -0.0866 -0.0189
18271W        W34745   9.240  16.947   0.111 -0.0538 -0.0154 -0.2057
18272W        W34746   8.760  15.026   3.848  0.2248 -0.0595 -0.0618
18273W        W34747   1.018  15.987   0.071 -0.0670  0.2191  0.0853
18274W        W34748   9.559   4.031   0.194  0.2776 -0.2401  0.3994
18275W        W34749   3.295   1.873  11.328 -0.1660  0.2573 -0.1677
18276W        W34750   6.775   3.870  10.569  0.2141  0.0779  0.1140
18277W        W34751  18.751  13.324   2.656  0.1905  0.0591  0.2256
18278W        W34752  16.616   1.013  13.123  0.1845 -0.1404  0.1095
18279W        W34753  16.217  13.577  12.402  0.0991  0.1186 -0.1829
18280W        W34754   1.528  13.024   0.640  0.1419  0.1995  0.1496
18281W        W34755  14.013  13.728  13.097  0.0416 -0.1325 -0.2423
18282W        W34756  12.569   4.031  13.141  0.1424  0.0537 -0.1102
18283W        W34757   3.644   6.559   0.117  0.3906 -0.2264 -0.1640
18284W        W34758   9.135   2.978   4.471  0.0979  0.1680  0.1445
18285W        W34759  15.008   2.412   0.279 -0.2243  0.1851  0.0438
18286W        W34760  13.207  13.419  12.725  0.0782 -0.1224 -0.2642
18287W        W34761   6.149  10.512  11.929  0.0125  0.0289 -0.0547
18288W        W34762  11.821  10.711   0.586  0.1600 -0.0605  0.0602
18289W        W34763   4.434  13.693   5.041  0.2988  0.1977 -0.1153
18290W        W34764  10.718  15.813   1.414 -0.1888 -0.1262 -0.5705
18291W        W34765   2.227  14.026  14.189 -0.1396  0.1279 -0.0532
18292W        W34766  12.296  13.227  12.136 -0.1464  0.2198  0.1008
18293W        W34767   0.881   3.822  11.022  0.0540 -0.2429  0.2075
18294W        W34768  12.083  10.592   4.095  0.3960  0.0934  0.0433
18295W        W34769  10.935  15.845   4.478  0.3419  0.1349  0.2553
18296W        W34770  15.847   6.298   1.234  0.1361  0.0819  0.0678
18297W        W34771  10.316  17.533  12.651 -0.2995  0.2018 -0.0200
18298W        W34772  10.204  15.830  15.164 -0.0457  0.0540  0.1635
18299W        W34773   6.852   6.349  11.737 -0.0866 -0.2472  0.1591
18300W        W34774  14.271  17.901  10.294  0.3207  0.0411 -0.0557
18301W        W34775  10.978  14.417  12.730 -0.2580  0.2065  0.0609
18302W        W34776   0.118   8.530  12.245 -0.0428  0.2622 -0.0118
18303W        W34777   9.125   8.437  12.246 -0.4622 -0.2804  0.1789
18304W        W34778   8.010   2.829  12.039  0.1428 -0.2855 -0.2583
18305W        W34779  10.588  17.675   2.861 -0.0882 -0.0767 -0.0931
18306W        W34780  14.320  12.745  14.487 -0.3019 -0.0619  0.0666
18307W        W34781  16.525  16.591  11.576 -0.1931 -0.0474 -0.0352
18308W        W34782  14.178  17.185  14.162  0.1828  0.1405  0.2388
18309W        W34783  18.144   8.575   3.619  0.0270  0.1463 -0.0819
18310W        W34784   6.839   0.489  10.817 -0.1113  0.2653 -0.1595
18311W        W34785   3.936  17.152   1.111  0.0545 -0.0622 -0.1216
18312W        W34786   0.233   9.743   4.251 -0.0627 -0.0286 -0.0683
18313W        W34787   3.113   6.779   0.481 -0.2105 -0.3812  0.2009
18314W        W34788   5.234  15.088  13.805 -0.0562 -0.0682  0.0135
18315W        W34789  13.021   9.564   4.390 -0.1117  0.0290  0.0564
18316W        W34790  13.509   7.359  14.562  0.2320 -0.0832 -0.3164
18317W        W34791   6.632  12.190  11.733  0.0538 -0.0135 -0.0461
18318W        W34792  12.307  12.134   1.175  0.2835 -0.2404  0.2192
18319W        W34793  17.058   3.416   4.149  0.0525  0.0400 -0.3360
18320W        W34794  18.390  18.040  13.488  0.0503  0.0505  0.4195
18321W        W34795  17.730  18.354  15.171  0.3368  0.1409  0.1255
18322W        W34796   3.131  13.919  14.187  0.1737 -0.0166 -0.0204
18323W        W34797   1.831   9.267   0.075 -0.2161 -0.2204 -0.1783
18324W        W34798   0.687  16.588   1.480  0.1152  0.1161 -0.0673
18325W        W34799   2.558   1.665  13.214 -0.1286  0.0264 -0.0413
18326W        W34800   1.462  15.245   4.664  0.0388 -0.0251  0.0643
18327W        W34801   2.053   1.022   1.149  0.2166 -0.1093 -0.2819
18328W        W34802   1.000  11.757  15.472  0.2822  0.0602 -0.0822
18329W        W34803  18.474   3.850   3.879  0.1331 -0.1268 -0.1561
18330W        W34804   1.689   5.065  14.797  0.0878  0.2364  0.1004
18331W        W34805   6.661   5.866  11.599 -0.3613 -0.1905  0.0438
18332W        W34806  14.771  10.373   1.314  0.0624  0.2548 -0.2584
18333W        W34807  16.914  11.193   2.675 -0.3141 -0.0001 -0.0807
18334W        W34808   8.472  15.956  12.100  0.3059 -0.1728 -0.0337
18335W        W34809   6.177  14.649   2.762 -0.2059 -0.1636 -0.4233
18336W        W34810   3.571  12.035   4.467  0.0455 -0.2171 -0.2583
18337W        W34811   7.323  12.648   0.317 -0.0637 -0.0952  0.2332
18338W        W34812  17.356   4.553  10.706  0.0010  0.0751 -0.2394
18339W        W34813   9.567  15.946  13.802 -0.2629  0.0079  0.0704
18340W        W34814   0.015  18.204  12.533  0.0499 -0.0116  0.1922
18341W        W34815   1.406  14.229  15.457 -0.1433 -0.3033  0.1227
18342W        W34816  17.378   6.022  11.188 -0.1481 -0.0156  0.3829
18343W        W34817  11.812   6.846   5.175  0.0356  0.0110  0.3494
18344W        W34818  15.361  16.089  12.364 -0.3782  0.0365  0.3700
18345W        W34819   2.952   1.850  13.352 -0.0324 -0.0398 -0.0126
18346W        W34820   4.202   5.370   0.580 -0.2368 -0.2350 -0.0831
18347W        W34821  17.780   7.454  11.261 -0.0718 -0.0361 -0.2681
18348W        W34822   8.846  12.819   4.103 -0.0396 -0.4095 -0.0172
18349W        W34823  17.776  13.077   4.320 -0.0048 -0.1616 -0.2052
18350W        W34824  14.019  14.009  12.217 -0.1340 -0.4080 -0.4222
18351W        W34825   1.158   0.191  10.825 -0.0743 -0.1525  0.0802
18352W        W34826  14.462   8.674  12.802  0.0710 -0.2207  0.1736
18353W        W34827  12.712   7.937   2.216 -0.0221 -0.1012  0.3383
18354W        W34828  15.504   1.693   5.342  0.0054 -0.0728 -0.0087
18355W        W34829  13.079   6.733   4.093  0.0857  0.1797 -0.1934
18356W        W34830   6.792   5.092  12.034 -0.0417  0.2272 -0.0065
18357W        W34831  10.049  14.844   0.415 -0.0089 -0.2590  0.0728
18358W        W34832  15.822   9.495  12.771 -0.0249 -0.1229  0.0152
18359W        W34833  15.100   4.376  11.584  0.1191  0.0252  0.0134
18360W        W34834  14.726  10.086   0.670 -0.0487  0.1661 -0.2226
18361W        W34835   0.496  11.914   5.809  0.0716 -0.0620 -0.4875
18362W        W34836  18.231   7.361  13.672  0.0525  0.1331 -0.3217
18363W        W34837   6.591  10.996   4.168 -0.1987  0.1238 -0.2989
18364W        W34838  11.686  12.819   3.900  0.1928 -0.1071 -0.0131
18365W        W34839   0.749   6.843   2.538 -0.1531 -0.1291  0.1426
18366W        W34840  17.313   2.047  14.274  0.2775 -0.0333 -0.0557
18367W        W34841   5.457   2.988  13.482  0.0761  0.0214 -0.0074
18368W        W34842   5.933   9.209   1.109  0.1506  0.4676 -0.0421
18369W        W34843  12.841  12.663   3.992  0.2590  0.0652  0.0889
18370W        W34844   3.132  11.894  11.157  0.0010  0.1240 -0.1398
18371W        W34845  13.650   0.612   3.397 -0.0331 -0.1050  0.0483
18372W        W34846  11.731   1.062  12.021 -0.2140 -0.1549  0.0770
18373W        W34847   0.822   8.815   0.224 -0.1568  0.4603 -0.0182
18374W        W34848   7.234   0.185   5.121 -0.1059  0.2454 -0.0193
18375W        W34849   5.153   5.701  13.353 -0.0012 -0.2801  0.1206
18376W        W34850  18.186  18.351   5.217  0.1187 -0.0067 -0.0097
18377W        W34851  13.629  15.474   1.299 -0.1041  0.2056 -0.0899
18378W        W34852   5.401   8.682  10.853  0.2134 -0.2864  0.1072
18379W        W34853  11.939   2.022   4.454  0.0928  0.0706 -0.0434
18380W        W34854  11.504  15.240  13.047 -0.1945 -0.2210 -0.0812
18381W        W34855   8.147   9.578   1.728  0.1051 -0.4111 -0.0416
18382W        W34856   6.184  12.385  15.333 -0.2475 -0.0488 -0.1060
18383W        W34857   6.910   9.930  13.834 -0.0419 -0.0399  0.3937
18384W        W34858  12.191  17.295   6.185 -0.3900  0.0484 -0.0921
18385W        W34859   6.168   5.568  11.357  0.2338  0.3141 -0.1639
18386W        W34860   9.922   4.762  11.681 -0.0765  0.0138  0.2529
18387W        W34861   9.112   1.365  15.113 -0.5505 -0.2020 -0.0760
18388W        W34862   8.174   5.908   4.541 -0.2564  0.3308 -0.1132
18389W        W34863  10.613  16.126   0.924  0.0213 -0.0151  0.0012
18390W        W34864  18.510  12.695   3.412 -0.0071  0.2842 -0.2328
18391W        W34865   5.617   9.957  13.677  0.0946  0.2742  0.1630
18392W        W34866   3.278  14.519  11.976  0.1566  0.1447 -0.0320
18393W        W34867  16.696   8.327  11.062  0.2852 -0.1493  0.1172
18394W        W34868   2.009   4.037   2.311  0.3433  0.0183 -0.0350
18395W        W34869  15.012   9.561   1.733  0.2807  0.0906 -0.1786
18396W        W34870   7.261  13.006   3.604  0.0938  0.1828  0.0294
18397W        W34871   5.053  13.456   3.409  0.1385  0.2948 -0.1070
18398W        W34872   9.738  11.403   4.562 -0.0122  0.0634  0.1487
18399W        W34873   6.136  14.599   2.237  0.1034  0.0651 -0.0553
18400W        W34874  18.208  14.584   3.392 -0.3674  0.2554  0.0600
18401W        W34875  16.579  16.683   4.922  0.1423  0.0847 -0.4509
18402W        W34876  18.469  10.647   2.310 -0.2269 -0.0052 -0.5045
18403W        W34877  18.439   4.728   1.296 -0.4029  0.1765  0.1500
18404W        W34878   3.613   2.125  15.061  0.1025  0.0734  0.2329
18405W        W34879   8.886  17.556   2.875  0.1820  0.1457  0.0386
18406W        W34880   3.796   7.696   2.838  0.2232 -0.3933 -0.0900
18407W        W34881   2.771  14.091   1.897 -0.1691  0.0161  0.0263
18408W        W34882  17.644  16.608   5.028 -0.0017  0.0688  0.2053
18409W        W34883   4.090   7.051  14.046 -0.0397 -0.0923 -0.4571
18410W        W34884  10.375  17.025  14.938  0.0780 -0.2302  0.1822
18411W        W34885  13.479   1.408   4.703  0.0838 -0.0682 -0.3852
18412W        W34886  11.784   4.895  10.790 -0.0902  0.2662 -0.1027
18413W        W34887  10.814   2.788   2.041  0.2684 -0.0961 -0.0242
18414W        W34888  16.258   2.246   4.492 -0.3165  0.0366  0.3516
18415W        W34889   4.602   6.934   1.479 -0.1303 -0.1801 -0.4009
18416W        W34890   1.922  16.827   0.284 -0.3088 -0.0942  0.2510
18417W        W34891   4.611   2.396   2.777 -0.0539 -0.1621  0.0581
18418W        W34892  18.006   9.558   5.852 -0.3277 -0.0096 -0.2167
18419W        W34893  11.330   3.347   2.914  0.2954 -0.0365  0.0812
18420W        W34894   0.470  15.102   3.863 -0.1843 -0.3182  0.1757
18421W        W34895   9.063  13.339   5.861 -0.0303 -0.0514  0.3427
18422W        W34896  12.673  16.295   3.052 -0.3465  0.1686 -0.0182
18423W        W34897   3.240  10.941  10.491 -0.2973  0.0032 -0.1425
18424W        W34898   5.170  15.427  11.930 -0.3331 -0.0555  0.3135
18425W        W34899  18.209   3.510   4.108 -0.0297  0.0620 -0.4274
18426W        W34900   2.907  13.512  13.988 -0.3307  0.0251  0.2527
18427W        W34901  11.209   4.778  10.954  0.1439  0.2608 -0.0325
18428W        W34902   9.899  14.308  13.429 -0.2128 -0.1825  0.2182
18429W        W34903  12.235  17.558   1.855 -0.2539 -0.3809  0.0661
18430W        W34904   8.496   6.314   1.587  0.0741  0.1575 -0.0692
18431W        W34905  15.664  17.032  11.344  0.0634 -0.0404 -0.0266
18432W        W34906  16.611  12.530  12.985  0.2983 -0.1938 -0.3192
18433W        W34907  12.490   0.723  12.231 -0.1261  0.3306  0.0656
18434W        W34908   5.554   7.882   3.472  0.0796 -0.1101  0.0583
18435W        W34909  17.487  17.659  13.860  0.0639 -0.0293  0.0064
18436W        W34910   2.104   0.355   5.371  0.0888  0.0436 -0.0012
18437W        W34911  11.145   2.298  13.072 -0.0815 -0.2570  0.0695
18438W        W34912   1.076  16.867  11.701 -0.2952 -0.1535  0.3723
18439W        W34913   6.611   1.136   0.667 -0.0239  0.2975 -0.3279
18440W        W34914   0.028   8.645   5.736  0.0342  0.3093  0.0591
18441W        W34915   6.784  18.195   2.302 -0.0740 -0.1754  0.1235
18442W        W34916   9.513  18.318   4.720 -0.1820  0.1053 -0.2695
18443W        W34917   6.263  16.732   1.562  0.2807  0.0277 -0.0322
18444W        W34918  16.199  11.879   1.701  0.2607 -0.3159  0.0928
18445W        W34919  17.729   1.797   0.109 -0.1760  0.1862 -0.3065
18446W        W34920  18.197   9.848  13.854 -0.3562  0.2671 -0.0925
18447W        W34921   2.580  10.642   0.489  0.1559 -0.0098 -0.1648
18448W        W34922  13.353   8.186   3.521  0.1790 -0.3033 -0.1289
18449W        W34923  12.073   3.446  13.082  0.1394 -0.0529  0.2632
18450W        W34924   8.165  17.097  14.763  0.0733 -0.1396 -0.1295
18451W        W34925  17.181   2.961  12.296  0.0706 -0.1552 -0.4765
18452W        W34926  18.405  18.732  12.250 -0.4043 -0.0441  0.0457
18453W        W34927   5.532   0.634   1.007 -0.0907 -0.0306  0.0306
18454W        W34928   5.722  12.686  14.977 -0.2132 -0.2805  0.0671
18455W        W34929   6.891  10.978  14.010 -0.0185 -0.1142  0.0085
18456W        W34930   0.827  12.109   0.204  0.0994 -0.0019  0.0718
18457W        W34931  11.650  18.472   4.739 -0.1158  0.0161 -0.1946
18458W        W34932  17.916   6.362  10.483  0.4115 -0.0157  0.0493
18459W        W34933   5.647  17.214  15.103 -0.0418 -0.2680  0.2132
18460W        W34934   3.386   4.569   0.780 -0.1788  0.0241  0.0982
18461W        W34935  14.170  16.287  13.643  0.0489 -0.3542 -0.1947
18462W        W34936   8.289  17.317   5.227  0.1621  0.0936 -0.2081
18463W        W34937   5.629   0.965  12.241  0.3261  0.1665  0.2592
18464W        W34938   1.179   0.515   0.782  0.0033 -0.3687  0.0412
18465W        W34939   5.115   8.262  13.446  0.1176 -0.2079  0.1768
18466W        W34940   6.067   1.702  11.660 -0.1389  0.2296  0.1084
18467W        W34941  17.091   4.614   1.547 -0.3250  0.1018 -0.0461
18468W        W34942   4.633   4.810   2.127 -0.0292  0.0351 -0.2894
18469W        W34943   7.275   4.769   1.286 -0.0454  0.0724  0.2542
18470W        W34944   8.721   6.160  13.087  0.2731  0.2425  0.1449
18471W        W34945  17.632   4.201   2.491  0.2870 -0.2721  0.2603
18472W        W34946   1.667  16.059  13.906  0.1083 -0.0021  0.0645
18473W        W34947   7.471  15.805  14.579 -0.1575 -0.0794 -0.1203
18474W        W34948  17.506  16.336  13.127 -0.1219 -0.0971 -0.1686
18475W        W34949   6.857   4.749  11.589 -0.1115  0.2145  0.2984
18476W        W34950   5.437   1.515  13.309 -0.1696  0.2222  0.0216
18477W        W34951   1.624   0.725  13.134 -0.3162 -0.1124  0.1861
18478W        W34952  17.156   3.336  15.385 -0.1682  0.0329  0.0965
18479W        W34953   3.683  16.861  11.509  0.0291  0.0749 -0.1135
18480W        W34954  12.776   7.650   5.918  0.1472  0.2116  0.1227
18481W        W34955   4.770   0.388  10.039 -0.0029 -0.0231 -0.0960
18482W        W34956   2.255  12.041  13.084  0.3131 -0.1057 -0.0571
18483W        W34957   9.141   6.103  12.170  0.0243 -0.0545  0.2324
18484W        W34958   4.871   1.090  12.062  0.0277  0.2962 -0.2667
18485W        W34959  17.530   0.185  13.725  0.1242  0.2379  0.1925
18486W        W34960   5.644   2.026   4.324 -0.0190 -0.0477  0.0869
18487W        W34961   5.926  18.097  12.980  0.3821 -0.3014 -0.0239
18488W        W34962  14.221   3.597   1.170 -0.1073  0.3073 -0.2723
18489W        W34963  11.005  10.232   2.661  0.0590 -0.0533 -0.0395
18490W        W34964  11.418   6.896   1.254  0.1978  0.1096  0.0222
18491W        W34965  11.633   4.899  11.264  0.0210  0.0278 -0.0703
18492W        W34966  17.088   9.662  11.153 -0.0049 -0.3391  0.2731
18493W        W34967  14.564   8.133  10.942  0.1976 -0.3183  0.1057
18494W        W34968   0.431  12.363  14.362 -0.0049  0.2446 -0.0457
18495W        W34969   5.688   0.273  14.709 -0.1793 -0.1792 -0.0172
18496W        W34970  17.350   0.941   0.964 -0.1869  0.1942  0.2013
18497W        W34971  10.015  14.521   0.877  0.1859  0.2384  0.0073
18498W        W34972  16.825  16.840  13.833  0.0169  0.0990  0.1609
18499W        W34973   4.193   0.561  14.085  0.2252 -0.0853  0.1094
18500W        W34974   7.341   2.929   2.070  0.0447 -0.3905 -0.0843
18501W        W34975   3.631   3.647  10.965  0.2172  0.4012 -0.0497
18502W        W34976  15.771  16.589   5.545  0.0989 -0.0109 -0.2085
18503W        W34977  13.614   7.797  12.361  0.0448 -0.3805 -0.0952
18504W        W34978   3.112  13.792   5.603 -0.0463 -0.0516 -0.0981
18505W        W34979  11.649   9.872  14.041 -0.0572 -0.0343  0.3970
18506W        W34980   2.758   3.656  13.742 -0.0557 -0.3572 -0.0397
18507W        W34981   9.993  15.169  11.619 -0.3889  0.0590 -0.2340
18508W        W34982   3.693  14.826   4.500 -0.0865  0.3892 -0.0224
18509W        W34983  17.252  15.009   2.778 -0.1051  0.0718 -0.0722
18510W        W34984   1.467   4.931  13.801  0.2782 -0.3090 -0.1766
18511W        W34985  15.909   5.734   3.786 -0.2941 -0.1395  0.2963
18512W        W34986  16.243   1.209  12.087  0.1773  0.2722 -0.3531
18513W        W34987   9.737  10.045  10.696  0.1262  0.0247  0.0172
18514W        W34988   2.536  18.525   3.679  0.0712  0.2302 -0.1325
18515W        W34989  11.258  16.306  15.041 -0.1281 -0.5006 -0.0290
18516W        W34990   1.386  16.412  14.669  0.2470  0.3365  0.0225
18517W        W34991  15.952  11.319  12.894  0.1816  0.4312  0.2692
18518W        W34992  18.196   4.304  15.259 -0.2675 -0.1871 -0.3475
18519W        W34993   0.979   7.083   3.099 -0.4244 -0.2281 -0.2050
18520W        W34994  16.911  11.082   0.236  0.1901  0.1747 -0.1020
18521W        W34995  18.070   3.246   1.028 -0.0916  0.0495 -0.1800
18522W        W34996  10.286  13.974   4.462 -0.1036  0.2169  0.1036
18523W        W34997   1.447  16.539   5.593  0.2136  0.0873 -0.0871
18524W        W34998  13.533  17.109   5.922 -0.0407  0.4138 -0.1292
18525W        W34999  13.242   3.795  14.594 -0.1083 -0.1392 -0.4034
18526W        W35000  15.213   1.527   4.384 -0.1355 -0.1859 -0.1471
18527W        W35001   8.891  13.024  13.324  0.0339 -0.0748  0.0621
18528W        W35002   0.843   6.273  14.484 -0.1243  0.0622  0.0403
18529W        W35003   8.514  16.897   1.723  0.1093  0.2057 -0.1430
18530W        W35004   0.770   1.035  11.298  0.1901  0.0016  0.0592
18531W        W35005   6.797   7.768  13.851  0.1624 -0.0035 -0.1638
18532W        W35006   3.745  12.972  11.777 -0.0728  0.0798 -0.0606
18533W        W35007   5.914   6.421  14.836 -0.1331  0.1201  0.0880
18534W        W35008   9.416  18.341   5.392  0.1611 -0.0139  0.0674
18535W        W35009  16.917   4.774   4.583  0.1802 -0.0770 -0.2491
18536W        W35010  12.228  15.558   2.661  0.0009  0.3217 -0.0486
18537W        W35011   6.840   8.271   2.083  0.0724  0.0604 -0.0277
18538W        W35012   1.012   7.533   2.805 -0.2312  0.1222  0.1066
18539W        W35013  13.408   7.830   3.862 -0.2966  0.2932 -0.2966
18540W        W35014  15.225  13.972   4.749 -0.0280 -0.2694 -0.3445
18541W        W35015  10.757   6.649   0.585  0.0477  0.0203  0.0338
18542W        W35016  13.201   5.950   2.951 -0.0025 -0.1102  0.0434
18543W        W35017   4.112  15.549   1.769  0.0168 -0.1199 -0.1833
18544W        W35018   2.190  17.537   3.459  0.1376 -0.2135  0.0330
18545W        W35019   9.664   6.956   0.313 -0.0177  0.2143  0.0003
18546W        W35020   1.875  13.293   1.616 -0.1472  0.0454 -0.1128
18547W        W35021   2.694   7.887   4.416  0.2009 -0.2523  0.0279
18548W        W35022  16.151   0.602   4.110 -0.0071  0.3500 -0.2358
18549W        W35023   8.693   5.718  14.933 -0.0263  0.0825  0.0105
18550W        W35024  10.178   0.294   4.525 -0.2965 -0.0132 -0.0251
18551W        W35025   9.165   1.134   0.487  0.1968  0.2314  0.0681
18552W        W35026  17.025  16.434   5.705  0.2006 -0.0107  0.3180
18553W        W35027   4.968   1.852   0.321  0.0519  0.4207  0.0192
18554W        W35028   2.372   8.897  10.551 -0.1742 -0.0090  0.0057
18555W        W35029  13.099  15.867   0.426 -0.0339 -0.3186  0.1003
18556W        W35030   4.915  16.202   2.732 -0.1351  0.2399 -0.0586
18557W        W35031  13.875   9.652   2.960 -0.1658  0.1912  0.2259
18558W        W35032   2.209  11.981  14.774  0.2711 -0.1811  0.0399
18559W        W35033  11.635   1.679  10.950 -0.0833 -0.0215 -0.2745
18560W        W35034   5.525   2.041  15.139  0.2341 -0.0146 -0.2883
18561W        W35035   1.757  11.092  14.094  0.0635  0.1512  0.2240
18562W        W35036  16.296  16.719  10.736  0.0453 -0.1246  0.2346
18563W        W35037   5.769   2.538   1.699  0.0578  0.0867 -0.1803
18564W        W35038  10.622   4.241   4.638 -0.0749  0.0004  0.1335
18565W        W35039   8.178  17.803   6.131 -0.1079  0.3008 -0.0130
18566W        W35040   5.716   9.580  12.543 -0.1986 -0.0469  0.1882
18567W        W35041   1.667  17.751   3.586  0.2926  0.0954 -0.0128
18568W        W35042   2.927   9.426   2.100  0.2580  0.0336  0.1172
18569W        W35043   4.632  14.350  13.677  0.1563  0.0632 -0.1048
18570W        W35044  18.543   4.258  11.783 -0.4595  0.1682 -0.0408
18571W        W35045  15.876  10.861   2.783 -0.2121 -0.1349 -0.2188
18572W        W35046   9.882  12.448   2.822 -0.1930  0.0596  0.0695
18573W        W35047  16.237  15.621  13.183 -0.0193  0.2686  0.0913
18574W        W35048   1.901   5.509   3.478 -0.2321  0.1376  0.1044
18575W        W35049   0.281  12.917   4.838 -0.2404 -0.0321 -0.3267
18576W        W35050   4.351   1.050   5.150  0.1613 -0.0084 -0.0284
18577W        W35051   4.419   5.250  13.686 -0.1228 -0.0573  0.1241
18578W        W35052  13.546   8.199  13.777 -0.0616  0.3072 -0.3442
18579W        W35053  11.927   3.824  11.632  0.0534 -0.2203  0.2596
18580W        W35054   7.025  14.944   0.313  0.2661  0.0912 -0.2283
18581W        W35055  18.259   0.816  12.322  0.0708  0.2581 -0.1977
18582W        W35056  15.951   5.977  14.664 -0.1377  0.0860 -0.1393
18583W        W35057   3.753  17.658  11.623  0.1937  0.0832  0.3296
18584W        W35058   8.626   2.468  13.353 -0.1453  0.1767 -0.3968
18585W        W35059   9.188  13.686  15.368  0.2098  0.4670  0.1407
18586W        W35060   9.848   8.919   3.044 -0.1400  0.1470  0.0970
18587W        W35061   8.901  11.869   1.017  0.0196 -0.2223  0.0547
18588W        W35062  12.758   1.043  13.237 -0.0975 -0.3218 -0.1205
18589W        W35063   2.202   9.341  10.639  0.0038 -0.2000  0.3388
18590W        W35064  16.549   3.010  14.960 -0.2373  0.0186  0.1591
18591W        W35065   2.903   7.694  15.185  0.0924  0.3409 -0.1108
18592W        W35066   4.770   4.640   0.288 -0.1830 -0.0984  0.1751
18593W        W35067  11.959  18.563   4.322 -0.0023  0.0539 -0.0224
18594W        W35068  12.713   0.324   2.296  0.1878 -0.0780  0.1815
18595W        W35069  18.521  15.065   3.467 -0.0704  0.0630 -0.0109
18596W        W35070  17.829   8.297   4.568  0.1721  0.3883  0.1262
18597W        W35071  14.186   9.981  10.841 -0.1135  0.0586 -0.1489
18598W        W35072   4.549  11.804   4.320 -0.0187 -0.0558  0.0989
18599W        W35073   4.940   3.741   2.873  0.0283 -0.0261  0.1384
18600W        W35074   7.554   3.675   1.782 -0.0237  0.2196 -0.0480
18601W        W35075   1.110   2.478  13.045  0.0018 -0.0036 -0.0677
18602W        W35076   1.608   7.503   0.417 -0.2159  0.2078 -0.3996
18603W        W35077   8.880   1.860  12.856 -0.0322  0.1182 -0.2802
18604W        W35078   0.197   3.472   0.665  0.1694  0.0206 -0.0496
18605W        W35079  12.888  11.305   4.371 -0.1237 -0.0143 -0.3600
18606W        W35080  14.811   8.834  14.942 -0.1329 -0.1305  0.2426
18607W        W35081  16.956   3.312   2.534 -0.1174  0.2263  0.0173
18608W        W35082  12.539   5.798   1.692  0.2383  0.0313 -0.1656
18609W        W35083  17.802   1.186  11.099  0.1194  0.0160  0.0085
18610W        W35084  15.248   1.863  11.974 -0.1968  0.0520  0.0795
18611W        W35085   3.902   2.731   0.256  0.3808  0.0520  0.1206
18612W        W35086   8.828  13.434   5.126 -0.2978 -0.0508  0.0391
18613W        W35087   0.966  10.144   2.477 -0.0837  0.2987  0.1023
18614W        W35088   2.381  10.235   1.514 -0.0326  0.0391 -0.1774
18615W        W35089   8.732  15.721   3.209  0.1012  0.0190  0.2408
18616W        W35090   9.637   9.988   0.209  0.1675 -0.0779 -0.4481
18617W        W35091   5.988  15.888   1.894  0.2072 -0.0553  0.1023
18618W        W35092  18.765   0.684   3.372  0.1471  0.0478 -0.1939
18619W        W35093   5.396   8.197   1.730  0.1980  0.1261  0.2538
18620W        W35094   8.868   4.931  14.404  0.2214  0.3962 -0.2806
18621W        W35095  16.030   1.929   0.865  0.0462  0.0506  0.1188
18622W        W35096   5.074  15.204  10.558 -0.1327 -0.0994 -0.2291
18623W        W35097  12.346  11.918   2.756 -0.1473 -0.1659 -0.2627
18624W        W35098   0.406   5.736  13.097 -0.3158 -0.0868 -0.1213
18625W        W35099   9.570  17.681  14.556 -0.0075  0.4088 -0.3392
18626W        W35100  18.760   8.248   2.624 -0.1359  0.2211  0.0586
18627W        W35101   4.365   9.633   0.986  0.0501 -0.0007  0.0230
18628W        W35102  18.641  15.530   5.125  0.1741  0.0193 -0.1292
18629W        W35103   5.679   3.464  13.476 -0.3553 -0.3911  0.2236
18630W        W35104   2.222   0.148   3.708  0.1731 -0.2106  0.0168
18631W        W35105   2.452   6.550  14.043  0.0616  0.0888 -0.1260
18632W        W35106   2.132  10.427  11.789  0.0271  0.1651 -0.0877
18633W        W35107   4.770  18.022  12.304 -0.0477 -0.0131 -0.2585
18634W        W35108   1.409  15.213   0.618 -0.0044 -0.0381 -0.2268
18635W        W35109   6.546   5.589   1.128  0.0353 -0.0289  0.0642
18636W        W35110  11.675  10.672  15.123  0.2512 -0.2031  0.3614
18637W        W35111   6.931   3.158   3.796  0.1925  0.1738  0.0124
18638W        W35112  11.660  16.465   4.119 -0.1904 -0.0091  0.0413
18639W        W35113   8.499  14.155   5.620  0.1309  0.0843  0.0225
18640W        W35114   3.504   7.026   0.828 -0.0753  0.1233 -0.0163
18641W        W35115   2.754   6.608   0.245 -0.0321  0.2398  0.1110
18642W        W35116   0.536   7.126   2.946  0.0408  0.0195 -0.3471
18643W        W35117  12.882   2.361   0.337  0.1686 -0.1663  0.4566
18644W        W35118  10.789   9.065   2.229  0.2220  0.2568  0.0142
18645W        W35119   0.619  18.562  14.387 -0.0367  0.1381 -0.2043
18646W        W35120   8.995   4.173  15.457 -0.1509  0.0486  0.0304
18647W        W35121   0.965  11.969   3.259  0.0683  0.1669  0.1135
18648W        W35122  11.316   4.752   4.263  0.2804  0.1513 -0.1372
18649W        W35123  13.660   4.758  10.223  0.0095 -0.0900 -0.2546
18650W        W35124  11.059  18.323  12.489  0.0969  0.0122  0.2842
18651W        W35125   1.540   3.302   3.718  0.3226 -0.0855  0.1189
18652W        W35126  12.246  13.544  11.718 -0.2101  0.2873  0.0250
18653W        W35127  18.674   6.836   2.384  0.0562  0.0236  0.0360
18654W        W35128   0.133  14.595  14.759  0.1116 -0.0638  0.3449
18655W        W35129   7.245   6.092   4.213 -0.0212 -0.1645 -0.2323
18656W        W35130   3.216   5.397  11.563  0.1252  0.2096 -0.2388
18657W        W35131  16.026  17.119   3.357 -0.2251 -0.1564  0.0830
18658W        W35132   0.648   7.184  11.916  0.3730  0.1913 -0.0632
18659W        W35133   8.095   2.475   2.578 -0.1082 -0.0170 -0.0703
18660W        W35134   9.903   6.029  13.848  0.0963 -0.0466  0.0790
18661W        W35135   6.830  10.158  11.204 -0.2020 -0.0855 -0.0521
18662W        W35136  11.851   8.149  11.808  0.1478  0.0993  0.3774
18663W        W35137   4.324  12.637  11.114  0.2479 -0.0132  0.2720
18664W        W35138   9.354   5.472   2.916  0.0247  0.0554 -0.2053
18665W        W35139   9.289  13.777  12.674 -0.1262  0.0408  0.3533
18666W        W35140   8.739  13.236   2.701 -0.2285  0.2541 -0.0614
18667W        W35141   0.531   2.234  11.210  0.0959 -0.0484  0.1630
18668W        W35142   3.650   5.233  11.767  0.0312 -0.3011  0.1046
18669W        W35143  14.050   3.641  12.496 -0.0570  0.2537 -0.2121
18670W        W35144   0.152   7.451   3.073 -0.1264 -0.0437 -0.2452
18671W        W35145   2.037  12.696  10.775 -0.0262 -0.3544 -0.2732
18672W        W35146  12.550   0.721   0.668  0.2555 -0.0692 -0.0399
18673W        W35147  15.955  12.771  14.720 -0.0558 -0.0453 -0.0696
18674W        W35148  14.298   5.368   4.480  0.2193  0.3151  0.1830
18675W        W35149  18.700   1.270   0.796  0.2969  0.0803  0.1578
18676W        W35150  14.101  16.673   0.624 -0.2396  0.2580 -0.2126
18677W        W35151   6.143  10.209  12.305 -0.0838 -0.2112 -0.0779
18678W        W35152   4.088  15.533   4.780 -0.0072 -0.3828  0.0885
18679W        W35153  10.842   9.522  10.733 -0.1391 -0.1116 -0.0194
18680W        W35154   8.247  17.338  13.349 -0.0345 -0.0436  0.3703
18681W        W35155  17.949  10.495  11.975  0.1375  0.1060  0.1730
18682W        W35156   5.294   2.320   0.101 -0.2414 -0.2499 -0.2475
18683W        W35157  10.341   2.384   3.399 -0.2063 -0.2595 -0.2974
18684W        W35158   3.387   0.104  11.092 -0.1462 -0.0561 -0.1528
18685W        W35159   9.280  10.319   0.493 -0.1064  0.2586  0.0013
18686W        W35160  10.001   7.759  15.214 -0.1716  0.0162 -0.2255
18687W        W35161  12.928   8.629  12.560 -0.0555  0.1940  0.2290
18688W        W35162   4.997   1.467   4.754  0.1244  0.0764  0.1554
18689W        W35163   6.307   6.308  14.269  0.0911 -0.2533 -0.0195
18690W        W35164   5.319  14.014   4.572 -0.0992  0.0254  0.2706
18691W        W35165   8.691  10.935   0.987 -0.2108  0.1225 -0.0348
18692W        W35166   5.885   1.881  13.212 -0.1554 -0.1920  0.0212
18693W        W35167   1.548  10.710   2.709 -0.3739 -0.0122 -0.1550
18694W        W35168   1.582  15.222   0.137  0.0155  0.0993 -0.5039
18695W        W35169  14.828   3.655   3.205 -0.2569 -0.3238  0.3167
18696W        W35170   6.326   2.248   2.089  0.0384 -0.0494  0.3107
18697W        W35171   0.313  11.010   1.960 -0.0679 -0.4244  0.2955
18698W        W35172  17.055   1.280   1.136 -0.0845 -0.0649  0.0393
18699W        W35173   0.785   6.925   1.383 -0.0044  0.0995 -0.2323
18700W        W35174  18.778  12.303   3.572 -0.0422 -0.0005  0.2108
18701W        W35175  11.210  18.291   1.787  0.0186 -0.2793  0.2001
18702W        W35176  10.075   1.943  11.018  0.1094 -0.0196 -0.0842
18703W        W35177  11.166  16.534   1.338 -0.0162  0.0990  0.0796
18704W        W35178   3.132  17.139  12.157 -0.0857 -0.1570  0.3503
18705W        W35179   6.866   2.240   2.327  0.0470  0.0843 -0.2188
18706W        W35180  10.379  10.360   3.597 -0.1079 -0.2026 -0.1205
18707W        W35181   3.971   4.374  13.427  0.1852  0.2104  0.0250
18708W        W35182  15.213  16.405  14.961 -0.1291  0.1761 -0.0229
18709W        W35183   4.487  11.991   0.324 -0.3740  0.1611  0.0341
18710W        W35184   6.007  10.645  10.967  0.1650 -0.0794  0.0600
18711W        W35185   0.775  12.365   2.038 -0.3044  0.4077 -0.0018
18712W        W35186   5.039   6.216   4.579 -0.0787 -0.0741 -0.3018
18713W        W35187   5.269   6.700   5.220  0.2913  0.1525 -0.2523
18714W        W35188  17.470   3.185   1.064  0.2787 -0.1211  0.0129
18715W        W35189   6.980   1.574   0.048  0.0835 -0.0469 -0.5437
18716W        W35190   9.116   5.705  11.723  0.7267  0.0193  0.2307
18717W        W35191   1.916   0.720   3.130  0.0087 -0.2064 -0.1325
18718W        W35192   0.966   6.482  12.690 -0.0799 -0.0359  0.2757
18719W        W35193  16.374   3.217   2.446  0.1247 -0.2451  0.1182
18720W        W35194  12.737   8.513   3.662  0.1635 -0.0224 -0.0298
18721W        W35195   5.273   5.362   2.022  0.0733 -0.2983  0.1159
18722W        W35196   2.857   0.933  12.460 -0.0011  0.2161 -0.3283
18723W        W35197  18.470   9.430  14.974 -0.0123  0.3463 -0.1447
18724W        W35198  16.249  10.063  15.135  0.0693 -0.2219  0.3171
18725W        W35199   8.342   6.578   0.733  0.1228 -0.2608  0.0462
18726W        W35200   7.721   8.077   2.924 -0.1494  0.0903  0.0445
18727W        W35201  15.051   5.952   4.928  0.0537 -0.0927  0.0836
18728W        W35202  10.472  14.279  13.652  0.1541 -0.0347  0.0967
18729W        W35203  17.808   8.471   0.872 -0.4271  0.4086 -0.1497
18730W        W35204  15.542   6.893   2.255  0.0406  0.2667 -0.1355
18731W        W35205   2.777  14.763  13.210 -0.0062 -0.0900 -0.1569
18732W        W35206   4.728  18.233   9.684 -0.1627  0.0445  0.1063
18733W        W35207  15.994  12.088   6.127 -0.2140  0.0369  0.3062
18734W        W35208   6.997  15.683  13.641 -0.0354  0.1618 -0.2459
18735W        W35209   7.109  15.336   0.853 -0.0496  0.1316 -0.2374
18736W        W35210  13.765   5.677  11.711 -0.1691  0.2733  0.0399
18737W        W35211  14.100   6.335  11.014 -0.2206 -0.0907 -0.0823
18738W        W35212  15.717   3.176   1.889 -0.2026 -0.0265 -0.2084
18739W        W35213  12.904   7.156  11.098 -0.2501 -0.1032  0.2820
18740W        W35214   3.787   6.432  10.562 -0.0690 -0.0902 -0.2715
18741W        W35215  16.765   2.953  14.479  0.2531  0.1321  0.1713
18742W        W35216   9.911   3.521  14.003  0.0233  0.2119  0.1375
18743W        W35217  10.713   9.923   1.004  0.1846 -0.0936 -0.2265
18744W        W35218   3.251   3.372   4.811  0.0562  0.2646  0.1117
18745W        W35219   5.195  11.649   3.537  0.2902 -0.0720  0.0594
18746W        W35220  14.634  14.108  13.987  0.1401 -0.1677 -0.1486
18747W        W35221   4.655  15.366  10.856 -0.0428  0.1804  0.3517
18748W        W35222  13.709  16.183   5.490 -0.0277 -0.2113  0.1346
18749W        W35223  15.467  14.802  13.531 -0.1047  0.1379 -0.4056
18750W        W35224  14.445  14.451  13.591 -0.2363  0.1634  0.2540
18751W        W35225  11.101  15.189   5.883  0.0697  0.0817  0.0405
18752W        W35226   8.946   2.869   2.813 -0.0604  0.1509 -0.1911
18753W        W35227   4.868   1.081  15.236 -0.0259 -0.2026 -0.1183
18754W        W35228  12.328  10.510  12.469 -0.0071 -0.2959  0.0823
18755W        W35229  18.446  12.282  15.508  0.0614 -0.3491 -0.2931
18756W        W35230   4.568  11.217  14.646 -0.1497  0.3034 -0.1043
18757W        W35231  17.143   8.995   2.825  0.4510  0.1120 -0.2007
18758W        W35232   3.151  14.998  12.268  0.1213  0.0658  0.0749
18759W        W35233   1.826  15.929  14.692  0.0202 -0.3745 -0.0651
18760W        W35234  14.926   4.256  13.773 -0.0818  0.0437 -0.3382
18761W        W35235  15.250   5.402   0.998  0.3192  0.3427  0.0432
18762W        W35236  15.384  12.503   4.107  0.2831  0.0669 -0.2346
18763W        W35237  14.609   7.908   0.401 -0.0063 -0.0403 -0.0756
18764W        W35238  18.377  10.778   3.567  0.0671 -0.0856  0.3770
18765W        W35239  11.951  11.026   5.867 -0.1114  0.1369  0.2102
18766W        W35240   9.484  15.931   5.567 -0.2221  0.0773 -0.0238
18767W        W35241   5.454  10.364   2.031 -0.0198  0.0855  0.0116
18768W        W35242   6.078   0.507  14.349 -0.2773  0.0974 -0.0016
18769W        W35243  17.429   0.729  14.521 -0.3308  0.0097 -0.2855
18770W        W35244  16.984  15.986   3.773 -0.1448  0.0490  0.2570
18771W        W35245  18.725   5.473  13.961  0.3439  0.1292 -0.3016
18772W        W35246   4.051   6.544  11.002  0.2425 -0.0110  0.1368
18773W        W35247  10.246  18.521  13.012  0.0767  0.3158  0.2001
18774W        W35248  16.412   1.058   2.358 -0.1955  0.0019  0.0384
18775W        W35249  11.762   0.862   3.661 -0.3575 -0.1515  0.0874
18776W        W35250   1.280   8.134  15.136  0.3950 -0.3040  0.0544
18777W        W35251  10.181   7.712   0.481 -0.1647  0.2158  0.1872
18778W        W35252   2.772  11.352   3.516 -0.0694 -0.1369  0.1280
18779W        W35253   8.357  14.323  11.406  0.1887 -0.2219  0.1349
18780W        W35254  13.383   3.975   4.012 -0.2045  0.4232  0.0163
18781W        W35255   1.575  15.872   0.268  0.0404 -0.0202  0.0151
18782W        W35256  16.547   8.489   0.367 -0.1985 -0.2529  0.3200
18783W        W35257   5.988   6.915   5.759  0.0073  0.3040  0.1563
18784W        W35258  10.799   2.042   4.825 -0.0892 -0.3137  0.1131
18785W        W35259   2.348   0.697   5.088 -0.1481 -0.1944  0.0085
18786W        W35260   2.184  18.253  13.929 -0.0141 -0.2821 -0.0572
18787W        W35261   8.660  10.084  15.175 -0.3564  0.0439 -0.1577
18788W        W35262  16.930   4.783   3.475 -0.0702 -0.1513 -0.3408
18789W        W35263   1.188  10.199  14.283  0.0457 -0.1929  0.2789
18790W        W35264  10.059   5.891  12.005  0.1292 -0.0737 -0.1143
18791W        W35265   9.755   6.324  12.730  0.0333  0.3449 -0.2506
18792W        W35266   5.785  12.942  13.841  0.2802  0.0560 -0.1399
18793W        W35267   8.139  11.989  14.827 -0.1612 -0.1528  0.2175
18794W        W35268  12.142   8.504   3.613  0.1491  0.2170 -0.1351
18795W        W35269  16.630  17.096  11.660  0.1295  0.0747  0.0511
18796W        W35270  13.533  15.982  12.675  0.1882  0.0495  0.1361
18797W        W35271   2.320  14.700   0.241  0.1405 -0.4070  0.0224
18798W        W35272  14.229   2.739  11.418 -0.0260  0.0213  0.0249
18799W        W35273  18.212   3.600  12.751  0.0342 -0.2075 -0.1525
18800W        W35274  12.619  16.151  11.444  0.1934 -0.4464 -0.1503
18801W        W35275  10.022   9.930  14.219  0.1575 -0.0433  0.3001
18802W        W35276  10.824  14.618  10.747  0.1555 -0.1203  0.2049
18803W        W35277   2.611  12.598  13.044  0.0044 -0.4613 -0.0857
18804W        W35278   0.981  18.279  14.662  0.2818 -0.0749  0.0570
18805W        W35279   4.267   7.487   2.384  0.0675  0.1749  0.1898
18806W        W35280  11.485   1.055   9.935  0.1073  0.1067  0.1974
18807W        W35281   2.498  11.035   4.324  0.0268  0.1877 -0.3739
18808W        W35282   4.584   0.851  11.183 -0.0361  0.2574  0.1632
18809W        W35283  11.710  14.540  15.550 -0.0695  0.0244 -0.1916
18810W        W35284   2.343  10.809  12.954 -0.0562  0.4519  0.1232
18811W        W35285  16.462   5.655  11.621  0.3090  0.1746  0.0808
18812W        W35286  14.238  14.521   2.016  0.0630 -0.0837 -0.0802
18813W        W35287   6.315   5.452   0.637 -0.3392 -0.1427 -0.1125
18814W        W35288  13.471   3.737   1.409 -0.1937  0.3676  0.2291
18815W        W35289  13.802   4.741  11.511  0.1931 -0.1660  0.1936
18816W        W35290   0.250   9.044  14.073  0.3425  0.0440  0.2761
18817W        W35291   1.599   2.885  14.907 -0.0964  0.2146 -0.0099
18818W        W35292   1.546  12.157   3.222 -0.0829 -0.0428  0.1320
18819W        W35293   1.245  18.555   2.764 -0.0857 -0.1545  0.1664
18820W        W35294  12.156  14.733  15.285 -0.2567  0.2255 -0.2845
18821W        W35295  12.916  10.331   4.562 -0.0048 -0.0458 -0.1284
18822W        W35296   3.309  18.153  12.636 -0.1323  0.3926  0.2612
18823W        W35297  11.140   7.564  14.530 -0.2214 -0.1227 -0.0837
18824W        W35298   3.095  11.072  13.662  0.2754 -0.1862 -0.0151
18825W        W35299  14.590  16.183   1.860  0.1753 -0.2087 -0.0764
18826W        W35300   7.172   4.714  11.992  0.0042 -0.2059 -0.3341
18827W        W35301  15.933   2.266  15.510  0.0208 -0.0873 -0.0997
18828W        W35302   8.088   1.807   3.630  0.1669  0.3701 -0.1883
18829W        W35303  14.254  12.485   4.281 -0.1845  0.0828  0.0446
18830W        W35304   9.680   5.531  14.697  0.0045  0.1257 -0.0394
18831W        W35305  14.360   1.967  11.050  0.1218 -0.1167  0.0757
18832W        W35306   8.776  11.376   1.253 -0.0673 -0.3802 -0.3213
18833W        W35307  12.648   4.881   1.113 -0.0957  0.0347  0.1830
18834W        W35308  11.585   3.740   2.817 -0.1763  0.0439 -0.0822
18835W        W35309   1.214   5.834  14.379  0.0287 -0.0962  0.1217
18836W        W35310  16.670  15.426  15.315 -0.1040 -0.0972 -0.0812
18837W        W35311  11.110  16.987  13.363 -0.0940 -0.2861  0.1290
18838W        W35312   0.639  10.577  12.986  0.2648  0.0341  0.0679
18839W        W35313   8.637   7.583   5.217 -0.2264  0.0436 -0.0919
18840W        W35314   4.355   7.016   4.232 -0.1303  0.1748  0.1634
18841W        W35315   4.777  16.904  12.842  0.1869 -0.1857 -0.0639
18842W        W35316   9.521  15.423  13.831  0.1545  0.1532  0.1775
18843W        W35317   7.178   4.509  14.198 -0.0320  0.0452  0.5230
18844W        W35318  15.562  17.248  12.333 -0.0184 -0.2361 -0.4690
18845W        W35319  17.403  14.221   1.536 -0.1115 -0.0267 -0.1055
18846W        W35320  16.215  12.815  13.009 -0.1062 -0.1226 -0.0941
18847W        W35321  13.852  14.319   4.833 -0.0646  0.1798  0.3811
18848W        W35322  14.642   0.443  15.238 -0.0316  0.3943 -0.0497
18849W        W35323  16.992  13.896   5.241  0.1456  0.2149 -0.0851
18850W        W35324  15.151  18.454  11.267 -0.0100 -0.0482 -0.1466
18851W        W35325   3.462   0.008   0.776  0.3194  0.5308  0.1732
18852W        W35326   5.945   1.104  13.572  0.0938  0.0457  0.0177
18853W        W35327  18.494  15.817  11.543 -0.0900 -0.0234  0.1849
18854W        W35328   8.633   9.548   1.656  0.1228  0.1448 -0.0408
18855W        W35329  11.627   6.112  10.889  0.0281  0.1037  0.1456
18856W        W35330  17.524  16.593   9.714 -0.3156  0.2775  0.3553
18857W        W35331   8.921  16.767   3.067  0.1051  0.0435 -0.0418
18858W        W35332   5.637   7.318  10.338 -0.1567 -0.0897 -0.2896
18859W        W35333   4.163   0.766   2.019  0.0962  0.0253  0.1957
18860W        W35334   8.701  18.399   1.235  0.1088  0.0298 -0.0633
18861W        W35335   6.152   0.131  14.812 -0.0464 -0.0309 -0.0376
18862W        W35336  18.240  14.478  10.548 -0.0948 -0.0314 -0.1314
18863W        W35337  10.002   2.620  15.276  0.0249  0.1567  0.2354
18864W        W35338   8.880   5.812  12.687  0.1063 -0.1079 -0.1016
18865W        W35339   9.554  12.197   3.360 -0.0853 -0.0108  0.2802
18866W        W35340  13.142   7.738  12.158 -0.1938  0.1329 -0.2321
18867W        W35341  13.307   9.334  14.601 -0.1932  0.0237  0.4307
18868W        W35342  16.564   8.996   4.893 -0.2261  0.1541  0.0299
18869W        W35343  10.667   6.944   2.105 -0.2137 -0.2434  0.1878
18870W        W35344   4.781   4.563  13.467  0.5046  0.0353  0.3667
18871W        W35345   7.804  15.595   0.442 -0.1415 -0.0715 -0.1077
18872W        W35346   4.406   2.831   0.245 -0.0176 -0.0018 -0.0206
18873W        W35347   1.813   6.195   3.554  0.1465  0.1780 -0.1578
18874W        W35348   0.012   9.503   5.104  0.1159 -0.0407  0.0692
18875W        W35349  14.871  11.527   2.142  0.0117 -0.2102  0.1193
18876W        W35350  10.691   7.591  11.663  0.1292  0.1445 -0.1329
18877W        W35351   0.779   6.992   4.643 -0.1710 -0.2971  0.1415
18878W        W35352  16.643  10.828  14.718  0.3197  0.1260 -0.0690
18879W        W35353  18.658  17.760   1.088  0.1775  0.0662 -0.0580
18880W        W35354  15.184  15.016  14.848 -0.3194 -0.0213 -0.1681
18881W        W35355   8.259   0.721   0.184 -0.1821 -0.2365 -0.1370
18882W        W35356   2.864   1.852   3.498  0.1999 -0.2736  0.0012
18883W        W35357  10.270  17.412  11.692 -0.3306 -0.1132  0.0056
18884W        W35358  15.548   0.158   5.590 -0.0551 -0.0094  0.0488
18885W        W35359  14.052   0.339   0.198  0.0263 -0.2755 -0.0296
18886W        W35360   8.275   4.553  13.388 -0.0380  0.2801  0.1676
18887W        W35361   2.106   5.583   9.460  0.2627  0.0153 -0.0938
18888W        W35362  17.439  17.531  11.953 -0.3399 -0.0489 -0.1057
18889W        W35363   9.462  11.304  11.621 -0.0083 -0.2860 -0.0797
18890W        W35364  11.354  13.506   1.269  0.0434 -0.0543  0.0165
18891W        W35365  16.240   9.699  11.906  0.1629  0.2266 -0.3037
18892W        W35366   6.747   2.191  12.657 -0.2366 -0.2413 -0.0214
18893W        W35367   5.027   2.107   3.623 -0.0714  0.0952  0.1172
18894W        W35368   7.148  13.393  11.263 -0.2604  0.2805  0.0055
18895W        W35369  12.092  11.032   3.763 -0.0547 -0.0049 -0.2129
18896W        W35370  15.519   0.938   3.672  0.0694  0.0421 -0.1047
18897W        W35371  17.585   7.614   0.888 -0.0537  0.0082 -0.0858
18898W        W35372   8.866  15.962   3.964  0.1418  0.1752  0.1876
18899W        W35373  11.249   4.150   2.728 -0.1352 -0.3648  0.0800
18900W        W35374  10.617   2.328  14.073 -0.0282  0.0609 -0.3349
18901W        W35375  13.667  13.492   1.641  0.0659  0.3756 -0.1966
18902W        W35376   6.462   7.220   4.364  0.0755  0.1445  0.0646
18903W        W35377  16.752  10.916  10.439  0.1897  0.0204  0.2319
18904W        W35378   3.041   7.234  13.708  0.1389 -0.1909  0.0033
18905W        W35379   1.330   4.323  12.296  0.1364 -0.0636  0.1085
18906W        W35380   2.322   6.413   3.584 -0.1896 -0.0731  0.1633
18907W        W35381  18.661  13.031  12.752  0.0536 -0.2177  0.1465
18908W        W35382  10.289  16.598  12.758 -0.1264 -0.0256  0.2416
18909W        W35383   0.821   7.161   2.002  0.2907  0.0690 -0.2525
18910W        W35384  14.529   5.245   3.410 -0.0843 -0.1565  0.0170
18911W        W35385   3.861   6.117  11.220  0.1785  0.0846  0.0152
18912W        W35386   7.322  13.306  12.414 -0.2700  0.0453  0.3586
18913W        W35387   8.168  14.220   1.949 -0.1658  0.2877  0.1439
18914W        W35388  13.485   3.266   5.680 -0.0875 -0.0223  0.1444
18915W        W35389  11.560  11.495   1.899 -0.0604 -0.1270  0.0697
18916W        W35390   5.430  13.008   2.567 -0.1385 -0.1786 -0.0385
18917W        W35391   6.136   6.821   1.050 -0.0398 -0.2201  0.0803
18918W        W35392  12.043   3.753   4.528  0.2116  0.3210  0.0887
18919W        W35393  14.813   9.199   0.135 -0.0924 -0.0422 -0.0414
18920W        W35394   8.514   8.600   3.078  0.3629  0.0643 -0.0148
18921W        W35395  10.970  16.530   3.432  0.2311  0.1452  0.0485
18922W        W35396   7.999  16.686   1.387 -0.0902 -0.1977  0.1068
18923W        W35397   8.326   4.862   2.951  0.0298 -0.0347 -0.1279
18924W        W35398   6.922   4.703  10.465  0.1821 -0.1923 -0.2823
18925W        W35399  16.450  14.907   0.679 -0.2003 -0.1189  0.3272
18926W        W35400  14.135   7.975   0.116 -0.0685 -0.0545 -0.0322
18927W        W35401  18.234   9.727  10.200 -0.0435  0.0868 -0.2784
18928W        W35402   4.068   6.649  12.685 -0.0856 -0.1307 -0.0839
18929W        W35403  16.934  14.726   0.801 -0.1280  0.2636  0.2635
18930W        W35404  16.300   3.525   3.027 -0.0377 -0.1245  0.1800
18931W        W35405  10.493  18.453   5.216 -0.0839 -0.0193  0.2039
18932W        W35406   6.333  14.039  13.564 -0.1914  0.0908  0.2583
18933W        W35407  15.488   4.790   2.533  0.0226  0.2699  0.4407
18934W        W35408  17.481   6.840  15.450 -0.1221 -0.1348  0.0244
18935W        W35409  18.567   6.840  13.728 -0.0495 -0.1922 -0.2455
18936W        W35410  10.687  18.359   1.736  0.0965 -0.1356  0.1367
18937W        W35411  12.083  13.804   1.864 -0.0364 -0.2512  0.2222
18938W        W35412  13.710   1.121  13.930  0.0277  0.0943 -0.1068
18939W        W35413  14.642   8.319   1.252  0.0414  0.2255  0.0147
18940W        W35414   4.031   8.247  13.379  0.3268 -0.1764 -0.1842
18941W        W35415   1.306   9.225  11.571  0.1923 -0.0285  0.0243
18942W        W35416   2.165   3.373  14.499  0.1037 -0.0236  0.1219
18943W        W35417  15.532  18.133  10.354 -0.0428  0.0411  0.3066
18944W        W35418  13.662  13.102   2.500 -0.0778 -0.0413 -0.2199
18945W        W35419   4.654   5.310   4.871 -0.0048  0.0349  0.0795
18946W        W35420   8.751  13.081  12.282  0.1230 -0.0432 -0.0663
18947W        W35421   2.603  11.793   4.545  0.1690 -0.0851 -0.0761
18948W        W35422   1.693   8.961   2.709  0.1866  0.1228 -0.1224
18949W        W35423   0.692   1.848  10.826  0.1846  0.1275  0.1097
18950W        W35424   5.051  17.299  12.752  0.1904 -0.2033 -0.2820
18951W        W35425   5.789   8.078   2.018 -0.1405 -0.0867  0.2818
18952W        W35426  18.231   8.764   4.889 -0.0432  0.0378  0.0276
18953W        W35427  18.358   5.516  14.836  0.1005  0.1204 -0.0773
18954W        W35428  17.724   7.785   4.681  0.0075  0.2025 -0.0855
18955W        W35429   6.146   9.447   1.567 -0.1092 -0.1044 -0.0130
18956W        W35430   6.904  17.375   2.760 -0.0200  0.1995 -0.1624
18957W        W35431  16.071   4.745  10.599 -0.0128 -0.1199  0.2619
18958W        W35432  10.380   6.152   2.920  0.2863  0.3283  0.3732
18959W        W35433   7.749   9.398   3.355 -0.0065  0.1415  0.0059
18960W        W35434   1.427   5.500  12.367 -0.0435  0.1529  0.3319
18961W        W35435  10.744   0.896  14.429  0.0820 -0.0578 -0.0398
18962W        W35436   2.800   0.515   3.232 -0.0196  0.0497 -0.1913
18963W        W35437  10.996  13.439   4.453  0.3228 -0.3703 -0.0665
18964W        W35438   9.346   1.900  14.465  0.0094  0.0557  0.2271
18965W        W35439  12.258   0.828  13.054  0.0249 -0.0240 -0.2966
18966W        W35440   1.960   1.710  15.067 -0.0955 -0.0324  0.0916
18967W        W35441   2.803   7.414  13.052 -0.1561 -0.0425 -0.0272
18968W        W35442  12.646   0.147  12.529 -0.0771 -0.2161  0.1344
18969W        W35443  16.909  10.530   1.132  0.0895  0.5594  0.2112
18970W        W35444  13.813   2.384   1.455  0.1046  0.0940  0.2641
18971W        W35445  18.492  10.580  13.242  0.0356  0.1526 -0.0042
18972W        W35446  14.480  18.347  12.802 -0.2127 -0.3326  0.1270
18973W        W35447   4.737   6.221  11.484 -0.2326  0.2106 -0.0681
18974W        W35448  15.859   5.045   0.313  0.2479  0.0323  0.1672
18975W        W35449  18.246   7.568  11.026 -0.0565 -0.0286 -0.1933
18976W        W35450  10.086   6.140   5.246 -0.0160  0.1964  0.1761
18977W        W35451   2.878  15.135   4.959  0.0649  0.1289  0.1467
18978W        W35452   1.030  18.297  15.170 -0.4765  0.0390  0.1706
18979W        W35453  13.765  15.489   0.834 -0.2829  0.0093  0.2203
18980W        W35454   0.604   2.887  14.878 -0.0152 -0.2215 -0.0446
18981W        W35455  16.862   1.124  11.506  0.0569 -0.0850 -0.1493
18982W        W35456   6.409   3.506   2.877 -0.0799  0.1606  0.0070
18983W        W35457  11.328   9.375  14.862 -0.0362 -0.0719  0.2286
18984W        W35458  14.380   5.742   0.937 -0.0127  0.0100  0.1590
18985W        W35459   3.636   7.687  12.559 -0.2639 -0.3046 -0.2621
18986W        W35460   0.334  14.618  11.857  0.0770 -0.1102  0.0150
18987W        W35461  18.090   1.609   3.271  0.0132 -0.0022 -0.0932
18988W        W35462   9.268   9.166   5.564  0.1690  0.0516 -0.1027
18989W        W35463  13.340   2.271   2.610 -0.0793 -0.0686  0.2128
18990W        W35464   8.957  17.603  11.752 -0.0301  0.1071  0.2262
18991W        W35465   4.270   9.902  13.658  0.0295  0.3054 -0.3124
18992W        W35466  17.931  12.816  10.776  0.0667  0.0958 -0.1718
18993W        W35467   2.697   6.226  15.549 -0.2636 -0.2622 -0.2721
18994W        W35468   7.415   5.288   2.590 -0.1098 -0.2564 -0.0745
18995W        W35469  10.809   2.308  10.465  0.3355 -0.1089 -0.0399
18996W        W35470  18.571  13.159   1.473 -0.1423 -0.1376 -0.2059
18997W        W35471  11.685   8.364  11.149  0.5706  0.0203 -0.0852
18998W        W35472  11.993   8.046   2.775 -0.0355  0.0218  0.1251
18999W        W35473  10.386  15.096  13.002  0.0314 -0.1453 -0.3653
19000W        W35474  12.199  10.620  11.347  0.2140 -0.2195  0.2547
19001W        W35475   5.297   7.511  14.023  0.0591 -0.4306  0.1205
19002W        W35476  13.943  12.107   2.350 -0.1217  0.1233  0.2757
19003W        W35477  11.664   6.371   4.332  0.0492 -0.3681 -0.1343
19004W        W35478  13.193   8.312  10.430 -0.2604  0.0555  0.0329
19005W        W35479   3.470   0.768  11.857 -0.2645 -0.0875 -0.0249
19006W        W35480  12.286  10.613   2.225  0.1997  0.1006  0.0699
19007W        W35481   0.529   3.274   1.429 -0.1891  0.1778  0.0175
19008W        W35482   2.168   9.811   4.530  0.2613 -0.0977  0.0318
19009W        W35483  10.083   1.197  10.886  0.5174 -0.1264 -0.0073
19010W        W35484   4.496  17.570   1.096  0.1521 -0.0822 -0.0790
19011W        W35485  12.014  15.316   5.605  0.4023  0.0951 -0.1210
19012W        W35486  16.467   9.176  15.499  0.0879 -0.2547 -0.1531
19013W        W35487   7.483   5.407   3.518 -0.1503 -0.1149  0.0117
19014W        W35488   8.274  13.332   5.059  0.0966 -0.0791  0.1661
19015W        W35489   5.659   2.538  15.420 -0.3085 -0.0051 -0.0698
19016W        W35490   9.598  11.289  15.369  0.2397  0.4600  0.2607
19017W        W35491  15.245  16.582  13.526 -0.2239 -0.1461  0.0463
19018W        W35492   1.593  12.421  12.648 -0.0866 -0.3129 -0.6427
19019W        W35493  10.781  11.200   0.438  0.1553 -0.2568 -0.1228
19020W        W35494   8.115  15.999   6.382 -0.4426  0.0489  0.1993
19021W        W35495  10.805   3.675   3.739 -0.2669 -0.0243  0.1840
19022W        W35496  12.710   4.094   4.117  0.1741  0.1752  0.0463
19023W        W35497   1.247  17.579   3.224 -0.0824 -0.0202 -0.2377
19024W        W35498   4.262  15.016  11.046 -0.2565 -0.2352  0.2503
19025W        W35499  10.075   8.171   1.769  0.1936 -0.1761  0.1408
19026W        W35500   1.155   9.290   5.070 -0.1077 -0.0950  0.0424
19027W        W35501   6.348  16.249   1.635  0.3002  0.1242 -0.2357
19028W        W35502   7.343  10.637   0.400 -0.0017 -0.1101 -0.0737
19029W        W35503  10.825  10.367   1.416  0.0395 -0.0326  0.1009
19030W        W35504   7.851  15.334   3.147  0.0635 -0.0133  0.0551
19031W        W35505  12.229   8.889  13.642 -0.2460  0.1491  0.1962
19032W        W35506  16.914  12.644   4.695  0.0804  0.0570 -0.1275
19033W        W35507  10.108  11.736  12.674  0.1220 -0.1859  0.1148
19034W        W35508  13.195   5.838   0.923 -0.1058 -0.1753  0.4674
19035W        W35509  11.907   9.758   5.311 -0.0985 -0.2993 -0.1388
19036W        W35510   1.802  13.822  12.667 -0.0307 -0.2650 -0.0587
19037W        W35511  10.901  14.214   2.519 -0.1723 -0.2360  0.1440
19038W        W35512   7.234   3.817  11.298  0.1724 -0.2497  0.1691
19039W        W35513   5.489   9.524  15.554 -0.5723 -0.1084  0.0006
19040W        W35514  12.579  13.059   4.819 -0.2358 -0.0630 -0.0903
19041W        W35515  15.812  11.079   1.926 -0.0429  0.1544  0.0254
19042W        W35516   1.168   8.822   1.274 -0.1378 -0.3642 -0.0139
19043W        W35517   5.942   3.175   2.018  0.0725  0.0887  0.1137
19044W        W35518  11.143   3.189  14.381 -0.0294  0.0563  0.2640
19045W        W35519  15.551   3.919   1.798  0.5506 -0.3594  0.0132
19046W        W35520  14.396   9.994   3.775  0.1285  0.0816  0.3976
19047W        W35521  12.481  10.418  15.018  0.1444  0.0558 -0.4047
19048W        W35522  10.482  13.170  13.101  0.0602 -0.2874 -0.0138
19049W        W35523  16.486   8.107   3.258  0.0608  0.0436 -0.1244
19050W        W35524  16.526  17.317  10.304  0.1270  0.1812  0.0112
19051W        W35525   4.719   7.290  10.782 -0.1146  0.2554 -0.0835
19052W        W35526  16.181   2.308  13.422  0.0628  0.4133  0.3290
19053W        W35527   0.915   4.254   1.274 -0.1866  0.3618 -0.0105
19054W        W35528  13.222  12.555  13.919 -0.0055  0.1950  0.2227
19055W        W35529  14.736  14.122   0.357  0.0501  0.3131  0.0797
19056W        W35530  10.126   7.957  10.842 -0.0615 -0.2213 -0.1852
19057W        W35531   8.105   1.035   2.377  0.1302 -0.1797  0.0887
19058W        W35532  17.331  14.230   2.494 -0.0367  0.1753 -0.2873
19059W        W35533   5.264   0.315   1.275  0.0204  0.0313 -0.0357
19060W        W35534   1.919  13.118  15.459  0.3650  0.1466  0.2714
19061W        W35535  11.744  13.715   5.044 -0.0757 -0.3820  0.0187
19062W        W35536   5.737  15.415   5.391 -0.0041  0.1868  0.0468
19063W        W35537   2.840   0.317  13.635 -0.3662 -0.3698 -0.0672
19064W        W35538   9.106  10.708  12.761  0.0281  0.2220  0.1130
19065W        W35539  16.060   9.433   3.555  0.0249  0.0689  0.0080
19066W        W35540  17.165  13.229  15.344 -0.0353  0.0431 -0.2919
19067W        W35541  14.899  13.341   5.508 -0.0388  0.3021  0.0716
19068W        W35542  14.362   4.577   1.526  0.1452 -0.1600  0.3075
19069W        W35543   8.080   7.377  10.638 -0.4424 -0.3147  0.3920
19070W        W35544  11.857  17.597   1.453  0.1524 -0.1676 -0.0487
19071W        W35545  16.011  10.223  10.406  0.2165  0.2232  0.1817
19072W        W35546   8.243  10.215  14.130  0.0984 -0.1227 -0.2280
19073W        W35547  13.841  10.324  12.448  0.2920  0.0107  0.0024
19074W        W35548  16.840   1.466   0.257  0.0554 -0.1313 -0.0808
19075W        W35549   7.173   1.621  11.120 -0.0305  0.3045 -0.3011
19076W        W35550  10.489   3.769  15.567 -0.2738  0.0245 -0.1077
19077W        W35551  15.820   8.409   4.971 -0.0749 -0.2772  0.1299
19078W        W35552   7.764  13.847  13.800  0.0562 -0.2569 -0.0040
19079W        W35553   6.390  10.238  10.931  0.0783 -0.0297  0.0541
19080W        W35554  18.016   2.082  11.357 -0.1077  0.0914  0.1150
19081W        W35555   7.471  14.259  12.788  0.0614 -0.1380  0.3176
19082W        W35556   3.018  12.790   2.910 -0.1769 -0.2865  0.1931
19083W        W35557   6.868   4.437  14.685  0.1708 -0.0276 -0.0426
19084W        W35558  13.550   7.934  15.481  0.1995  0.2582 -0.0568
19085W        W35559   0.734  14.893  13.756  0.4424 -0.1946  0.1312
19086W        W35560  10.936   1.466   5.962 -0.2412 -0.0241  0.1065
19087W        W35561  14.940  17.624   4.057  0.1934 -0.0784 -0.1457
19088W        W35562   6.582  14.956   0.610  0.0491 -0.5720  0.0603
19089W        W35563  10.621  16.854   3.446 -0.3338 -0.2495 -0.0285
19090W        W35564  13.884  14.875   5.678 -0.0859  0.0378  0.0599
19091W        W35565  10.304   7.230  13.807 -0.1904 -0.1227 -0.1304
19092W        W35566  15.208  15.407   5.499 -0.1854  0.0386  0.0778
19093W        W35567   8.956   3.554   2.342 -0.1683  0.2037 -0.1485
19094W        W35568   5.488   8.520  11.693  0.0435 -0.1424 -0.1243
19095W        W35569   1.231   9.054  12.047  0.1336  0.0143 -0.1612
19096W        W35570  11.464   7.147  11.952 -0.3460 -0.1033  0.1143
19097W        W35571  15.963   9.743  12.374  0.0695  0.2001  0.0014
19098W        W35572   1.367   0.403  14.730 -0.2341 -0.1607 -0.2387
19099W        W35573  11.124  14.771   1.827 -0.2548 -0.0585 -0.0571
19100W        W35574  10.099   6.087   1.959 -0.1260 -0.0625  0.0250
19101W        W35575  17.947   6.754  12.189 -0.0429 -0.2587 -0.0624
19102W        W35576  15.893  14.447   3.748  0.1658 -0.1124  0.0247
19103W        W35577   4.560  10.023  12.885 -0.0263  0.0205  0.0348
19104W        W35578  13.379   5.571   1.870 -0.1343  0.0600 -0.0391
19105W        W35579  12.350   0.625   5.090 -0.4772  0.0461 -0.1070
19106W        W35580   3.047   8.327  12.210  0.1047 -0.1797 -0.0325
19107W        W35581   3.823   6.120   1.904 -0.0487  0.0586  0.3544
19108W        W35582  14.113   0.975  13.432  0.2104  0.1524 -0.2247
19109W        W35583   5.272   5.412  12.867  0.4565 -0.1309  0.0375
19110W        W35584  16.511   1.195   0.583  0.0039 -0.1306  0.0106
19111W        W35585  11.484   3.501  12.926 -0.2465 -0.1055 -0.0815
19112W        W35586   9.554   0.596  10.786 -0.0448  0.1115 -0.2331
19113W        W35587   1.972  17.579  12.101  0.0424 -0.0722  0.0160
19114W        W35588  14.944   1.271   1.896 -0.1140  0.2574 -0.2183
19115W        W35589  16.648  12.111   1.749  0.3869 -0.1922 -0.2261
19116W        W35590   7.006  17.187   1.736  0.1909 -0.0664 -0.1801
19117W        W35591  16.878   2.946   3.361  0.1950 -0.0727  0.0505
19118W        W35592   3.919   2.941   4.461  0.1599 -0.0021 -0.0230
19119W        W35593   5.669  17.386   1.704  0.0884 -0.0454  0.0970
19120W        W35594  13.181  11.549  15.174 -0.0152 -0.0176 -0.1527
19121W        W35595  14.298   2.244   5.255 -0.0351 -0.2221 -0.1989
19122W        W35596   1.881   5.454  10.852 -0.0169  0.0818 -0.0681
19123W        W35597   4.870  11.465  13.286  0.2780  0.3697  0.2562
19124W        W35598  17.433  12.868   3.261 -0.2491 -0.2164  0.0771
19125W        W35599   8.227  10.397   4.262 -0.0406  0.3369  0.0126
19126W        W35600   8.110  18.649  14.564  0.0435 -0.1188  0.1792
19127W        W35601   8.700  18.445   2.289  0.3250 -0.0206 -0.0048
19128W        W35602   9.640  18.562   3.998 -0.3438 -0.0945  0.1634
19129W        W35603   4.228  11.132   2.841 -0.0399 -0.0384  0.3956
19130W        W35604  12.633  17.079   5.910  0.2511  0.0276  0.2653
19131W        W35605   4.783   6.985   4.506  0.1533  0.2749  0.0662
19132W        W35606  15.975   9.910   3.453 -0.0505 -0.1442  0.2115
19133W        W35607   5.194   1.342  11.202  0.3533  0.2863  0.0235
19134W        W35608   1.261   1.854   1.242 -0.2310 -0.0852 -0.0424
19135W        W35609  18.192  17.113   3.325 -0.0705 -0.1726 -0.1061
19136W        W35610   4.042  12.085   2.654 -0.2407 -0.2175  0.0115
19137W        W35611   4.454   2.270  11.546 -0.1836 -0.0228  0.0815
19138W        W35612  15.187  12.084  11.100  0.0390 -0.4502  0.3165
19139W        W35613   9.715  11.766  11.606 -0.0861 -0.1679  0.1294
19140W        W35614   9.089   6.978   4.041 -0.1338  0.1478  0.3169
19141W        W35615  16.222  16.086   2.990  0.5066  0.1901  0.1319
19142W        W35616   2.520  13.551   2.231 -0.0312 -0.0399  0.4323
19143W        W35617   9.740   3.705   0.482  0.2315 -0.1450 -0.2450
19144W        W35618   0.229  14.148  13.139 -0.2368  0.4081 -0.2203
19145W        W35619  18.481  12.775   4.932  0.1208 -0.0198  0.1106
19146W        W35620   8.612   1.097   2.273 -0.0869 -0.2583  0.1162
19147W        W35621  16.552   5.436   2.249 -0.0724  0.1073 -0.3805
19148W        W35622   4.937  16.321   1.041 -0.1255 -0.0538 -0.0485
19149W        W35623   0.144  12.163  14.770  0.0988 -0.1392  0.0930
19150W        W35624   2.991   1.240  13.042  0.2383 -0.0488 -0.0537
19151W        W35625  13.353  12.090   4.379 -0.3964  0.3273  0.4383
19152W        W35626   0.081  15.892   3.793  0.0351  0.2305  0.0652
19153W        W35627   1.925   5.215  10.340  0.0926 -0.1961  0.0947
19154W        W35628   5.990   7.720  15.106 -0.0590  0.1169  0.2070
19155W        W35629   7.037   0.455  13.429  0.2113  0.0886  0.0619
19156W        W35630  14.359  14.779  11.603 -0.3772 -0.2139 -0.1444
19157W        W35631   2.111  10.638   0.683  0.0034 -0.2210  0.0093
19158W        W35632   3.617   3.014  13.578  0.0967  0.2537  0.0306
19159W        W35633   7.728  17.368   5.129 -0.0078 -0.0147  0.0177
19160W        W35634  10.114  10.249  14.664 -0.2149 -0.2301 -0.0609
19161W        W35635  17.292  12.409  14.001  0.0369 -0.2374 -0.0106
19162W        W35636   0.420   3.099   4.047  0.0281  0.1734  0.1329
19163W        W35637   7.454   8.143   4.629 -0.2297  0.2232  0.0007
19164W        W35638  11.010   3.238  13.126  0.0452  0.0054 -0.0435
19165W        W35639   7.392   7.725  14.108 -0.2994  0.0068  0.4313
19166W        W35640   1.703   8.400  15.077  0.0921 -0.0785 -0.3662
19167W        W35641  16.806   6.668   5.851  0.1533  0.4447 -0.1183
19168W        W35642  14.747   5.566   1.664  0.0089  0.0984  0.0983
19169W        W35643  10.338   9.600   1.424  0.0488  0.0294 -0.0091
19170W        W35644   2.777   4.478   3.544 -0.0604  0.1697 -0.1217
19171W        W35645   4.866   4.385   2.316 -0.0418  0.0232 -0.2630
19172W        W35646  16.242  13.806  13.970 -0.2184 -0.0974 -0.1148
19173W        W35647  18.103  15.342  14.362  0.1875 -0.1605 -0.4862
19174W        W35648  13.511  11.102  12.705  0.0238 -0.1681  0.1652
19175W        W35649  16.442   6.355  14.935  0.2112 -0.1049 -0.2336
19176W        W35650  16.786   5.382  11.219 -0.0885  0.0259  0.2485
19177W        W35651   7.132   5.640   0.792 -0.0021 -0.0105 -0.0591
19178W        W35652  11.112  11.550   2.391 -0.2183  0.0761 -0.0423
19179W        W35653  12.684   2.971  10.317  0.2979  0.2379  0.3318
19180W        W35654  17.367   5.395   0.954 -0.1848  0.1298  0.2193
19181W        W35655  13.959  15.790  11.914  0.1915 -0.2980  0.1736
19182W        W35656   7.678  17.588   4.564 -0.0110 -0.0930 -0.0499
19183W        W35657  13.285  18.024  12.457 -0.0481  0.0398 -0.0847
19184W        W35658  12.114   5.470   2.353 -0.1530  0.1046 -0.3212
19185W        W35659  15.367   9.203   0.120  0.1434 -0.0359  0.2144
19186W        W35660   1.911   2.830  11.020 -0.0328  0.0061  0.0035
19187W        W35661   6.218   6.895   3.954 -0.0713  0.2433  0.0932
19188W        W35662  14.440   7.287   3.856  0.0360  0.0088  0.1837
19189W        W35663  10.577  11.588   0.802 -0.1121 -0.0759 -0.3301
19190W        W35664  18.730  13.665   2.271  0.0124 -0.1638 -0.0714
19191W        W35665   2.154  17.001   0.901 -0.0350  0.0668 -0.0064
19192W        W35666   0.036   6.208   0.553  0.3333  0.0809  0.0514
19193W        W35667  13.448   6.148  10.417 -0.0010 -0.0007  0.0453
19194W        W35668  17.627  18.281   2.200 -0.0299 -0.2264  0.3004
19195W        W35669   0.385   5.487  14.693 -0.2549 -0.0335 -0.1235
19196W        W35670   1.060   6.977  10.914 -0.0786 -0.1903  0.2569
19197W        W35671  11.389   4.881   5.764  0.0306  0.1873 -0.0899
19198W        W35672  17.906   6.957  13.182 -0.2610  0.0243 -0.0630
19199W        W35673  13.946   9.170   4.147  0.1209 -0.0703 -0.2175
19200W        W35674   6.468  12.222   0.570  0.1729 -0.0370 -0.1690
19201W        W35675  17.408  14.957  11.956  0.0181  0.1818 -0.0446
19202W        W35676  12.425   9.772  13.503 -0.1496  0.3305  0.2673
19203W        W35677  12.533  14.998  12.206 -0.0292 -0.4610 -0.1695
19204W        W35678  12.313  17.762   0.132 -0.1408  0.2887  0.0955
19205W        W35679  15.262   1.040  11.879  0.2531  0.1193  0.1365
19206W        W35680   7.508  16.926   0.218  0.0220  0.1143  0.3645
19207W        W35681  14.398   1.494  14.975 -0.2654 -0.2089  0.1220
19208W        W35682   6.868   1.994  11.574 -0.1982  0.1201  0.1962
19209W        W35683  12.334   4.174  11.793 -0.0375 -0.2884  0.0958
19210W        W35684  10.875  11.237  14.037 -0.0084 -0.3276 -0.0630
19211W        W35685   2.440  10.379  12.598 -0.1407 -0.1671  0.3076
19212W        W35686   8.691  12.457   3.365  0.0501  0.0469 -0.2339
19213W        W35687   5.238   8.220  12.902 -0.2588  0.0168 -0.1984
19214W        W35688   0.546   3.754   2.373  0.4015 -0.0142 -0.1232
19215W        W35689  18.087   3.331   2.673 -0.3414 -0.0530  0.0964
19216W        W35690   8.883   5.440   0.835  0.0095  0.0017 -0.0798
19217W        W35691  16.938   9.440  13.265  0.1787  0.0915 -0.0454
19218W        W35692  17.734   0.566  12.831 -0.0868 -0.1403 -0.2415
19219W        W35693   5.958  11.730   3.452  0.0693  0.2331 -0.0944
19220W        W35694   3.738   6.449  13.482 -0.0949 -0.1541  0.2238
19221W        W35695   7.267  15.928  11.575  0.1029 -0.2148  0.0887
19222W        W35696  14.638  10.994  11.974 -0.1490  0.0482 -0.1159
19223W        W35697  14.273   5.799   4.173 -0.1173 -0.1769  0.0586
19224W        W35698  10.414  12.774   2.503 -0.1591 -0.1680 -0.2222
19225W        W35699   4.369   9.449   2.898 -0.1303 -0.3894  0.1681
19226W        W35700  14.755  11.960  12.198  0.0743 -0.0150  0.0227
19227W        W35701   3.963  14.381   1.382 -0.1635  0.3073  0.1090
19228W        W35702   1.410  17.330  11.504 -0.0393  0.2309  0.0066
19229W        W35703  18.256   4.565   0.795 -0.2047  0.0692 -0.3072
19230W        W35704   7.257   8.738   0.309 -0.2284  0.0305 -0.1556
19231W        W35705  17.847  15.695  12.353  0.3592  0.2228  0.0769
19232W        W35706  16.758   6.315  15.367 -0.1276 -0.1110 -0.0501
19233W        W35707  17.835  14.324   1.261  0.0914 -0.0298  0.0218
19234W        W35708   7.135   5.822   0.190  0.0834  0.0615 -0.1227
19235W        W35709   3.182   4.619   4.369  0.2166 -0.2413 -0.0888
19236W        W35710   3.217   2.624   3.986 -0.1442 -0.1409 -0.1780
19237W        W35711  10.430   4.495  11.665 -0.0925 -0.2878  0.3339
19238W        W35712  11.933  11.973  15.264  0.0755 -0.1794 -0.2208
19239W        W35713  17.990   5.642  14.467 -0.1547  0.1162  0.1043
19240W        W35714  14.429  15.082   4.930  0.0447 -0.0753  0.0492
19241W        W35715   2.230   9.184  13.719 -0.1189 -0.1261  0.2634
19242W        W35716  14.856  14.054   2.621  0.1122  0.0808  0.1709
19243W        W35717  18.153   5.056   0.185  0.0278  0.0610 -0.2297
19244W        W35718   1.090   6.440   2.888  0.2997  0.1304 -0.1886
19245W        W35719  17.909   2.173   2.949 -0.1653  0.0767 -0.1395
19246W        W35720  13.287   3.779   3.511  0.0407  0.2092  0.0125
19247W        W35721   3.039  17.829   0.894 -0.2109 -0.1899  0.0935
19248W        W35722   5.952   4.794   3.813  0.2122  0.1139 -0.0169
19249W        W35723  17.071  17.698   9.674  0.1476 -0.0116 -0.0571
19250W        W35724  18.287   9.192  15.465  0.0170  0.3202 -0.1719
19251W        W35725   3.396   7.589  10.479  0.3804  0.2611  0.0405
19252W        W35726  14.120   6.511   0.229  0.1387  0.2623 -0.2038
19253W        W35727  10.643  11.272   2.090 -0.3133 -0.2071  0.1202
19254W        W35728   8.287   8.075  12.025  0.2506  0.1508 -0.0466
19255W        W35729   0.205  11.436  11.489 -0.0281  0.2454  0.0521
19256W        W35730  13.273   0.400   0.241 -0.0905  0.1519  0.0551
19257W        W35731  14.342  15.312  11.190 -0.1310 -0.1896  0.1634
19258W        W35732  15.988   0.578  14.659 -0.1405 -0.1029  0.0987
19259W        W35733  18.151   2.558  11.517 -0.3092 -0.1278 -0.1674
19260W        W35734   9.110   3.182  13.580 -0.2616  0.1388 -0.1099
19261W        W35735   3.401   1.892  14.599  0.2703 -0.0703 -0.2662
19262W        W35736  17.302   7.695   5.036 -0.2518 -0.0899 -0.1788
19263W        W35737   5.097  11.560   4.041  0.1311 -0.1162 -0.0214
19264W        W35738  15.366   1.163   3.171 -0.2794  0.0625 -0.1668
19265W        W35739   3.854  13.372  15.055  0.0947 -0.1114  0.3166
19266W        W35740   7.388   6.616   1.655  0.0994  0.1792  0.2167
19267W        W35741   5.304   6.703  10.533 -0.0510 -0.0648 -0.1355
19268W        W35742   9.295  13.217  15.513 -0.0048  0.3922  0.3399
19269W        W35743   7.322   3.413  10.398  0.0462  0.0641  0.0479
19270W        W35744   9.545  13.362   2.368  0.0588 -0.0551 -0.0975
19271W        W35745   7.556  12.160   2.330  0.1064 -0.1988 -0.4676
19272W        W35746   9.845  12.560  12.320  0.1847 -0.1027  0.1270
19273W        W35747  10.467   1.344  12.194  0.1385 -0.2711 -0.1509
19274W        W35748   5.080  17.835   1.663  0.2659  0.2936  0.3103
19275W        W35749  11.916  17.714  13.634  0.0925 -0.1282 -0.0014
19276W        W35750  18.062  10.434   3.799 -0.1319  0.1690 -0.1298
19277W        W35751  12.541  11.494  14.532 -0.1660 -0.1201  0.1071
19278W        W35752  10.028   6.418  15.209  0.1177 -0.0299 -0.1439
19279W        W35753  10.743  13.852   4.227  0.1243  0.2068 -0.0356
19280W        W35754   5.712   6.231   2.363  0.1022 -0.1517  0.0716
19281W        W35755  18.484  14.098  14.517 -0.2555  0.0120 -0.0235
19282W        W35756  15.053   8.690   4.093 -0.0737  0.4785  0.0590
19283W        W35757  18.466  15.425  12.065 -0.2129  0.2010  0.1088
19284W        W35758   4.353   3.425  13.916 -0.2945 -0.0298 -0.3212
19285W        W35759  13.380   9.431  13.943  0.0421  0.0700 -0.6543
19286W        W35760   6.760   3.294  15.370 -0.1898 -0.2889  0.3778
19287W        W35761   6.160  12.380   4.689 -0.0843 -0.1461  0.1150
19288W        W35762   3.579   7.154  12.712  0.2897 -0.1274  0.3600
19289W        W35763   3.511  11.116   4.708 -0.0179  0.0812  0.0979
19290W        W35764  12.516  12.062  13.962  0.0892  0.3287  0.0656
19291W        W35765   0.007  10.721   3.249 -0.0570  0.1544  0.4201
19292W        W35766   6.758  14.361  11.055  0.2399  0.0333 -0.3105
19293W        W35767   3.452   2.108  12.188 -0.0188 -0.1431  0.1958
19294W        W35768  17.534   2.106   3.311 -0.1716  0.1164 -0.1241
19295W        W35769  17.226   0.190  11.886 -0.0863 -0.0280 -0.0583
19296W        W35770   7.932  15.068   3.617  0.2396 -0.0122  0.0919
19297W        W35771   6.795   6.215  10.718 -0.3104  0.1124  0.2959
19298W        W35772  11.910   8.365   2.414  0.0887  0.0069 -0.3461
19299W        W35773   5.041  13.102  14.341  0.0599 -0.1961  0.1031
19300W        W35774   3.263   1.196  12.646 -0.0463 -0.0499  0.3052
19301W        W35775   1.572   2.095  12.851 -0.0429 -0.0465 -0.0367
19302W        W35776   2.190  12.421   1.300 -0.1965 -0.0594 -0.1838
19303W        W35777  11.837   0.623  12.883  0.0935  0.0065 -0.0515
19304W        W35778   8.932   7.818   0.774  0.0210  0.1215  0.2320
19305W        W35779  11.042   2.007  13.536  0.0958 -0.1926  0.1604
19306W        W35780   7.642   1.632  14.308 -0.0316  0.0041  0.4455
19307W        W35781   4.397   3.554   0.169 -0.1373  0.4442 -0.0032
19308W        W35782   0.273  16.087  15.052 -0.2888  0.0932 -0.2087
19309W        W35783   9.944  10.248   1.663 -0.3050 -0.1321  0.0885
19310W        W35784   9.812  12.218   4.736  0.0543 -0.2011  0.1275
19311W        W35785   6.714  11.453   0.143  0.1302  0.2058  0.2183
19312W        W35786  10.646   8.848  13.597  0.1421  0.2274  0.1544
19313W        W35787  18.611  12.869   2.731  0.1666  0.1388 -0.0697
19314W        W35788  16.809  17.619   1.254  0.1795 -0.0807 -0.3727
19315W        W35789  16.610  18.593  11.498  0.0406  0.2132  0.1767
19316W        W35790   1.825  12.901  14.869 -0.0126 -0.0050 -0.2254
19317W        W35791  11.062   5.008   2.434  0.4284  0.2613  0.2171
19318W        W35792  16.653   2.932   1.563  0.3796  0.0710 -0.1187
19319W        W35793   8.837   1.774   4.169 -0.1617 -0.0215  0.0075
19320W        W35794  13.526   9.969  12.121  0.2431  0.0237  0.1511
19321W        W35795  16.370  13.948   0.530 -0.0229  0.0578  0.0162
19322W        W35796  13.520   6.826   1.903 -0.2393  0.0884  0.1401
19323W        W35797  14.817  13.137  13.084  0.3772  0.0912  0.0103
19324W        W35798  11.732   5.656   1.466 -0.2219 -0.2195  0.0902
19325W        W35799   6.782  17.484   5.100 -0.2690  0.2616 -0.1160
19326W        W35800   6.105  10.765   4.175 -0.0924 -0.0197 -0.0218
19327W        W35801   1.875   4.035   0.062  0.1364 -0.1081  0.1084
19328W        W35802   6.724  17.796  10.431  0.0602  0.1217 -0.0247
19329W        W35803  10.027   4.082  12.888 -0.1119 -0.3702  0.0328
19330W        W35804   8.469  11.483  11.154  0.0150 -0.0762  0.0674
19331W        W35805  17.627  11.370   3.149  0.0605  0.0138 -0.0668
19332W        W35806   5.506   6.040   3.798  0.0484 -0.3177 -0.0558
19333W        W35807  16.369   5.103  15.016  0.2008  0.2153 -0.2147
19334W        W35808   1.040   0.984  12.381  0.3686  0.0892  0.1518
19335W        W35809   1.260   5.074   1.333 -0.1902 -0.2206 -0.0533
19336W        W35810  12.126   6.933  11.821 -0.1455  0.0269 -0.2227
19337W        W35811  15.634  16.789  10.107 -0.2456 -0.0071  0.2367
19338W        W35812   3.592   0.350   4.245  0.0849  0.0293 -0.0850
19339W        W35813  13.672   5.491   3.601 -0.3630  0.1925 -0.0653
19340W        W35814  12.061  10.104   4.939  0.2194  0.1588 -0.2411
19341W        W35815   6.023  15.537   2.459  0.2150 -0.2935 -0.0812
19342W        W35816  11.018   6.840   0.981 -0.0854 -0.3331  0.1967
19343W        W35817   4.120   9.717  15.506 -0.0780 -0.1087 -0.2062
19344W        W35818  14.172  18.003   4.021 -0.1192 -0.2312  0.1832
19345W        W35819   1.290   4.373   0.254  0.0299 -0.0530 -0.1729
19346W        W35820   9.593  15.548  13.375 -0.0640  0.2372 -0.0568
19347W        W35821   6.691   9.036   3.049  0.0619  0.2033 -0.0919
19348W        W35822   7.845  12.062   3.108 -0.2108 -0.1194  0.1298
19349W        W35823   1.538   5.313   3.888  0.1753 -0.0821 -0.0033
19350W        W35824   3.071  17.833  13.888 -0.0965  0.0348  0.1333
19351W        W35825   5.532  17.526   4.282  0.0997 -0.3247 -0.3055
19352W        W35826   1.879   7.466  15.558  0.1527  0.2506  0.0412
19353W        W35827  10.570  14.714   3.754 -0.4855  0.2093  0.2633
19354W        W35828  14.872  13.036  12.586 -0.1599 -0.3011  0.1779
19355W        W35829   0.699  10.774  10.603 -0.1849 -0.1344  0.4143
19356W        W35830   4.249   4.893   0.264  0.0146 -0.0056 -0.3172
19357W        W35831  12.023  12.843   1.591 -0.2257 -0.1109  0.2764
19358W        W35832   6.028   0.059  14.210 -0.0852 -0.1963  0.0003
19359W        W35833  11.549   7.335   0.325  0.0575  0.0697 -0.1598
19360W        W35834  13.753  16.742   4.656  0.1315  0.0164 -0.0422
19361W        W35835  18.413   8.576  11.555 -0.0035 -0.2043  0.0509
19362W        W35836   5.243  14.643   2.028  0.2126 -0.0436  0.1519
19363W        W35837   1.973   9.104   5.334  0.0384 -0.1817  0.0227
19364W        W35838   2.455   8.577   1.726 -0.1318 -0.2098  0.2112
19365W        W35839   2.409   9.095  11.882  0.2375 -0.1070 -0.3945
19366W        W35840  15.296   4.922   0.798 -0.0817  0.3238  0.1587
19367W        W35841  15.940   7.980   0.327 -0.0359  0.3710 -0.0683
19368W        W35842   4.481   9.900   9.385 -0.0116 -0.0555  0.1799
19369W        W35843   5.521   6.065  13.520  0.1028  0.1377  0.1200
19370W        W35844  11.080   5.583  11.518 -0.0010 -0.1735 -0.0321
19371W        W35845  10.145   0.266  13.961  0.2665 -0.0317 -0.0635
19372W        W35846   5.474   2.735   4.439 -0.0883 -0.0707  0.0715
19373W        W35847  11.450  17.506   0.302  0.0320 -0.1129  0.0579
19374W        W35848   7.154   4.179  10.552 -0.1392 -0.0151 -0.2011
19375W        W35849   1.439   7.198   4.029 -0.2672 -0.1338 -0.0028
19376W        W35850  11.873   6.089  14.521  0.3451 -0.2453  0.1057
19377W        W35851   4.596  12.318  14.545  0.1939 -0.2115 -0.0032
19378W        W35852  13.868   2.055   1.077  0.0674 -0.1708  0.0840
19379W        W35853  16.069  13.533  15.171 -0.1097 -0.0044  0.1525
19380W        W35854  13.377   7.551  11.717  0.1414  0.0183  0.1995
19381W        W35855  17.912  11.380   1.393 -0.4419 -0.1014 -0.1978
19382W        W35856   0.159  18.044   4.629 -0.2851  0.0012  0.1196
19383W        W35857  10.783   5.951  13.818  0.2654  0.1906 -0.2758
19384W        W35858  10.539   6.282  15.248  0.1305  0.0362  0.1630
19385W        W35859   9.005   4.107  11.151  0.0993  0.1223  0.0515
19386W        W35860   2.323  10.454   5.234 -0.1339  0.2127 -0.0084
19387W        W35861   5.437   4.473   4.308  0.1183  0.0533 -0.0190
19388W        W35862   2.170  16.400  12.419  0.0817  0.0023 -0.0733
19389W        W35863  18.620   3.573  15.547 -0.1443  0.1124  0.0648
19390W        W35864   7.878  17.027   0.590 -0.1806 -0.1235 -0.2577
19391W        W35865   3.475  14.800   9.406 -0.0013  0.4583  0.0767
19392W        W35866   5.760  10.951  12.574 -0.0016  0.1364 -0.0267
19393W        W35867  14.377  11.331  12.729  0.0371 -0.0218 -0.2199
19394W        W35868  11.900   8.738  14.485  0.3234 -0.0939  0.2651
19395W        W35869  16.835   3.018  11.833 -0.2674  0.1388  0.1055
19396W        W35870   0.727   9.875   4.387 -0.1386 -0.1036  0.3897
19397W        W35871  11.941   6.419   2.528 -0.0027 -0.1341 -0.0813
19398W        W35872  11.058  15.312   4.585  0.2141 -0.0195  0.0383
19399W        W35873   4.951  12.114  12.400  0.0126 -0.1049  0.1776
19400W        W35874  14.659   1.936   4.389 -0.1583 -0.2851  0.0079
19401W        W35875  14.867  11.331  12.922  0.1357 -0.1302  0.1056
19402W        W35876  12.308  12.326  14.418  0.2603  0.0336  0.1422
19403W        W35877   2.412  18.137   1.958  0.1934  0.4247 -0.2242
19404W        W35878  10.459   0.713  13.559  0.3407 -0.1224 -0.2651
19405W        W35879   9.314   7.902  10.443  0.2557  0.0350 -0.1415
19406W        W35880  13.936  16.347   4.109 -0.3884  0.0941 -0.1495
19407W        W35881  12.288  12.835   2.053  0.0334  0.0494 -0.1062
19408W        W35882  14.934  14.540  14.690 -0.0635  0.3734  0.1455
19409W        W35883  14.817   4.121  14.792  0.2557 -0.1237  0.2517
19410W        W35884   3.805  11.417   3.843  0.1523  0.0775  0.0546
19411W        W35885   7.851   0.913  15.163  0.0216  0.3199 -0.3475
19412W        W35886   4.748   1.681   5.714 -0.1623 -0.2012 -0.0761
19413W        W35887   2.489  10.998  15.234  0.0591 -0.0803  0.0947
19414W        W35888   8.868  17.021  12.360 -0.2284  0.2389 -0.0883
19415W        W35889  13.656   4.668   2.724  0.0247 -0.2157 -0.3278
19416W        W35890   1.892   1.162  11.318 -0.1580 -0.0589  0.0856
19417W        W35891  17.062   1.917  12.829  0.0617  0.0716  0.0669
19418W        W35892   9.773   8.208   0.982 -0.0319  0.0923  0.1754
19419W        W35893   0.434   0.420   3.586  0.1718  0.3116 -0.1830
19420W        W35894   6.525  18.489  12.409  0.2924 -0.1220  0.1123
19421W        W35895   5.350   3.421   3.113  0.1277 -0.1943 -0.3658
19422W        W35896  17.270   4.384  13.930 -0.0177  0.3667  0.2817
19423W        W35897  16.531   2.764  12.787  0.1776 -0.4666 -0.0619
19424W        W35898   6.712  12.703   2.965 -0.2272 -0.2723 -0.0500
19425W        W35899  16.807   0.040  12.977  0.2452  0.1751 -0.3677
19426W        W35900   6.144   2.727   1.961  0.0369  0.1305 -0.3706
19427W        W35901   8.130  18.603   2.952  0.0247  0.2103  0.1618
19428W        W35902   1.071  11.542   2.925 -0.2319  0.1310 -0.1000
19429W        W35903   5.766   0.865   4.441  0.0579  0.1510 -0.0494
19430W        W35904  16.210  13.156  13.912  0.1065  0.2226  0.0161
19431W        W35905  12.108  14.070  10.257  0.4889  0.0926 -0.0272
19432W        W35906   6.728  14.435   5.316 -0.0093  0.1031 -0.0640
19433W        W35907  15.595   4.070   0.110  0.0798 -0.3005 -0.0732
19434W        W35908  15.936  11.918   5.060 -0.0683  0.0696  0.0460
19435W        W35909   7.778   2.493   1.302 -0.0091  0.2025 -0.1201
19436W        W35910  17.921   7.467  13.148 -0.1288  0.2765  0.0309
19437W        W35911   2.939   8.357  14.530 -0.0606  0.2389 -0.3425
19438W        W35912   3.960   3.272  11.093  0.1177 -0.3967 -0.3180
19439W        W35913  13.046  15.754   2.390  0.0415  0.3190  0.1314
19440W        W35914   2.512  12.313   0.908 -0.0564 -0.0769  0.1399
19441W        W35915  11.291   9.276  11.998  0.0031 -0.0093  0.1132
19442W        W35916  17.285  16.181   4.992 -0.1141  0.1853 -0.3377
19443W        W35917   5.999   3.251   4.928 -0.0724 -0.4077 -0.2073
19444W        W35918  16.336  17.846   4.337 -0.0584 -0.1420  0.1065
19445W        W35919   2.278   4.185   5.024  0.1756  0.0704  0.0456
19446W        W35920  17.162  13.301  11.035 -0.2910 -0.1064 -0.2228
19447W        W35921   5.612  17.773   0.774  0.0204  0.2880 -0.2375
19448W        W35922   7.317   4.614   0.774 -0.2057 -0.4059  0.3395
19449W        W35923  14.169   2.824  10.011  0.0959 -0.1701  0.0973
19450W        W35924  16.552  17.944   2.097 -0.1336  0.0295 -0.0152
19451W        W35925   3.955  11.794  13.153 -0.1009 -0.1418 -0.0595
19452W        W35926   1.203  11.475  11.121 -0.1898 -0.0473  0.2161
19453W        W35927  18.758  16.315  10.790  0.1644  0.0328 -0.0119
19454W        W35928   9.713   8.342   3.308  0.2148 -0.1786  0.3940
19455W        W35929   3.651   4.002   2.319 -0.0293 -0.1641  0.1898
19456W        W35930  15.253   9.823   0.620  0.0137  0.0774 -0.0647
19457W        W35931  11.504   8.300   1.324  0.0372  0.0678 -0.0012
19458W        W35932   4.198  18.339  11.740 -0.1101  0.2423 -0.0139
19459W        W35933   7.443   2.830  12.251  0.3193  0.2056 -0.0671
19460W        W35934   3.252   6.851   3.058 -0.0521 -0.0132 -0.2551
19461W        W35935   7.837  10.587   4.010 -0.5022  0.1324  0.0819
19462W        W35936   4.942   9.123   5.295  0.2658 -0.0284 -0.1091
19463W        W35937  11.284   3.474   1.535  0.0809  0.0467 -0.1865
19464W        W35938   6.515   9.217  11.328  0.2406  0.0238  0.0728
19465W        W35939  18.168  11.763  12.423 -0.0130 -0.0054 -0.1843
19466W        W35940   8.666   0.365   3.327 -0.2193  0.0273 -0.3958
19467W        W35941   0.744  14.446   4.124 -0.1618  0.2206  0.2456
19468W        W35942   6.151   8.721  10.680  0.0692  0.1761 -0.1223
19469W        W35943  15.994   7.201   5.742 -0.2390 -0.1360  0.1079
19470W        W35944  14.521  17.603   3.783 -0.0356 -0.0832 -0.0968
19471W        W35945  12.715   8.161   0.528 -0.1924 -0.4774  0.0699
19472W        W35946   5.141  13.186  13.107  0.0882 -0.3697 -0.1613
19473W        W35947   7.071  13.019   1.663  0.0414  0.1323 -0.0330
19474W        W35948  17.592   5.313  14.346  0.1595 -0.2355  0.4597
19475W        W35949  16.648  14.855  12.733  0.0064  0.1202  0.1389
19476W        W35950  15.419  14.803   4.556 -0.2223  0.0190  0.1035
19477W        W35951   7.739   3.525  10.584  0.2220  0.0968  0.4997
19478W        W35952   9.590   0.700   4.011  0.0590 -0.1992 -0.0269
19479W        W35953   7.874  16.714   3.795  0.3085 -0.1686  0.4106
19480W        W35954   6.439  16.561  15.415 -0.0382 -0.1925 -0.2999
19481W        W35955  10.725   0.360  11.396 -0.1856 -0.1794  0.1371
19482W        W35956  15.592  10.418  12.261  0.0897 -0.0444  0.2688
19483W        W35957  10.650   0.427   2.552 -0.0412  0.0678  0.2737
19484W        W35958   5.247   2.932  10.576 -0.1715 -0.0199  0.2019
19485W        W35959  17.657   5.807   1.174 -0.0781 -0.2671 -0.0435
19486W        W35960   2.204  15.058   1.291  0.1502  0.0931 -0.0258
19487W        W35961  16.690   1.417   1.437  0.3348  0.3636  0.1653
19488W        W35962  13.632   6.037   3.168  0.1783 -0.0492  0.0050
19489W        W35963   0.411  16.136   1.097 -0.0341 -0.4592 -0.3247
19490W        W35964  10.568  15.077  14.443 -0.1629 -0.0091  0.1234
19491W        W35965  17.794   7.651   2.505  0.0685 -0.1627  0.4586
19492W        W35966  17.188   2.980   3.741 -0.1589  0.0682 -0.0927
19493W        W35967  11.143  12.894  12.604  0.3287  0.0344 -0.0970
19494W        W35968   5.689  11.155  14.277  0.4470  0.0610 -0.1544
19495W        W35969   4.141  11.058   4.153 -0.0155  0.2614  0.1988
19496W        W35970   7.621  17.198  14.916  0.1290 -0.2535  0.0559
19497W        W35971   4.135  17.791   1.933 -0.1832 -0.0358  0.0893
19498W        W35972   3.188  13.324   2.829 -0.0888  0.2898  0.2361
19499W        W35973   7.216  12.317   4.946 -0.0114  0.1940  0.1562
19500W        W35974  13.670  15.094  13.421 -0.1139 -0.3973 -0.1323
19501W        W35975   2.911   0.958  10.726 -0.2735 -0.0864  0.0481
19502W        W35976  14.855  10.580   0.336  0.2487 -0.2121 -0.3099
19503W        W35977   8.450  12.634  15.357  0.0648 -0.1073 -0.0116
19504W        W35978   0.869   6.130  12.187 -0.1188  0.3991  0.2287
19505W        W35979   2.199   7.868   3.273  0.0495 -0.3194  0.0722
19506W        W35980   9.888   5.360  14.224  0.2384 -0.0608  0.1739
19507W        W35981  15.123   0.253  10.542  0.0462  0.1030 -0.0308
19508W        W35982  12.243   0.568  12.633 -0.0575 -0.1868 -0.3329
19509W        W35983   5.366  10.578   2.930 -0.1417 -0.0405 -0.3767
19510W        W35984   4.777  12.689  14.077 -0.1609  0.1938  0.0392
19511W        W35985  17.606   7.979   5.418  0.0624  0.1357  0.0472
19512W        W35986   5.933   5.563   2.033 -0.1212 -0.3311 -0.2549
19513W        W35987   0.902  16.909  15.204 -0.0968 -0.0039 -0.2382
19514W        W35988  12.033  17.478   0.581 -0.0717 -0.0734 -0.2099
19515W        W35989   9.487  16.645   3.809 -0.0526  0.1981  0.0409
19516W        W35990   7.271  14.305  12.213  0.2983 -0.1983  0.1186
19517W        W35991  15.913  14.414   5.336  0.0009 -0.0189 -0.0430
19518W        W35992   1.416   8.363  13.730  0.1116  0.3006 -0.0030
19519W        W35993  15.239   3.295   3.351  0.3342 -0.0497  0.0155
19520W        W35994   8.140   3.477   4.570  0.6454 -0.0586  0.1144
19521W        W35995  10.868  17.719   0.027  0.1833  0.0454 -0.0442
19522W        W35996  18.108  15.892  11.019 -0.0742  0.1982  0.0542
19523W        W35997   6.072  11.737  12.368 -0.0624  0.0602 -0.0883
19524W        W35998  12.813   5.912  11.142  0.1491  0.1887  0.0687
19525W        W35999  16.309   2.320   3.911 -0.0497 -0.0822  0.2795
19526W        W36000   2.545   2.973   0.132  0.3849  0.0237 -0.1153
19527W        W36001   3.200   6.686  14.905 -0.0632 -0.0748 -0.0248
19528W        W36002  13.885   7.280   0.819  0.2190 -0.1910  0.1236
19529W        W36003  14.333   3.541   0.259 -0.0520 -0.1305 -0.1451
19530W        W36004   2.448   5.401  14.131 -0.2473 -0.2813  0.3197
19531W        W36005   4.478  13.570  14.928 -0.1249  0.0892 -0.0166
19532W        W36006   3.157   0.515   4.558  0.2196 -0.2302  0.2273
19533W        W36007   6.743   7.333  12.113  0.0083 -0.1748  0.1088
19534W        W36008   4.077  13.125  13.468  0.0639  0.2053  0.0059
19535W        W36009  13.068   5.681  12.612 -0.2482  0.2043 -0.0585
19536W        W36010   0.701  10.076  11.804 -0.2680  0.0685 -0.0472
19537W        W36011   9.211   3.656  11.314  0.1804 -0.1443 -0.4413
19538W        W36012  18.604  11.932  13.576  0.1090 -0.0623 -0.1224
19539W        W36013  10.415  12.199   2.405  0.1708  0.2434 -0.0826
19540W        W36014  10.099   2.621  14.132  0.1336 -0.0642 -0.2535
19541W        W36015   7.126   9.054   0.670 -0.1182  0.4476  0.2049
19542W        W36016   9.830   9.968  12.092 -0.1152  0.0878 -0.1784
19543W        W36017   2.405   6.295  13.078 -0.2178 -0.0183 -0.0541
19544W        W36018  13.626   9.829  12.683 -0.1934 -0.0965 -0.0842
19545W        W36019  13.691   1.877  11.726  0.4988 -0.1241  0.2322
19546W        W36020   4.531  10.122  14.831 -0.3246  0.1451  0.0208
19547W        W36021  17.510  18.172  14.062  0.0769  0.3343 -0.1666
19548W        W36022  10.587   3.687   3.042 -0.0892 -0.0831  0.0497
19549W        W36023  17.040  12.842  12.220 -0.2001  0.0132  0.2578
19550W        W36024  14.883   3.754  11.580  0.0909  0.1629 -0.1517
19551W        W36025  15.789   4.178   0.901  0.3147  0.0492  0.0383
19552W        W36026   9.044  18.348  14.496 -0.0697 -0.1140  0.0678
19553W        W36027  14.967  17.309  14.812 -0.1874  0.0958  0.2149
19554W        W36028  10.001  17.750  13.368  0.3023  0.1914 -0.2950
19555W        W36029   1.091   0.155   1.073  0.3266  0.1229  0.0988
19556W        W36030  15.278   4.609  11.176  0.3659  0.1257  0.2251
19557W        W36031   4.024   5.473  11.491 -0.0402  0.3297  0.2645
19558W        W36032   8.690  14.151   2.678 -0.1245  0.1685  0.0627
19559W        W36033   8.471  13.652   4.304  0.0743  0.0319  0.0886
19560W        W36034  17.190  14.469   4.109 -0.0068 -0.0841 -0.0637
19561W        W36035   7.048   1.194  12.496 -0.1497  0.1128  0.0001
19562W        W36036  10.574   7.811   5.009 -0.2327 -0.1616  0.0619
19563W        W36037   1.931  17.760   1.312 -0.0037  0.2269 -0.1891
19564W        W36038   5.220  10.699   3.820  0.2395 -0.4324  0.3384
19565W        W36039  14.765  17.316   4.585  0.2732 -0.0617 -0.1099
19566W        W36040   8.614  14.554   3.042  0.1099 -0.1774  0.1613
19567W        W36041   6.306  18.345  11.602 -0.1857 -0.0172  0.0266
19568W        W36042  15.444  14.916   3.578 -0.3836 -0.0192  0.1671
19569W        W36043  17.986   7.505  10.364 -0.2123 -0.0342 -0.1743
19570W        W36044   5.946  15.414   1.511 -0.0426  0.0101  0.1646
19571W        W36045  15.179  11.117  11.918  0.0542  0.4565  0.2306
19572W        W36046  13.072  15.182   3.129 -0.0834  0.1129 -0.0382
19573W        W36047  15.820   4.560   0.091 -0.1466 -0.2827 -0.2986
19574W        W36048   0.558   4.019   0.105 -0.0392  0.0740  0.1118
19575W        W36049   3.139  12.138  15.006 -0.1900  0.0007 -0.3519
19576W        W36050   8.689  14.854   1.589  0.1306  0.1042  0.0535
19577W        W36051  18.459   0.206  11.575 -0.4024 -0.0619  0.3391
19578W        W36052   1.771  12.948   2.336  0.1384  0.0464  0.0373
19579W        W36053  10.187   0.089   1.729 -0.1732  0.2116 -0.0522
19580W        W36054  12.313   7.893   4.154 -0.2810 -0.4859  0.0223
19581W        W36055   7.035   3.032  14.545 -0.0402  0.2102 -0.2188
19582W        W36056   0.170   6.380   3.168  0.1490 -0.3429  0.5581
19583W        W36057  16.630  13.262  12.316 -0.1500  0.0434 -0.2103
19584W        W36058  12.796   1.402   1.354  0.0137  0.1370  0.1131
19585W        W36059   8.857   7.166  12.982 -0.3849  0.1841 -0.1584
19586W        W36060  12.463   4.380   4.517  0.6557 -0.1508 -0.0195
19587W        W36061   8.157   7.429   1.342 -0.1454 -0.0448  0.0753
19588W        W36062  10.971  10.243  12.056  0.0889 -0.0195  0.0301
19589W        W36063   6.553  14.065  12.200 -0.0605  0.0745 -0.0134
19590W        W36064   6.734   0.224  10.236  0.2433  0.0939  0.0737
19591W        W36065   8.793   2.326   0.507  0.1381 -0.3946  0.2205
19592W        W36066  10.171   1.637   0.991  0.1178  0.1244 -0.1930
19593W        W36067  12.030  18.350  13.539 -0.1915 -0.0725 -0.2414
19594W        W36068   6.782  14.470  10.543 -0.1646 -0.1671 -0.0200
19595W        W36069  12.463   7.386   0.051 -0.1013 -0.0147 -0.1312
19596W        W36070  17.756   7.687   5.843 -0.0036 -0.1530 -0.1276
19597W        W36071  14.360   3.847  14.941 -0.0113  0.1338 -0.2215
19598W        W36072  16.595   0.627  13.493 -0.2179  0.0490 -0.4256
19599W        W36073  11.841  17.200   0.160  0.1400  0.0238 -0.1712
19600W        W36074   2.016   9.983   2.425  0.0280 -0.2616 -0.4162
19601W        W36075   8.298  17.880   4.951 -0.1607 -0.2711  0.2183
19602W        W36076   6.049  14.819   1.768  0.0507 -0.1698 -0.0941
19603W        W36077   2.419  12.763   1.570 -0.0622 -0.1284  0.2002
19604W        W36078   2.235   4.856  14.853  0.0148  0.4145  0.2628
19605W        W36079   4.167   7.484   4.148  0.0545 -0.0839 -0.0061
19606W        W36080  15.034   4.194   4.506 -0.0201 -0.0833  0.2176
19607W        W36081  10.624   8.185   0.832  0.0117  0.1033 -0.0198
19608W        W36082  17.410   2.495  13.513 -0.3360 -0.4908 -0.0472
19609W        W36083   3.711  17.379  12.832 -0.3210 -0.2810  0.1598
19610W        W36084   8.150  11.975  10.889  0.2647 -0.0027  0.0711
19611W        W36085   1.205  18.773  13.765  0.2623 -0.0663  0.3280
19612W        W36086   5.219  11.689  12.527  0.1094 -0.2286 -0.0049
19613W        W36087  12.781   3.368   1.792 -0.0909 -0.1362  0.3622
19614W        W36088   1.787   1.957  12.457  0.0740  0.2947 -0.0667
19615W        W36089   0.525   1.994  13.180  0.0792  0.0743 -0.1187
19616W        W36090  14.304  17.523   3.249  0.2594  0.1902 -0.0342
19617W        W36091  17.169   5.816   4.847 -0.0114 -0.2989  0.1503
19618W        W36092  17.442   3.065   0.472 -0.0749  0.0544 -0.0332
19619W        W36093  12.385   7.538   1.076  0.0611 -0.1795  0.2675
19620W        W36094   7.856  15.548  13.255 -0.4395 -0.0124  0.0167
19621W        W36095   8.782  17.248  10.787 -0.0375 -0.0590 -0.0663
19622W        W36096  16.607   8.825  12.915 -0.1604 -0.1624 -0.0203
19623W        W36097   2.377   2.423   3.356 -0.0206  0.1879  0.2305
19624W        W36098  10.678  17.911   3.739 -0.2910  0.0018  0.0606
19625W        W36099  11.406   0.936  13.650  0.2097  0.2530 -0.0804
19626W        W36100  12.962   2.085   0.822  0.0592  0.0744 -0.2155
19627W        W36101   6.262  17.414   2.884  0.2593  0.1462  0.2096
19628W        W36102   7.776  10.156  11.679  0.4542 -0.1901  0.1652
19629W        W36103  17.118   2.637   0.414 -0.0531 -0.1721 -0.1653
19630W        W36104  17.730   2.981   3.740 -0.1813  0.3676  0.1748
19631W        W36105   8.930  14.089  14.876 -0.1336 -0.1288 -0.2890
19632W        W36106  16.085   7.664   2.574  0.1163 -0.0555 -0.0206
19633W        W36107  13.402  15.388   2.826  0.3581 -0.0394  0.1247
19634W        W36108   9.033  11.983   4.144  0.3082 -0.2494  0.0748
19635W        W36109   0.302  11.072   3.456 -0.1227 -0.1502  0.4551
19636W        W36110   6.683  11.254   2.988  0.0402 -0.1313  0.1680
19637W        W36111   5.712   5.616   5.091  0.4308  0.1532  0.3683
19638W        W36112   6.133   4.596   0.902 -0.1197  0.3087  0.0840
19639W        W36113   0.011   3.115   2.213 -0.1173 -0.1960  0.0118
19640W        W36114   3.507   9.637   3.560 -0.1252  0.0652 -0.2177
19641W        W36115   4.897   1.088   2.436 -0.2972  0.1067  0.3893
19642W        W36116   2.351   2.052  11.210  0.1891  0.0473 -0.5657
19643W        W36117  14.911   8.198  10.609 -0.0520  0.2351  0.1018
19644W        W36118   4.174   2.577  14.053 -0.1817 -0.5124  0.1147
19645W        W36119  13.834  14.673   0.461 -0.2471 -0.0494 -0.0506
19646W        W36120   0.685  13.748  12.297 -0.1217  0.2844  0.0515
19647W        W36121  11.425   4.185  14.570  0.2291  0.0124 -0.1493
19648W        W36122   3.511  14.384   0.925 -0.3307 -0.1913  0.5140
19649W        W36123   5.485   9.244  15.071  0.0985 -0.1734 -0.1031
19650W        W36124  18.074  17.905   2.564  0.0702 -0.0699  0.0606
19651W        W36125   2.619  15.661  12.940 -0.0233  0.0083 -0.0339
19652W        W36126   3.002   1.644   5.048  0.0077 -0.2231  0.2252
19653W        W36127   2.511  11.842  12.564 -0.0299  0.0527 -0.1839
19654W        W36128  10.169   1.064   1.373  0.0545 -0.2526  0.0758
19655W        W36129  13.743   8.788   5.437  0.1786  0.4269 -0.0005
19656W        W36130  11.231  10.634   4.617 -0.3309  0.0155 -0.0847
19657W        W36131  12.352   9.708   4.980  0.0928  0.3982 -0.1404
19658W        W36132   4.507   9.661  11.618  0.0101  0.0543 -0.0323
19659W        W36133   9.058   4.755  11.432  0.1106  0.0370 -0.1312
19660W        W36134  11.751  10.171   1.290 -0.3467 -0.2323  0.2614
19661W        W36135   4.572   3.546  11.818 -0.1935  0.2018 -0.0663
19662W        W36136   4.382  16.184  14.558  0.0148 -0.0680  0.4481
19663W        W36137   3.540  16.463  10.973 -0.1452  0.0699  0.0289
19664W        W36138  12.898   3.616  13.211 -0.1422  0.1459 -0.1308
19665W        W36139  10.886   4.475  11.223 -0.0971  0.1327 -0.1854
19666W        W36140  17.572   1.657   3.560 -0.0032  0.1388 -0.0941
19667W        W36141   7.281  10.637  13.340  0.0949 -0.2529  0.0084
19668W        W36142   9.500   7.687  15.255 -0.2058 -0.0119  0.0372
19669W        W36143  13.396   6.142   0.619  0.2128  0.0049  0.3970
19670W        W36144   5.545   6.450  10.914  0.0708  0.0646 -0.0219
19671W        W36145  11.761  11.810   3.763  0.1580  0.1365 -0.0176
19672W        W36146   8.480   4.555   3.552 -0.1177 -0.2173 -0.0285
19673W        W36147  14.606  14.823   3.168  0.2873 -0.1397  0.0692
19674W        W36148   8.112  18.565  12.048  0.0569 -0.0239 -0.2908
19675W        W36149   1.720   2.904   1.119 -0.1873  0.1710 -0.5596
19676W        W36150   7.882   8.421  12.466  0.0160  0.0003  0.1077
19677W        W36151   5.728   4.710   3.303 -0.2877 -0.0189 -0.2323
19678W        W36152   5.116  15.692   2.727  0.2004 -0.3242  0.0806
19679W        W36153   7.369  14.268   1.388 -0.0827 -0.4867  0.0235
19680W        W36154   0.399  13.151  11.437 -0.1583  0.1318  0.0276
19681W        W36155   7.090  13.879   1.540 -0.0262  0.0223 -0.1885
19682W        W36156  16.926   1.131   2.058  0.0963  0.0641 -0.2376
19683W        W36157  18.103   4.439   1.652 -0.0691  0.0356 -0.4601
19684W        W36158   8.369  16.978   4.442 -0.1850 -0.0311 -0.1116
19685W        W36159   4.867   1.211  10.864  0.1583 -0.2730  0.3874
19686W        W36160  17.641  15.986  14.076 -0.1585  0.0902 -0.0646
19687W        W36161   4.053   2.728  10.516  0.0875 -0.0221 -0.0594
19688W        W36162   0.641  10.195   4.806 -0.1265 -0.0397  0.1802
19689W        W36163   9.715  18.195  11.736  0.3593  0.1101 -0.0550
19690W        W36164   6.661  14.835   1.169  0.0847 -0.0540 -0.2776
19691W        W36165   4.525   7.269   3.255 -0.1164  0.0601 -0.0314
19692W        W36166   1.418   0.915  12.067  0.2970 -0.0531  0.1644
19693W        W36167  14.824   6.157   5.573 -0.0375  0.1893  0.3272
19694W        W36168  18.142   7.895  14.309 -0.0996 -0.0712 -0.1503
19695W        W36169  11.867  18.753  14.748  0.0688 -0.0646 -0.0929
19696W        W36170   2.216  13.152  13.404  0.1825  0.2063  0.1043
19697W        W36171   2.320  16.543   0.650  0.0765  0.0017 -0.1595
19698W        W36172  11.082   4.985  12.939  0.2105 -0.1215 -0.0995
19699W        W36173   6.822  17.042  12.681 -0.1014  0.0539  0.1164
19700W        W36174   6.152   7.241  12.043 -0.0803  0.0020 -0.0312
19701W        W36175   5.172  15.713  15.542  0.0119  0.1480 -0.1500
19702W        W36176   5.121  13.381   0.116  0.2904 -0.0014  0.1284
19703W        W36177  18.271  14.455  14.092  0.0417  0.1334  0.3715
19704W        W36178  11.392  16.077  14.338 -0.1937 -0.0606 -0.0142
19705W        W36179   7.228   1.951   3.332 -0.2882 -0.0008 -0.0247
19706W        W36180  12.349  18.216  11.047  0.0097  0.1072  0.0932
19707W        W36181  10.842  14.800   2.477 -0.0742  0.2066  0.2984
19708W        W36182   4.745  11.234   2.722  0.3106  0.3176 -0.0446
19709W        W36183  13.566   5.539   2.983 -0.1888  0.0884 -0.2612
19710W        W36184   2.877   1.785  15.330 -0.0760 -0.1566  0.0262
19711W        W36185   5.003   1.052   3.614  0.0609 -0.1057 -0.0595
19712W        W36186  18.540  10.626   4.124  0.2788 -0.5817 -0.0517
19713W        W36187   2.947  15.038  14.887  0.2794 -0.1533  0.0563
19714W        W36188   1.971  17.784  12.614 -0.1483 -0.2683  0.0765
19715W        W36189   0.704  12.301  10.882  0.1602 -0.1350 -0.1109
19716W        W36190   7.794   0.467  10.471  0.0162 -0.1165  0.2504
19717W        W36191   0.700  14.682   0.087 -0.1478  0.1789  0.2843
19718W        W36192   6.865  16.241   4.435  0.0275 -0.0488 -0.0814
19719W        W36193   5.928  17.543  14.850 -0.0972 -0.2465  0.2135
19720W        W36194   5.097   0.802   0.775  0.1224  0.0946  0.0242
19721W        W36195   1.365  14.641   0.341 -0.1583 -0.6276  0.0780
19722W        W36196   0.723  15.400  13.706 -0.0417  0.1566  0.2833
19723W        W36197   4.944   5.614   2.515 -0.0168  0.3038 -0.1411
19724W        W36198  14.433  10.268   0.328  0.0011 -0.1158  0.2630
19725W        W36199   9.939   0.611   0.690 -0.2319  0.2075  0.3915
19726W        W36200  12.544  11.266  13.294 -0.0338 -0.0893  0.0311
19727W        W36201   9.943   0.120  12.913 -0.0921 -0.1618 -0.1043
19728W        W36202   8.275   6.856  11.605  0.1220  0.1448  0.0785
19729W        W36203  11.021  15.678   2.295  0.1328  0.1541  0.2454
19730W        W36204   4.889  11.589  11.883 -0.0748  0.0942 -0.0129
19731W        W36205   2.741  12.195   0.507 -0.1410  0.0104 -0.0627
19732W        W36206  17.858  13.813  11.594  0.1357  0.2544  0.0456
19733W        W36207  10.794  17.104   0.834 -0.0405 -0.0617  0.2189
19734W        W36208  17.053  14.129  12.705  0.1409 -0.2547 -0.1802
19735W        W36209   8.546   0.335   0.024  0.0802  0.0417  0.0811
19736W        W36210   7.632   9.151  15.320 -0.1021  0.1409 -0.3752
19737W        W36211   9.471   1.063  15.250 -0.1743 -0.0483  0.1070
19738W        W36212  16.058  10.777  12.344 -0.2178 -0.1948  0.0501
19739W        W36213   6.583  18.404   1.893  0.0253  0.2952  0.1166
19740W        W36214   8.127   7.549   0.649 -0.0383 -0.0283  0.0402
19741W        W36215  10.683   3.446   4.728 -0.1700  0.0729 -0.0709
19742W        W36216   4.007   3.152  13.131  0.1099 -0.1121  0.1308
19743W        W36217   0.118  11.920  13.135  0.1046 -0.0708 -0.1548
19744W        W36218  13.830  11.855   5.869  0.0069  0.1964 -0.0083
19745W        W36219   0.050  18.153  13.813  0.1152 -0.1569  0.2340
19746W        W36220  11.916  18.315   2.509  0.1653 -0.1926  0.0933
19747W        W36221   2.439   1.124   4.122  0.3067  0.2148 -0.3016
19748W        W36222   7.763  11.559   5.976 -0.1813 -0.1919  0.0977
19749W        W36223   9.545  14.619  13.142 -0.2526 -0.3168  0.1370
19750W        W36224  18.681  13.165   4.635 -0.1170  0.0080  0.1518
19751W        W36225  16.127  15.568   3.420 -0.1487  0.2767  0.0004
19752W        W36226  12.775  18.297  10.036 -0.1344  0.0306 -0.1262
19753W        W36227  16.309  15.211   1.602 -0.1481 -0.2649 -0.0906
19754W        W36228  14.331   6.744   4.024 -0.2373  0.1797 -0.0605
19755W        W36229   3.378  14.767   2.940  0.1744  0.2175 -0.3515
19756W        W36230   2.321  16.323   0.147  0.1314  0.0715 -0.1138
19757W        W36231  14.390   8.391  11.796 -0.2142 -0.1509 -0.1499
19758W        W36232  10.830  12.930   6.330  0.2660 -0.1100  0.0772
19759W        W36233   9.314   6.184  11.708 -0.1654 -0.0837 -0.0137
19760W        W36234   2.566   7.352  10.998  0.0638  0.1134  0.0751
19761W        W36235   8.957   5.481   0.310  0.1167 -0.0481 -0.1257
19762W        W36236   6.626   4.539  12.879  0.1003 -0.0764  0.2023
19763W        W36237   6.323   1.165   5.562  0.1478  0.2224 -0.1401
19764W        W36238   3.354   4.134  10.854  0.1571  0.0369 -0.0085
19765W        W36239  12.350   0.668  11.552  0.3920 -0.1234  0.3855
19766W        W36240   1.455  14.530   2.806 -0.1197  0.2011 -0.2537
19767W        W36241  16.180  15.575   2.867  0.1088  0.1426 -0.2132
19768W        W36242   4.836   7.407  13.852  0.0856  0.2132 -0.2838
19769W        W36243  12.153  14.279  15.432  0.0780 -0.5062 -0.2160
19770W        W36244   5.405   6.659   9.728 -0.1114 -0.2562  0.1210
19771W        W36245   8.286   8.406   0.369  0.2466 -0.0601 -0.0153
19772W        W36246  10.505   3.151  11.456  0.2508 -0.0914 -0.1115
19773W        W36247   1.599   9.360  11.971  0.0491  0.0357  0.0643
19774W        W36248   8.549   1.772  13.246 -0.1550  0.0653 -0.4987
19775W        W36249  11.551  12.789   0.755 -0.2433  0.1804  0.0548
19776W        W36250   4.776  14.936   2.745  0.3259 -0.1391 -0.5218
19777W        W36251  11.471  14.497   4.658  0.2899  0.0488 -0.0514
19778W        W36252  14.230   6.948  14.861  0.1441  0.1387 -0.0171
19779W        W36253  14.310   3.105   2.863  0.2293 -0.0456 -0.2129
19780W        W36254  16.018   8.797  11.625 -0.2494 -0.3955 -0.3837
19781W        W36255   5.760   2.385   4.766  0.2341  0.2277  0.1218
19782W        W36256   9.381  15.985  13.203 -0.2045 -0.3599 -0.4211
19783W        W36257   6.117   5.815  12.487 -0.1105  0.0917 -0.1149
19784W        W36258  16.477   5.195  13.965 -0.1285 -0.3506  0.1146
19785W        W36259   7.089  10.997   0.907 -0.2292  0.0461 -0.3071
19786W        W36260  17.289  13.221   3.591 -0.0024  0.2913 -0.0579
19787W        W36261  17.895  17.174  14.653 -0.2224 -0.0387 -0.0347
19788W        W36262   5.064  13.311   2.354  0.2344 -0.3043  0.0770
19789W        W36263   2.367   0.407  12.903 -0.1359 -0.0232  0.0435
19790W        W36264   9.212  15.084   5.424  0.1168  0.1396 -0.0460
19791W        W36265   0.666   2.373  12.893 -0.0478 -0.0309 -0.1716
19792W        W36266   3.060  16.886  14.086 -0.1516  0.1016  0.0593
19793W        W36267  17.530   0.654   5.146 -0.0972 -0.1063  0.0957
19794W        W36268   2.801  16.445   2.974 -0.3133  0.1967 -0.0439
19795W        W36269  12.441  16.092   1.809  0.2058 -0.3882  0.1691
19796W        W36270   2.210   5.568   2.017 -0.1099 -0.0407 -0.1265
19797W        W36271   8.229   2.685  14.865  0.1774  0.0883  0.2479
19798W        W36272  15.833   8.815  14.942  0.2405 -0.3707 -0.3214
19799W        W36273  16.136  13.028   3.078  0.2099 -0.3850  0.0406
19800W        W36274  10.989   1.951   0.157 -0.2028 -0.1133  0.1639
19801W        W36275  14.859   3.393  12.947 -0.0177 -0.0825 -0.1468
19802W        W36276   5.611   0.436  13.331  0.0212 -0.0010  0.0726
19803W        W36277   4.432   0.320   2.923  0.0446 -0.1982  0.4694
19804W        W36278   7.888  15.095   5.689 -0.0264  0.1472  0.3351
19805W        W36279  15.433  10.924   1.584 -0.0634  0.3068 -0.2722
19806W        W36280  18.741  17.130   0.472 -0.0237  0.1229  0.1813
19807W        W36281   7.601   9.554   2.437  0.0072  0.1902 -0.0728
19808W        W36282   3.605   2.683   9.470 -0.0755 -0.0234 -0.2084
19809W        W36283   6.590   8.868   1.424 -0.2769 -0.3811  0.1016
19810W        W36284  11.160   8.112  15.117 -0.0691 -0.2000  0.0072
19811W        W36285  12.405   1.233  14.617 -0.3202  0.1009  0.1169
19812W        W36286  11.839   4.447  12.798  0.0398 -0.0382  0.0052
19813W        W36287  15.909  12.787   5.164  0.1323 -0.0833  0.2755
19814W        W36288  18.019  15.726   0.220  0.0345 -0.1993 -0.2089
19815W        W36289  12.100   1.004  12.360  0.1426 -0.0987  0.0593
19816W        W36290  16.754  10.782   2.481  0.2607 -0.0043 -0.0205
19817W        W36291  14.855   2.463  12.828  0.2070  0.0452  0.1096
19818W        W36292   4.891   9.037  12.803  0.2219  0.3925  0.0202
19819W        W36293  10.785  16.968  14.496 -0.0062 -0.0637 -0.1836
19820W        W36294  18.062  10.430   1.434  0.0278  0.1869 -0.3763
19821W        W36295  12.308   4.277  13.539  0.2383  0.1036  0.0025
19822W        W36296  13.858   8.618   3.611 -0.3754  0.0371 -0.2170
19823W        W36297   0.480   1.366   4.639  0.2198 -0.2591  0.2712
19824W        W36298  10.969   3.599  10.852 -0.0170  0.1889 -0.2889
19825W        W36299   8.028   7.922   0.291  0.0548 -0.1286  0.1323
19826W        W36300   6.722  14.897   5.157  0.0478  0.4438  0.1294
19827W        W36301   1.697  10.492   0.874 -0.1320  0.3705 -0.0974
19828W        W36302   7.222  13.811   2.229 -0.0421 -0.3866 -0.2424
19829W        W36303   9.001   1.750  13.555  0.0056  0.0921 -0.4037
19830W        W36304  17.851   4.666   0.562 -0.2201 -0.1761 -0.1831
19831W        W36305   2.396   6.472   2.634  0.0706 -0.0642  0.1125
19832W        W36306   8.909  12.765   4.584  0.1043 -0.0779  0.0503
19833W        W36307  15.006  12.918   3.238 -0.1975 -0.0253  0.0374
19834W        W36308  15.012  14.889  12.657  0.2156 -0.0482  0.2785
19835W        W36309   7.698  14.531  11.757 -0.0626 -0.1718 -0.0897
19836W        W36310  14.717   4.697   1.944 -0.1814 -0.1387 -0.2727
19837W        W36311   9.668  18.766  10.650  0.0718 -0.3271  0.4769
19838W        W36312   7.312  11.637  10.968 -0.0482  0.1011 -0.1433
19839W        W36313   9.406  17.630   1.125 -0.0895 -0.1917 -0.0311
19840W        W36314   3.533  16.668  14.355 -0.0553 -0.3643  0.0508
19841W        W36315  15.841   7.370   2.914  0.2179 -0.3900 -0.0350
19842W        W36316   0.670   3.636  10.600  0.0887  0.2328  0.1514
19843W        W36317   5.300   1.028   4.549  0.1207 -0.1243  0.4845
19844W        W36318   4.915  15.082   0.385 -0.1025 -0.2191  0.0457
19845W        W36319  17.521   2.840  11.245  0.0305 -0.0907  0.1423
19846W        W36320  16.395   2.720   2.560  0.0491  0.0399 -0.4517
19847W        W36321  15.486   7.688   3.157 -0.0171 -0.0355 -0.2119
19848W        W36322   2.573  14.732  12.709 -0.0976 -0.1753  0.0409
19849W        W36323   1.630   6.731  14.193 -0.2144  0.2423 -0.1646
19850W        W36324  16.641   6.232   5.515 -0.0790  0.1638  0.4229
19851W        W36325   4.533  10.526  13.090  0.0006 -0.1688 -0.4594
19852W        W36326   1.376   7.528  12.990  0.0191  0.1857  0.2736
19853W        W36327   0.551  13.471  13.703  0.1237 -0.2161  0.2560
19854W        W36328   1.385   8.961   0.131 -0.0860 -0.0509 -0.0392
19855W        W36329  15.262  10.378   4.398  0.0133  0.1737  0.1519
19856W        W36330  11.425   9.909  13.223  0.1143  0.1885  0.0996
19857W        W36331  14.386   5.353   3.995 -0.0556  0.0802 -0.1936
19858W        W36332   3.157  15.764   1.344  0.0344 -0.2202 -0.0828
19859W        W36333  17.283  12.364  11.959  0.0771  0.0548 -0.1603
19860W        W36334  15.202   0.558   5.238  0.0942  0.0810 -0.0141
19861W        W36335  17.854   3.707  13.068 -0.2630 -0.2246  0.0657
19862W        W36336   7.061   5.193   3.122 -0.0973  0.1019  0.0333
19863W        W36337  14.772   2.728  14.533  0.0759  0.5203 -0.2487
19864W        W36338  17.568   7.910  11.353  0.2685 -0.1262  0.0936
19865W        W36339  12.057  14.055   4.054  0.0247 -0.1259 -0.0072
19866W        W36340   2.467   5.894   1.443 -0.1555  0.1044 -0.0305
19867W        W36341   4.602  10.596  11.321  0.1482  0.0780  0.2491
19868W        W36342   5.967  12.270   5.144 -0.2480  0.5750 -0.0152
19869W        W36343   3.698   6.621  11.404  0.2174 -0.1200 -0.2186
19870W        W36344  15.695  13.575   1.225  0.0755  0.0186 -0.1128
19871W        W36345  17.189   3.479  10.583  0.0831  0.1957 -0.0049
19872W        W36346  10.019  12.555  13.069 -0.0618  0.0781 -0.1117
19873W        W36347   2.961  18.300   2.179  0.0058  0.2140 -0.0246
19874W        W36348  17.476   4.724   0.968  0.0743 -0.4589  0.0864
19875W        W36349   1.643   9.035  11.245 -0.1454  0.0553  0.0557
19876W        W36350   7.648  12.350  12.585  0.1149  0.3711  0.0345
19877W        W36351   5.906  14.960  13.569  0.0517  0.0485 -0.1098
19878W        W36352   6.556   0.176   0.565  0.4608 -0.0863 -0.0579
19879W        W36353   9.399  17.123   1.277 -0.0138 -0.0550 -0.0390
19880W        W36354  13.578   2.004   0.047 -0.1225  0.2151 -0.2596
19881W        W36355  12.964   9.878  11.389 -0.0178  0.0960 -0.2049
19882W        W36356   0.488  11.490  12.468 -0.0803 -0.1693  0.1919
19883W        W36357   0.374  16.738  13.826 -0.1377  0.2271 -0.0932
19884W        W36358  14.793  17.581  13.653 -0.3677  0.2909  0.4808
19885W        W36359   6.585   2.442  14.826  0.0154 -0.0404  0.2345
19886W        W36360  12.856   4.202  11.996  0.1140  0.1188  0.0721
19887W        W36361  16.268  14.175   3.946 -0.0143  0.0801  0.0253
19888W        W36362   4.140   6.715  15.532  0.1769 -0.1054 -0.1632
19889W        W36363  12.232  11.577   2.409 -0.0892  0.2884 -0.1954
19890W        W36364  16.832  14.137   0.949  0.1876  0.0548  0.3279
19891W        W36365   6.315  18.647  11.076  0.2816  0.0528 -0.1276
19892W        W36366  16.222   1.422   1.608 -0.0016 -0.0489  0.1777
19893W        W36367  15.400  12.652   1.690 -0.1547  0.1910  0.2856
19894W        W36368   4.085   8.520  14.223  0.2491  0.0189  0.0589
19895W        W36369  10.917   8.573  10.043  0.1707  0.2009 -0.0266
19896W        W36370   7.887   2.047   2.279 -0.1399  0.1503  0.0922
19897W        W36371   6.050  11.467   4.384  0.0338 -0.2126  0.1537
19898W        W36372   1.315  12.487  11.995 -0.0604  0.1393 -0.1909
19899W        W36373  14.952   0.602  13.060 -0.2983 -0.6845  0.1125
19900W        W36374   7.993   2.171  15.017 -0.1357  0.0414 -0.1470
19901W        W36375  14.417   3.784   0.746 -0.1962  0.1409 -0.0158
19902W        W36376  10.133   2.824  13.136 -0.2407 -0.0389  0.1433
19903W        W36377  12.891   5.798   3.820  0.0579  0.2558 -0.1728
19904W        W36378   1.008   1.273   0.468  0.0027 -0.0711 -0.0597
19905W        W36379   4.427  16.342   1.781  0.1909  0.0908 -0.0384
19906W        W36380   2.254  10.395  14.749  0.1678  0.2446  0.0329
19907W        W36381   5.276   9.960  15.493 -0.2379  0.0714 -0.1874
19908W        W36382  13.914  11.135  13.809 -0.0756  0.0287  0.0226
19909W        W36383   4.795   6.901   0.053 -0.0520 -0.3919 -0.1462
19910W        W36384   5.316   7.026   3.572  0.0947 -0.1755 -0.0709
19911W        W36385   0.027   9.469  13.480  0.0943  0.0352  0.3546
19912W        W36386   2.044  13.400  12.818 -0.1626 -0.1014  0.1507
19913W        W36387  14.725  14.332   6.002  0.1434 -0.0757 -0.1861
19914W        W36388  18.722   1.548  12.826 -0.0844 -0.1531  0.3538
19915W        W36389  12.850  17.847   3.324  0.0791  0.1771 -0.2385
19916W        W36390  11.018  17.618   0.594  0.2005  0.1727 -0.1991
19917W        W36391  10.531  14.940  13.857  0.1761 -0.1199 -0.3751
19918W        W36392   5.391   4.162  11.479 -0.0295 -0.3902  0.1580
19919W        W36393   2.944   7.965  13.756 -0.1574 -0.1491  0.0244
19920W        W36394   0.475  15.894  15.523  0.2063  0.0885  0.1224
19921W        W36395   9.495   3.317   9.952 -0.1780  0.0156  0.0707
19922W        W36396  15.516   1.165  11.249  0.1728  0.2085 -0.2820
19923W        W36397  16.142  13.138   4.314 -0.1095 -0.0550  0.1004
19924W        W36398   1.925  18.595  15.219  0.1974  0.1817  0.2146
19925W        W36399  11.180   8.896  14.775  0.0528  0.0776  0.1951
19926W        W36400   2.051   0.783   1.757 -0.1004  0.1128 -0.0420
19927W        W36401   4.492  12.019  10.462  0.0285  0.0367 -0.0258
19928W        W36402  10.151  11.886   0.972 -0.0262 -0.0535  0.2193
19929W        W36403   2.923   4.697   2.952 -0.2446 -0.0743 -0.3503
19930W        W36404   1.149   5.708  10.566 -0.1378 -0.1020 -0.0049
19931W        W36405   4.092  17.210  13.094  0.0322 -0.1285 -0.2269
19932W        W36406  13.626  16.288   4.478  0.1139  0.0038 -0.0252
19933W        W36407   7.932  13.293   2.752  0.0913 -0.1816 -0.0146
19934W        W36408  18.435   3.464  14.093  0.0801  0.2435 -0.0875
19935W        W36409  15.026  11.870   4.775  0.0738 -0.1060 -0.0709
19936W        W36410   5.077   7.235   3.158  0.2537  0.0504 -0.1566
19937W        W36411   6.837   9.566  13.421  0.0658 -0.0485  0.3461
19938W        W36412  13.710  10.067   3.268 -0.1113 -0.0339  0.0500
19939W        W36413   2.276   7.952   4.738  0.2746  0.0102 -0.1735
19940W        W36414  16.089  18.062   3.396 -0.1865  0.0745 -0.2488
19941W        W36415   4.527   0.042  12.572 -0.1484 -0.1103  0.2207
19942W        W36416   1.733   7.658  10.557  0.3339 -0.2801 -0.1138
19943W        W36417   2.274   2.157  12.236 -0.1042 -0.0124 -0.0239
19944W        W36418  14.131   2.979   0.424  0.0499  0.0842  0.4712
19945W        W36419  18.103   4.679  12.037  0.0846  0.2541 -0.0242
19946W        W36420   3.162   8.884   1.965 -0.3575 -0.1415 -0.2081
19947W        W36421  18.528   0.085  13.044 -0.1589 -0.2486  0.0804
19948W        W36422  17.022   4.950   0.761  0.2061  0.1747 -0.0164
19949W        W36423   7.452  15.063   3.256 -0.0953 -0.0744  0.4051
19950W        W36424  14.388   0.646  10.216 -0.2352 -0.4777 -0.0693
19951W        W36425   6.034   1.543  14.905  0.0968 -0.0558  0.0689
19952W        W36426  15.482   5.688   5.635  0.3496  0.1939 -0.3351
19953W        W36427   8.273   1.476  12.390  0.1025 -0.0658  0.0366
19954W        W36428  10.295   6.597   1.939  0.1734  0.0218  0.1133
19955W        W36429   3.167   3.847   1.938 -0.0234  0.1308 -0.2143
19956W        W36430  18.341  16.798   3.830 -0.2039  0.0303  0.3794
19957W        W36431   9.094  17.513   6.009 -0.2041  0.3710 -0.4215
19958W        W36432  15.903   4.780   2.262 -0.0425  0.2128  0.0159
19959W        W36433   8.841   5.712  15.455  0.1605 -0.0885  0.1967
19960W        W36434   0.754   6.257  13.649 -0.1221  0.1241 -0.3316
19961W        W36435  12.074   1.405   0.931  0.0301 -0.2500 -0.0606
19962W        W36436  18.621   8.618   3.542  0.0983  0.0269 -0.1901
19963W        W36437   7.143  18.012  12.012 -0.1310 -0.2267  0.0367
19964W        W36438  11.079   6.185   1.703  0.1518 -0.0067 -0.0127
19965W        W36439   9.815   1.571   3.924 -0.0223  0.2550 -0.0067
19966W        W36440  11.077  12.441   1.548  0.3338 -0.0904 -0.1573
19967W        W36441  11.608   4.974   5.220  0.1454 -0.0011  0.0855
19968W        W36442  17.695   7.154  13.690  0.0414  0.1199  0.2430
19969W        W36443  11.781   5.541   4.423 -0.1032 -0.1355  0.0358
19970W        W36444  10.445  13.650   2.852  0.0215  0.0779 -0.0090
19971W        W36445  15.675  11.302   4.948 -0.1566 -0.1359  0.2987
19972W        W36446  17.621   3.371   4.809  0.0319  0.0088  0.1535
19973W        W36447   3.913   9.309   3.814  0.0371  0.2532  0.1676
19974W        W36448  16.346   0.442  13.072 -0.2852  0.0733  0.1837
19975W        W36449  11.607  11.393   3.255 -0.0919 -0.2461  0.1710
19976W        W36450   0.641   4.270  13.530 -0.3941 -0.0971 -0.3884
19977W        W36451   2.954   5.629  12.763 -0.2385 -0.0955  0.1348
19978W        W36452   0.738   1.245  13.745  0.3982  0.1139 -0.0122
19979W        W36453   4.618   0.687  13.533 -0.1742 -0.1740  0.1527
19980W        W36454  16.166  12.585  15.302  0.0467 -0.3625 -0.0778
19981W        W36455   2.535   1.284  12.823 -0.1560 -0.0961  0.0741
19982W        W36456  12.485   7.235   0.691 -0.0858  0.1894  0.3065
19983W        W36457   7.195  12.932   2.555  0.2164  0.0154 -0.1289
19984W        W36458   7.201   3.433  13.391  0.2326 -0.1697  0.1728
19985W        W36459  16.132   0.867   0.382  0.2505 -0.1390  0.1776
19986W        W36460  17.424  12.099   5.024  0.2037  0.0029  0.1522
19987W        W36461   9.795  15.753   2.197 -0.3125 -0.1948  0.5235
19988W        W36462  12.335   7.536  14.041 -0.2032 -0.0802  0.1028
19989W        W36463   7.257   6.343  14.154 -0.0137  0.2214 -0.1454
19990W        W36464  10.606   1.697  10.922  0.1222 -0.1287 -0.1870
19991W        W36465   7.992  18.591   1.975  0.1563 -0.3152  0.0617
19992W        W36466  15.005  10.910   1.195 -0.0919 -0.1892 -0.1116
19993W        W36467   8.565   5.138   0.234 -0.2303 -0.1012  0.1011
19994W        W36468   2.924   7.876  11.832 -0.0238  0.0882  0.1387
19995W        W36469  11.631   7.471   1.325  0.1278  0.0588  0.1591
19996W        W36470  13.953   6.256   1.513  0.3864  0.1994  0.2453
19997W        W36471  18.636  12.604  13.992  0.1788  0.0737  0.1574
19998W        W36472  11.209   2.045   3.124  0.0637  0.2361 -0.0774
19999W        W36473  16.220  11.971  13.479 -0.2421  0.3702  0.1185
20000W        W36474  14.161  11.821   2.832 -0.0012 -0.0363  0.0454
20001W        W36475  15.831  14.026   4.070  0.0590 -0.1861 -0.1061
20002W        W36476   2.680  12.126  11.344  0.0006  0.0176  0.0837
20003W        W36477   5.578  11.714  11.544 -0.0664  0.0981  0.1676
20004W        W36478   3.343  12.584  15.156 -0.0102  0.1890  0.1525
20005W        W36479   5.897   3.769  13.142 -0.2834  0.0666  0.2544
20006W        W36480   8.966   5.359   1.841 -0.1022  0.0380  0.0701
20007W        W36481  18.025   6.738  13.695  0.1752 -0.1202 -0.0674
20008W        W36482   5.641  13.256  12.938  0.1242 -0.0374  0.0141
20009W        W36483   9.098  16.789   1.114 -0.0606  0.1217 -0.0116
20010W        W36484  11.713  15.661   2.635 -0.1100  0.0611 -0.2363
20011W        W36485  16.049   7.981   0.819 -0.3191  0.0255  0.0830
20012W        W36486  11.376  14.851   3.343 -0.1669 -0.2626  0.2141
20013W        W36487   6.683  18.672   3.445  0.1634 -0.1008 -0.1274
20014W        W36488  12.292   4.810   3.041 -0.0169 -0.0171 -0.1353
20015W        W36489   1.684  12.865   4.422  0.0317  0.0478 -0.3803
20016W        W36490  17.974   5.929   2.439 -0.0378  0.0727 -0.0829
20017W        W36491   7.106   1.079   3.699  0.1540  0.1289 -0.0142
20018W        W36492  17.952  12.313   1.615 -0.0436 -0.3002  0.3055
20019W        W36493   9.492  16.129   1.246 -0.0726 -0.1884 -0.1729
20020W        W36494   6.279  16.845   4.018  0.0399 -0.3497  0.1125
20021W        W36495   8.759  14.903  14.185 -0.1042 -0.0250 -0.0495
20022W        W36496  12.178  17.605  12.769  0.0060  0.1837 -0.1508
20023W        W36497  16.684   1.073   4.843  0.2736  0.0457  0.0257
20024W        W36498   2.745  17.519  11.539  0.1612  0.1539 -0.1298
20025W        W36499  10.299  16.072   0.031 -0.0631  0.0706 -0.2140
20026W        W36500  13.105  16.565   3.686  0.1755 -0.0761  0.0365
20027W        W36501  15.336   0.169   3.750  0.0628 -0.1365 -0.0473
20028W        W36502  15.979   7.561   1.139  0.3002  0.0217  0.0185
20029W        W36503   7.195   4.460  13.645 -0.0023  0.0269  0.1790
20030W        W36504  11.701   9.146   3.544  0.2982 -0.0410 -0.1240
20031W        W36505  11.708  14.629  13.190 -0.0039  0.2939 -0.0128
20032W        W36506   1.642   2.230  10.571  0.3300  0.3798 -0.2863
20033W        W36507  15.107  17.176   3.164  0.0085 -0.1282 -0.3455
20034W        W36508  16.293   8.219  13.903 -0.1374 -0.3622  0.1018
20035W        W36509  14.381  12.992   1.035  0.0262 -0.1266  0.0199
20036W        W36510   8.305  13.674   5.846 -0.1013  0.0012  0.0104
20037W        W36511   3.570   0.339  15.373  0.4639 -0.2111 -0.0313
20038W        W36512  13.364   3.330  11.986  0.1445 -0.4947 -0.3766
20039W        W36513   0.441  12.850   5.417 -0.2263 -0.0627 -0.1970
20040W        W36514  15.589  12.167  15.557  0.1195 -0.2539  0.0344
20041W        W36515   8.040   2.080  10.685  0.1463 -0.1332 -0.0611
20042W        W36516  14.371   8.733   2.182 -0.2112  0.0888  0.2953
20043W        W36517   8.874  18.513  11.295  0.2121 -0.1412 -0.0559
20044W        W36518   2.769  15.311  11.578 -0.0417  0.3117 -0.1031
20045W        W36519   8.157  11.257   9.961 -0.0632  0.0280  0.0445
20046W        W36520   7.769  10.303   2.933 -0.3423 -0.0285 -0.0450
20047W        W36521  15.187  11.850   0.137  0.0863  0.2188 -0.1241
20048W        W36522   1.575   3.622   1.518 -0.1839  0.3435  0.3064
20049W        W36523  11.088   0.558  13.487 -0.0439  0.0558  0.0190
20050W        W36524  13.282  15.510   9.857 -0.3912  0.1639  0.0994
20051W        W36525   5.816  13.621   4.959  0.0511 -0.1311  0.3125
20052W        W36526   5.478   5.110   0.424  0.0560  0.0006 -0.1593
20053W        W36527  14.390   7.308  13.638  0.2074 -0.0092  0.2069
20054W        W36528   7.578   8.864   2.361 -0.0955  0.0059  0.2293
20055W        W36529   1.290  14.755  13.089 -0.0791 -0.1724 -0.3165
20056W        W36530  14.471  14.909  10.884 -0.1127  0.1205  0.5567
20057W        W36531   0.761  14.196   5.177  0.3349 -0.1795  0.1248
20058W        W36532   1.086  17.717  15.349 -0.0512 -0.2619 -0.2380
20059W        W36533   9.594   5.055  14.819  0.0815 -0.0007 -0.0143
20060W        W36534  15.080  15.894   4.856  0.1306  0.2472  0.1620
20061W        W36535  15.402   6.669   0.518  0.2218 -0.1973  0.0973
20062W        W36536   4.151  14.693   4.908  0.0142  0.2534 -0.3071
20063W        W36537  14.798   2.728   2.852 -0.1745 -0.0758 -0.0850
20064W        W36538   6.119   4.908  11.289 -0.1119 -0.1517  0.0007
20065W        W36539  10.686   0.703   2.027 -0.2207  0.0345  0.2849
20066W        W36540  11.581  16.601   2.499  0.4539 -0.0533 -0.0881
20067W        W36541  16.286   7.813  11.874  0.2552  0.1588 -0.0205
20068W        W36542   2.525  14.240  11.946  0.2035 -0.3111 -0.2067
20069W        W36543   5.237  12.250  14.154 -0.0648 -0.1685 -0.0631
20070W        W36544   4.126   8.467   3.922 -0.0206 -0.0504  0.2121
20071W        W36545   6.069   8.641  12.574  0.2939 -0.0694  0.0504
20072W        W36546  17.301   4.209   1.763 -0.0445  0.2446 -0.1142
20073W        W36547  13.376   4.253   2.788 -0.1939  0.1484 -0.1383
20074W        W36548  11.274   6.923  11.273  0.1175  0.2896  0.0449
20075W        W36549  10.252  10.849   5.084 -0.2567 -0.2585 -0.4277
20076W        W36550  14.947  11.492   3.508  0.1623 -0.1040 -0.0393
20077W        W36551   8.850  14.486  11.645  0.1380  0.0323 -0.2617
20078W        W36552   3.313   8.115  13.147 -0.5263  0.0224  0.1002
20079W        W36553   3.309  17.413  12.499 -0.1004  0.2353  0.4046
20080W        W36554   2.295  15.411   3.507  0.2274 -0.1644  0.0615
20081W        W36555   3.400   1.364  14.597 -0.1220 -0.1024  0.1613
20082W        W36556  17.513   4.269  11.620 -0.0068 -0.2291 -0.0833
20083W        W36557  11.027  10.665  12.368  0.5126  0.1428  0.0543
20084W        W36558  12.933   0.261  10.994  0.0501 -0.1785 -0.0761
20085W        W36559  18.334  16.214  13.940 -0.1019  0.0315 -0.1236
20086W        W36560  16.924   8.054   4.170 -0.1785  0.0595  0.1208
20087W        W36561  13.386   5.433   4.255  0.0365  0.2086  0.1343
20088W        W36562   7.058  12.507  14.984  0.0071 -0.0113 -0.0225
20089W        W36563   3.346   3.773   3.357  0.2225  0.1671 -0.0079
20090W        W36564   4.939   0.349  10.666  0.3229 -0.1455  0.0938
20091W        W36565  18.212   5.792  12.371 -0.1162 -0.1096  0.0435
20092W        W36566   6.494  13.224  11.915  0.2107  0.2930  0.1222
20093W        W36567   8.945  17.533   1.352  0.0451  0.0849  0.5569
20094W        W36568  10.714   5.989   2.599  0.1160  0.0434  0.1201
20095W        W36569   9.640   4.275  13.127  0.0881 -0.0688  0.1923
20096W        W36570  15.963  18.109  13.603  0.2210  0.0255  0.0001
20097W        W36571  11.027  11.194  15.369 -0.1292 -0.1872 -0.3013
20098W        W36572   3.670   0.510  10.462  0.1405  0.2938  0.2234
20099W        W36573  11.798   4.273   1.670 -0.2583  0.0222 -0.1341
20100W        W36574   4.591  12.260  10.980  0.0325 -0.0685 -0.2106
20101W        W36575  16.396   2.540  15.350 -0.0618  0.0068  0.0653
20102W        W36576  13.779  11.634   4.263  0.0329  0.1958 -0.2145
20103W        W36577   2.614   3.335  11.376 -0.1253  0.3134  0.0621
20104W        W36578  17.646  18.628  14.746  0.1072  0.2121  0.1564
20105W        W36579  17.251   4.994  10.427 -0.1326  0.3474 -0.2758
20106W        W36580  12.749   3.954   5.174 -0.1972  0.0536 -0.1146
20107W        W36581   2.141  18.694  12.943 -0.1618  0.0885 -0.0446
20108W        W36582   9.767  14.864   3.388 -0.1624  0.2092 -0.1392
20109W        W36583   5.884   0.162   2.547  0.2664 -0.0977 -0.3711
20110W        W36584  18.366   5.022  14.598 -0.1742 -0.0954  0.1209
20111W        W36585  13.613   3.164   2.690 -0.3161  0.0094  0.3518
20112W        W36586   2.268   6.158  14.778 -0.0353 -0.0881  0.1401
20113W        W36587   2.666   6.660   1.307 -0.1424  0.0527  0.0031
20114W        W36588   9.624   2.750  14.282 -0.0969 -0.2247  0.1477
20115W        W36589   2.897   8.232  15.035  0.1146  0.1011  0.2295
20116W        W36590   2.361   0.864  12.665  0.0359  0.0841  0.3662
20117W        W36591   3.686   6.523  14.892  0.4273  0.1964  0.0038
20118W        W36592   5.333  11.939  13.764 -0.1754  0.0884  0.1048
20119W        W36593  15.630  14.319  11.612 -0.1158 -0.0192 -0.0548
20120W        W36594  14.036  17.919   5.673  0.1190 -0.0513 -0.1076
20121W        W36595  14.324   1.980   1.335 -0.4476  0.0047  0.1969
20122W        W36596  16.608   4.016  12.863 -0.0428 -0.3488 -0.5141
20123W        W36597  12.804   8.490  13.506 -0.1234  0.0025  0.1613
20124W        W36598   5.409   2.027   0.541  0.1000  0.1363  0.4515
20125W        W36599  15.864   3.481  12.747  0.3185 -0.0722  0.0134
20126W        W36600  14.546  15.768  11.087 -0.2862  0.0451 -0.1716
20127W        W36601   8.456  10.613  12.261  0.1370 -0.0717 -0.0144
20128W        W36602   8.009   9.321   1.160  0.2620 -0.3780  0.0998
20129W        W36603   6.077   4.969  10.258  0.1469 -0.1988  0.1685
20130W        W36604   5.373  16.398   4.859  0.1621  0.1542  0.1361
20131W        W36605  17.906  10.568  14.224  0.1177 -0.0384 -0.1420
20132W        W36606   6.441   5.976   0.610 -0.1173 -0.2125 -0.0847
20133W        W36607   4.473   8.644  10.643 -0.2957  0.0831 -0.3578
20134W        W36608   2.192   6.121  15.245  0.1462  0.0393 -0.3370
20135W        W36609   5.624  12.353   0.480  0.0233 -0.0728 -0.2591
20136W        W36610   5.020  12.056   3.122  0.0113 -0.0956 -0.2364
20137W        W36611  17.925  16.140  12.083  0.1050 -0.0803 -0.0528
20138W        W36612   3.524   4.657  12.869 -0.3331  0.5370  0.1764
20139W        W36613  16.688  17.060   0.052  0.2323 -0.2296  0.1650
20140W        W36614   5.233   9.405  12.821 -0.0329 -0.0430 -0.2250
20141W        W36615  13.126  18.464  14.059  0.0166 -0.0514  0.0264
20142W        W36616   2.335  14.053   2.158  0.1830  0.0995  0.1690
20143W        W36617   3.134   3.649  15.292 -0.2429 -0.1461 -0.2325
20144W        W36618  12.007   1.412   1.464  0.0729  0.1696 -0.2058
20145W        W36619  17.719   1.943  15.137 -0.1647 -0.0807 -0.2626
20146W        W36620   7.715  10.911  10.619  0.1566  0.2531 -0.1150
20147W        W36621  13.202  10.810  12.416  0.1698  0.0107  0.1379
20148W        W36622   4.498   4.001  13.138  0.0961  0.1674  0.1246
20149W        W36623   3.633   3.269  12.314  0.2683  0.2453  0.1425
20150W        W36624  15.726  16.442   1.048  0.0185  0.2767  0.0337
20151W        W36625   7.620   5.765   0.584  0.0157  0.3627 -0.1806
20152W        W36626  13.870   1.789  15.215  0.1628 -0.0782 -0.2969
20153W        W36627   1.300  10.404   0.121 -0.2816 -0.3593  0.2459
20154W        W36628  17.481  12.803  14.595 -0.2564  0.0422  0.1913
20155W        W36629   8.003  13.404   2.259 -0.0400 -0.0910 -0.0701
20156W        W36630  12.470  14.744   5.532  0.0726 -0.1900  0.4990
20157W        W36631  13.803  14.893  15.557 -0.0351  0.1397  0.0118
20158W        W36632   7.896  17.377  14.454 -0.0793  0.3195 -0.3530
20159W        W36633   0.429  14.470   3.320  0.0023  0.0544 -0.1809
20160W        W36634   5.049  10.696  10.801 -0.2480  0.0110 -0.3374
20161W        W36635   6.153  14.138   1.571 -0.0036  0.0487  0.0265
20162W        W36636  11.612   5.719  14.319  0.1653 -0.1371 -0.0587
20163W        W36637  16.009   3.003  11.982 -0.0231  0.0633 -0.0202
20164W        W36638   8.516   0.645   2.881 -0.0113  0.2820 -0.0741
20165W        W36639  14.973  12.512   1.366 -0.1873 -0.1369 -0.0649
20166W        W36640   4.018  15.188  14.402 -0.0279 -0.0591  0.1150
20167W        W36641  12.586  14.616   4.520 -0.0800  0.1492 -0.0913
20168W        W36642  18.298  15.444  15.260  0.1886  0.2389 -0.3244
20169W        W36643  17.346   0.928   2.296  0.2398  0.1028  0.1536
20170W        W36644  13.146  13.714  11.285  0.0416  0.1234 -0.0412
20171W        W36645  16.171   8.215   1.826  0.2923 -0.1833  0.0843
20172W        W36646  15.734  13.390  12.565 -0.1967 -0.2657  0.1487
20173W        W36647  15.997  10.251   5.498 -0.2465  0.1449 -0.2314
20174W        W36648  13.364  13.831  13.695 -0.0830 -0.0807 -0.1697
20175W        W36649   8.204   2.817   3.338 -0.0384  0.1117  0.1437
20176W        W36650   1.898   4.713  14.430  0.3082 -0.0047 -0.1909
20177W        W36651  14.404   7.657  12.873  0.0735 -0.0797 -0.0052
20178W        W36652  18.072  18.716  11.308 -0.0400 -0.1928 -0.0412
20179W        W36653   4.010   8.805  15.116  0.2279  0.2317  0.1748
20180W        W36654  15.995  12.323   4.795  0.2555  0.1647  0.4442
20181W        W36655   8.992   9.554   4.478 -0.0082 -0.1996 -0.2920
20182W        W36656   6.845  18.697   2.438  0.1081 -0.2083  0.1601
20183W        W36657  15.591  11.854   2.594 -0.1937 -0.1799 -0.3315
20184W        W36658   2.214  13.568  11.752 -0.0168  0.2834 -0.0275
20185W        W36659   9.050  11.546  12.911  0.0426  0.2406  0.1762
20186W        W36660  11.334  16.510   2.924 -0.1090  0.0544  0.0314
20187W        W36661  10.931   3.124   4.967  0.1802  0.1422 -0.0778
20188W        W36662   7.354   7.445   2.467 -0.0002  0.1147  0.0043
20189W        W36663  14.395   1.424  13.385 -0.0783  0.1092  0.0904
20190W        W36664  16.257  14.338   2.545  0.2009 -0.0300  0.1543
20191W        W36665  10.035  14.721  13.163 -0.3073 -0.0400 -0.1078
20192W        W36666   0.558  14.684   1.729 -0.1267  0.1314 -0.0275
20193W        W36667  11.866  18.090   5.044 -0.0499 -0.0366  0.2940
20194W        W36668   0.115   6.667  13.284  0.0588 -0.2030  0.1080
20195W        W36669   3.538  11.525   4.301 -0.0410 -0.0522 -0.1213
20196W        W36670   9.034   9.950   3.669  0.1360 -0.1004  0.1403
20197W        W36671  15.502   5.797   0.873 -0.1297  0.0255 -0.0627
20198W        W36672  15.249   6.297   9.945 -0.0292 -0.2225  0.2248
20199W        W36673   3.474   3.240   0.140  0.2504  0.3247  0.1943
20200W        W36674   9.425  16.767  12.980 -0.1229  0.3597  0.0215
20201W        W36675   4.560   5.518   3.021  0.3559  0.0926 -0.1058
20202W        W36676   4.433  12.207  13.721  0.0227 -0.0457  0.0049
20203W        W36677   1.145   9.004   1.881 -0.3820 -0.1200 -0.2444
20204W        W36678   1.912   5.286   9.819 -0.1704  0.2428 -0.0626
20205W        W36679   4.146   6.354   3.663 -0.1321 -0.2846  0.0094
20206W        W36680  16.132   8.185   5.701  0.4292 -0.1149 -0.2714
20207W        W36681   4.603  17.476  14.955  0.1479 -0.0898  0.1194
20208W        W36682   8.856   4.383   3.957 -0.2578  0.0471  0.1116
20209W        W36683  10.154  16.837   2.546  0.2885  0.5725  0.6752
20210W        W36684   6.532  16.734   4.435 -0.1194  0.2913  0.1842
20211W        W36685  11.791   0.385   4.994  0.1759  0.0262 -0.4791
20212W        W36686  11.248   1.242  15.055 -0.0635 -0.0879 -0.0098
20213W        W36687   1.425   3.055   5.061  0.1266 -0.0591  0.0400
20214W        W36688  11.101   5.035   0.153  0.2084  0.1646 -0.1902
20215W        W36689  17.567   8.574  14.135 -0.2934 -0.2170  0.0618
20216W        W36690   0.751  12.909   4.506  0.0669 -0.1326 -0.3340
20217W        W36691   2.896  17.591  12.001  0.1799  0.1110  0.1095
20218W        W36692   4.103   2.896  13.601 -0.0205  0.1194 -0.2583
20219W        W36693   4.208  14.921  12.204  0.0809 -0.1766 -0.0785
20220W        W36694  10.497   4.743   0.552 -0.1035 -0.1095  0.0681
20221W        W36695  12.218   1.133  10.317 -0.0115  0.1591 -0.2468
20222W        W36696   8.892   0.917  15.069  0.3447  0.1015 -0.1565
20223W        W36697  17.974   6.342   3.039  0.0437  0.2391 -0.0770
20224W        W36698  11.013   0.477  14.475  0.0315 -0.2103  0.5015
20225W        W36699  12.184  17.925   0.926 -0.1932 -0.2663  0.0312
20226W        W36700  10.320   8.412  10.869  0.1300 -0.1960 -0.1597
20227W        W36701  17.874  17.340   1.353  0.0102 -0.1051 -0.0056
20228W        W36702  10.063  15.230   5.033  0.2200  0.0939  0.3156
20229W        W36703   3.435  17.931   3.715  0.0617 -0.1697 -0.0992
20230W        W36704   3.210   6.779  11.220  0.0659  0.1828 -0.1154
20231W        W36705  14.358   7.400  10.780 -0.1867 -0.0900  0.0282
20232W        W36706   4.455  12.976  15.566  0.0577 -0.0636 -0.2862
20233W        W36707   6.570  15.306  13.513  0.0973  0.2076 -0.0315
20234W        W36708   8.472  17.897  12.340 -0.2562 -0.1847  0.0662
20235W        W36709   7.387  18.312  12.609  0.2332  0.2532  0.0200
20236W        W36710   9.294   8.118   0.544 -0.1324  0.0664  0.0187
20237W        W36711  15.777   1.911  13.346 -0.1766 -0.0456 -0.0570
20238W        W36712  15.555  14.276   4.917  0.1220 -0.0460 -0.0565
20239W        W36713  14.823  18.499   5.785  0.1433  0.0551 -0.0526
20240W        W36714   5.279   9.784   3.376  0.0403 -0.1865  0.1719
20241W        W36715  13.743  11.724   3.120  0.0471  0.0564  0.0842
20242W        W36716   9.671   3.834  11.679 -0.0439  0.1434  0.1157
20243W        W36717  16.299   5.298   1.136 -0.0577 -0.3678 -0.2466
20244W        W36718  17.628  17.867  15.247  0.1102  0.0953 -0.0342
20245W        W36719  18.079   3.789   1.917 -0.0821 -0.0337  0.2663
20246W        W36720   2.521   1.066  13.806 -0.0732 -0.0422 -0.2101
20247W        W36721   5.651   5.054  14.857 -0.4273  0.1272 -0.0498
20248W        W36722  11.221  14.956  13.835 -0.0961 -0.1145 -0.2375
20249W        W36723  16.453   7.615  14.819  0.1639  0.2423 -0.0298
20250W        W36724   8.020  16.301   3.500 -0.3449  0.1460  0.2258
20251W        W36725  17.474  17.664  10.896 -0.1810  0.2381  0.1003
20252W        W36726   3.761  15.278   1.627 -0.1283 -0.4398  0.0679
20253W        W36727   1.611  18.730  12.101 -0.1065  0.3170  0.2654
20254W        W36728  10.590   9.737  15.545 -0.0222  0.0579  0.0129
20255W        W36729   3.337  18.147   5.182 -0.1215  0.1495 -0.2003
20256W        W36730  11.603  11.546   4.213 -0.1725 -0.0846  0.1429
20257W        W36731   8.648  16.271   4.259 -0.0630  0.2036  0.0651
20258W        W36732  14.766   3.622   0.027  0.0072 -0.0123  0.2000
20259W        W36733   8.332  18.300   5.290  0.0509  0.0260  0.1169
20260W        W36734  18.101  17.564  10.862  0.0550  0.1031  0.1110
20261W        W36735   0.996   1.145  10.879 -0.2425  0.1997  0.1050
20262W        W36736  16.871  15.343  14.704  0.0677  0.2997  0.2275
20263W        W36737  12.233   7.133   4.619 -0.0739  0.2606  0.0664
20264W        W36738   2.416   8.508  12.961 -0.1497  0.0073 -0.0391
20265W        W36739  17.626  11.624   0.588 -0.4134  0.3042  0.1970
20266W        W36740  10.696   0.397  14.900 -0.0497 -0.3642 -0.0220
20267W        W36741   4.955  12.066   3.618 -0.0892 -0.3386  0.3029
20268W        W36742  18.498  13.515   4.941 -0.3417 -0.0441  0.1870
20269W        W36743   3.760   0.245  14.931 -0.1324  0.0530 -0.0477
20270W        W36744   1.899   2.199  13.687  0.0548  0.0615  0.0759
20271W        W36745  16.485  17.500   1.904  0.3219  0.3555  0.0330
20272W        W36746  10.046  16.960   1.264 -0.0727 -0.2208  0.1315
20273W        W36747   4.858   8.040   0.726 -0.0491  0.1112  0.2955
20274W        W36748  10.183  17.235   0.846  0.2706  0.0044 -0.2384
20275W        W36749   2.508   4.787  11.238 -0.0376 -0.1501 -0.2477
20276W        W36750  11.228  14.695   0.813  0.0961  0.0757  0.1056
20277W        W36751   5.822   0.973  14.234  0.1001  0.0653  0.2858
20278W        W36752   0.091  12.443  10.860 -0.1011  0.0127 -0.3047
20279W        W36753  13.498  10.454  12.041 -0.3217 -0.5599  0.0509
20280W        W36754   4.752  12.070  11.885 -0.1066 -0.2042 -0.2021
20281W        W36755   7.032   3.746   1.587  0.1750  0.0030 -0.1124
20282W        W36756  11.665   2.210   5.293  0.2686  0.1887  0.1003
20283W        W36757   3.473   9.007   1.561  0.1371  0.0631 -0.2378
20284W        W36758   2.669   8.520   1.095  0.2131  0.1669 -0.0535
20285W        W36759   4.279   0.476  10.450 -0.1305  0.0447  0.1140
20286W        W36760   8.305  10.073  12.302 -0.0197 -0.1132  0.3066
20287W        W36761  15.763  16.949   4.787  0.2123 -0.0512  0.1640
20288W        W36762  18.779  11.156  11.869 -0.2698  0.2122  0.0310
20289W        W36763   9.173   2.211   1.861 -0.0653 -0.2885 -0.1092
20290W        W36764  15.725   8.475  12.509 -0.1293  0.0710  0.1022
20291W        W36765   9.714   5.449   5.612  0.0855  0.0741  0.3886
20292W        W36766   9.210   5.932  13.207 -0.0298 -0.1659  0.0193
20293W        W36767  17.882  17.508  12.244  0.0395 -0.3264  0.3282
20294W        W36768   2.589   9.352   0.505 -0.3527 -0.1087  0.1996
20295W        W36769   3.807   7.008  12.283  0.2414 -0.0226  0.1606
20296W        W36770   4.466   3.251  13.265  0.0217  0.2722 -0.1092
20297W        W36771   6.947   8.295   4.494 -0.1772  0.2313 -0.1089
20298W        W36772   3.037  14.541  15.217  0.0454  0.2368 -0.0028
20299W        W36773   6.517  16.641   3.504  0.0456  0.0116  0.0275
20300W        W36774   3.928   2.113   4.029  0.0608 -0.0066  0.1848
20301W        W36775   0.796   6.194  11.448  0.1304  0.1052  0.4545
20302W        W36776   7.629   2.617   5.028 -0.0231 -0.0453 -0.1469
20303W        W36777   4.846  18.174  13.872  0.2785  0.0331 -0.1315
20304W        W36778   5.152   9.870  12.550 -0.0480 -0.2058  0.4056
20305W        W36779  15.633   4.422   1.919  0.2409  0.1688  0.0950
20306W        W36780  15.776   3.080  13.944  0.0509 -0.2141  0.2250
20307W        W36781   5.604   4.925  15.479 -0.3973 -0.1496  0.0762
20308W        W36782  10.249   8.307   2.239  0.1576  0.2845  0.2117
20309W        W36783  13.155  13.306  12.133 -0.1840  0.0219 -0.2438
20310W        W36784   1.670   2.396   1.032 -0.0552 -0.2647  0.0973
20311W        W36785   9.274  17.195   2.416 -0.0067  0.0570  0.0301
20312W        W36786  18.342   2.439   4.846 -0.0273 -0.1516 -0.3552
20313W        W36787  17.173  13.564  14.877 -0.0997  0.0472 -0.1867
20314W        W36788   0.338   6.593  15.500 -0.0201 -0.0711  0.0982
20315W        W36789  16.567   5.852  15.547  0.1103  0.0753 -0.0275
20316W        W36790  17.692   5.766  14.018 -0.0919  0.0747 -0.1514
20317W        W36791   6.184   4.798   2.960 -0.3895 -0.0408 -0.2397
20318W        W36792   4.204   4.502   0.567  0.1547  0.3467  0.2625
20319W        W36793  12.651  14.710  15.548  0.1788 -0.3558 -0.1554
20320W        W36794   9.715  15.117  13.024 -0.1589 -0.2315  0.0012
20321W        W36795  12.721   9.964   1.041  0.1648  0.2773 -0.1008
20322W        W36796  16.517   9.404   3.953 -0.3547 -0.1336 -0.0523
20323W        W36797   2.171   3.008  11.824 -0.4007  0.0749 -0.0470
20324W        W36798  16.734   9.850   2.943  0.0841  0.2221 -0.0665
20325W        W36799   4.802  14.182   0.955  0.5144 -0.0310  0.0066
20326W        W36800   0.047  18.752  11.296 -0.0459  0.0679 -0.0062
20327W        W36801  17.454   0.694  13.754 -0.1022  0.1197  0.4587
20328W        W36802   0.365   4.095   4.850 -0.0295 -0.2713 -0.2345
20329W        W36803  17.883   2.425  13.559 -0.0900  0.0953 -0.1013
20330W        W36804  15.063   2.684  14.933 -0.0320  0.2512  0.0072
20331W        W36805   8.755   0.542  13.990  0.2107 -0.1100 -0.1073
20332W        W36806   3.541  11.797   1.511 -0.0176  0.1696 -0.0093
20333W        W36807   5.511   4.737  10.525  0.1017 -0.2581  0.1444
20334W        W36808   7.603   4.553   3.668 -0.0353 -0.0120  0.0309
20335W        W36809   6.718   6.303   1.699  0.0671 -0.0043  0.0996
20336W        W36810   9.410  11.551   0.955  0.0485  0.4251 -0.0817
20337W        W36811   8.136   9.192   4.444  0.3253  0.4625 -0.1858
20338W        W36812   8.417   3.693  12.395  0.0751 -0.0400  0.1831
20339W        W36813   5.928   7.098  12.486 -0.0025 -0.1348  0.2221
20340W        W36814  14.223   2.941   3.466  0.0380  0.3118  0.1333
20341W        W36815   6.507  10.605  11.218 -0.0818 -0.3898  0.1201
20342W        W36816   6.926  14.059   3.723 -0.1284  0.0719  0.3302
20343W        W36817  16.669  16.344   4.451  0.0013 -0.0171 -0.0344
20344W        W36818   5.968  16.348   5.486  0.1320  0.0428 -0.2072
20345W        W36819   0.912  14.273   2.964  0.0442  0.0245 -0.1199
20346W        W36820   1.311   2.324   1.384  0.0120  0.0249  0.1113
20347W        W36821  10.186  10.219  13.403 -0.0677 -0.2611  0.1032
20348W        W36822   3.613  18.575  10.192 -0.2559 -0.2817 -0.2612
20349W        W36823   5.275   4.940   0.921 -0.3969  0.2626 -0.2325
20350W        W36824   9.412  16.329  11.673  0.0323 -0.1113  0.2939
20351W        W36825  15.769   2.281   1.769 -0.4454 -0.0284  0.2005
20352W        W36826  15.198  18.409   5.090  0.5050 -0.1740  0.1298
20353W        W36827   9.195  11.023  15.486  0.1762  0.0111  0.1839
20354W        W36828  16.468   9.319   5.347  0.0250 -0.0185 -0.0521
20355W        W36829  12.971   3.122   1.065  0.3513 -0.1096 -0.1566
20356W        W36830   9.020   8.694   0.512 -0.0766 -0.2388 -0.0831
20357W        W36831   8.866   3.749   0.066  0.0584 -0.0314 -0.2457
20358W        W36832   7.047  12.701  12.994  0.0716  0.0249 -0.0386
20359W        W36833   3.494   7.083  14.852  0.1793  0.3264  0.0944
20360W        W36834  17.877   2.916   0.259 -0.0324 -0.1727 -0.0871
20361W        W36835  18.110  11.400   4.161 -0.2559  0.1730 -0.1771
20362W        W36836  13.365   2.287   5.439 -0.4041  0.0696  0.1124
20363W        W36837  11.441  18.544  14.888  0.1460  0.1275  0.2639
20364W        W36838  14.904  11.146   5.421 -0.0264 -0.1021  0.1833
20365W        W36839  14.781  13.651  13.836  0.2399 -0.1252  0.1698
20366W        W36840  13.453   4.949  12.285  0.4120  0.0627  0.2545
20367W        W36841  14.731  18.090   3.175  0.1680  0.2561  0.2816
20368W        W36842   9.947  10.768   4.739  0.1597 -0.1482 -0.0875
20369W        W36843  13.843  18.432   1.957  0.2056 -0.2157 -0.1273
20370W        W36844  13.962   7.801  11.514  0.1975 -0.1569  0.2768
20371W        W36845  10.519  13.854   2.362 -0.2554  0.1353  0.0522
20372W        W36846  17.341   1.265   3.325 -0.0997  0.0209  0.1762
20373W        W36847  14.662   1.806  14.671  0.0021  0.0434  0.4544
20374W        W36848  14.381  16.934   0.990 -0.0656 -0.2282  0.0467
20375W        W36849  12.962   5.933  14.004 -0.0997  0.1933 -0.1859
20376W        W36850   3.839   4.749  11.714 -0.1138 -0.3101  0.1145
20377W        W36851   7.324   3.425   2.156 -0.3794 -0.1949 -0.0612
20378W        W36852   8.601   5.104   1.167  0.2754  0.1160  0.1897
20379W        W36853   7.635  12.078  14.659  0.0924 -0.1802 -0.0950
20380W        W36854  16.777   1.848  13.653 -0.3214 -0.0332 -0.1598
20381W        W36855   5.640   0.739  13.772 -0.1074  0.0254  0.0205
20382W        W36856  15.947   3.246  13.192  0.1094 -0.0153 -0.1185
20383W        W36857   8.913   7.185   4.509 -0.0781 -0.1830  0.1723
20384W        W36858   2.101   0.639   2.284 -0.0839 -0.0318 -0.0316
20385W        W36859  17.841   2.955   5.157  0.1683  0.1334  0.0060
20386W        W36860   2.391   4.616  12.216  0.0355  0.1111  0.3529
20387W        W36861  11.519  10.638   4.209  0.1251 -0.2010  0.0775
20388W        W36862   8.349  15.149   0.992 -0.0711 -0.2388  0.0303
20389W        W36863  12.034   0.519  11.995 -0.0064 -0.1130  0.1986
20390W        W36864   7.764  15.475   9.980  0.1853 -0.1252 -0.0372
20391W        W36865   6.767   5.713   2.905  0.0085 -0.1528  0.1351
20392W        W36866  10.944   2.588   4.856  0.0761  0.1428  0.1039
20393W        W36867   4.851   5.697  12.842 -0.3037 -0.1021  0.3375
20394W        W36868   8.788  11.983  13.135 -0.4000 -0.0138 -0.0899
20395W        W36869   1.743  14.014   3.103 -0.1082  0.2216 -0.1168
20396W        W36870   4.086   7.135   5.481  0.1425  0.1576 -0.1358
20397W        W36871   1.735  14.500  14.974 -0.0085 -0.0034  0.1336
20398W        W36872   9.060  15.339   2.830 -0.0173  0.0320 -0.0612
20399W        W36873   3.270   5.730   9.489 -0.2351 -0.3692  0.0072
20400W        W36874   3.416  15.575  10.366  0.1755  0.0188 -0.2347
20401W        W36875   6.011   8.168  14.162  0.0699 -0.1945  0.0622
20402W        W36876   1.645   5.355   1.200 -0.1768  0.0496 -0.0742
20403W        W36877   6.002  12.421  11.147 -0.3131 -0.0035 -0.0299
20404W        W36878  11.617   2.710   0.857 -0.2293 -0.1977 -0.0130
20405W        W36879   0.005  11.856  12.197 -0.3471  0.0776 -0.1032
20406W        W36880   5.619   9.766  14.548 -0.0093  0.2244  0.0142
20407W        W36881   7.427  18.763   4.209  0.1670 -0.1586 -0.2011
20408W        W36882  18.453   1.917   1.297 -0.3721 -0.1956  0.4594
20409W        W36883  14.548   9.335  11.506  0.0250  0.1274 -0.2311
20410W        W36884  14.237   5.197  13.123 -0.0452 -0.0730  0.2344
20411W        W36885  10.427  10.389   5.328  0.2330  0.1519 -0.1627
20412W        W36886  17.630   1.318  11.588  0.2103  0.1256 -0.1230
20413W        W36887   3.421  13.837   5.244  0.1638 -0.0188 -0.0495
20414W        W36888   7.388   0.808  12.305 -0.0347  0.1036  0.0244
20415W        W36889   1.931  14.633  14.427  0.1939  0.3119 -0.5315
20416W        W36890  11.899  17.057   3.321  0.0917 -0.2125  0.1886
20417W        W36891   4.427   8.279  14.544  0.2732  0.4206 -0.1083
20418W        W36892  17.827   6.682  11.635  0.0076 -0.1422 -0.1598
20419W        W36893   2.491  15.981  12.626 -0.0538  0.1842  0.0350
20420W        W36894   8.250  17.206   2.076 -0.1096 -0.2606  0.0955
20421W        W36895   2.063   6.390   3.162 -0.1390 -0.2405  0.2888
20422W        W36896   8.935   2.159   5.002 -0.1705  0.1417 -0.0687
20423W        W36897  11.995   3.910  15.317  0.1244 -0.1332 -0.3893
20424W        W36898  16.631  17.466  12.752 -0.2161  0.3227 -0.0360
20425W        W36899   1.710   9.970  13.889 -0.0106  0.1374  0.4146
20426W        W36900   9.021   8.690   2.725 -0.1203 -0.0247 -0.0610
20427W        W36901  18.296  14.034  11.888  0.1971 -0.1399 -0.0284
20428W        W36902   6.940   2.095  14.861  0.2302  0.0376  0.2626
20429W        W36903   7.022   5.264  13.234  0.1891  0.3831 -0.3633
20430W        W36904  10.812  18.362  12.956  0.0330  0.1884 -0.1035
20431W        W36905  11.944   4.396   3.501  0.1369  0.1178  0.4009
20432W        W36906  10.164  17.971  11.613  0.1750  0.0246  0.1435
20433W        W36907   1.199   9.310   3.339  0.1715 -0.0881 -0.2004
20434W        W36908  14.916   7.425   3.954  0.3432  0.2604 -0.0049
20435W        W36909   1.052  17.889   1.785  0.2538 -0.0460 -0.1629
20436W        W36910  15.413  13.873   4.271 -0.1079  0.1497 -0.1133
20437W        W36911  14.104  10.016   0.715  0.1418 -0.1503  0.0726
20438W        W36912  16.002   5.024   4.497 -0.1331 -0.0645  0.2012
20439W        W36913   8.758  13.081   2.247  0.1340  0.1085 -0.0442
20440W        W36914   7.199  13.158  13.169  0.0562  0.1033 -0.3236
20441W        W36915   0.214  15.222   2.594  0.0294 -0.1291 -0.0808
20442W        W36916  18.194  13.735   0.520 -0.1297 -0.0657  0.1539
20443W        W36917  17.005   9.441   4.846  0.0522  0.0568  0.0190
20444W        W36918  12.752  10.281  11.242 -0.0134 -0.3198  0.1033
20445W        W36919   1.246   3.887   3.120  0.1146  0.0742  0.1969
20446W        W36920   0.094   3.142   1.673 -0.2911  0.4193  0.0431
20447W        W36921  11.611  13.350   4.621  0.0805  0.3449  0.1048
20448W        W36922  14.784   3.347   1.613 -0.2269  0.2203  0.0776
20449W        W36923   5.144   0.946  14.812  0.2656  0.0612  0.0720
20450W        W36924   7.236  18.197  15.379  0.1535  0.2095 -0.2072
20451W        W36925   5.643   8.507  13.942 -0.1138 -0.1477 -0.2977
20452W        W36926  14.854  13.930  12.681  0.1222 -0.1978  0.0408
20453W        W36927  17.395   5.505  11.092  0.3116 -0.0289  0.1109
20454W        W36928  14.715  15.415  13.232 -0.1830  0.0935 -0.0189
20455W        W36929   6.856   3.382  10.576 -0.1205  0.1073 -0.2410
20456W        W36930   8.203   9.270  14.386  0.2576  0.0079  0.0005
20457W        W36931  11.456   4.028  12.942  0.0830 -0.1941 -0.3561
20458W        W36932   2.413  13.119  11.573  0.1130  0.0631 -0.0178
20459W        W36933   9.788   8.986   1.934 -0.1591  0.2455  0.0851
20460W        W36934   3.517   1.276   3.125 -0.1734 -0.1655 -0.0542
20461W        W36935  14.598  14.567   4.107  0.0401 -0.1823 -0.2983
20462W        W36936   6.370  15.308  11.455  0.0196 -0.2125 -0.0803
20463W        W36937   9.462   4.895  10.657 -0.4237  0.1587  0.0505
20464W        W36938  17.955   9.899  13.444 -0.0543  0.4417 -0.0548
20465W        W36939  14.575   8.560  13.840 -0.2811 -0.1306  0.1463
20466W        W36940   5.111   6.733  13.015 -0.1119  0.1079 -0.3759
20467W        W36941  11.654  11.820  13.988  0.0350  0.0580  0.3260
20468W        W36942  18.385  11.440  10.961 -0.1242 -0.3151 -0.0762
20469W        W36943   0.355   2.197  12.038 -0.0311 -0.0089 -0.1324
20470W        W36944  10.559   0.485  12.566 -0.0622  0.0658  0.1557
20471W        W36945  12.335   2.245   4.565  0.1908 -0.2641  0.0009
20472W        W36946  18.228   6.676  15.034  0.0361 -0.3323 -0.0182
20473W        W36947   8.252   6.785   1.304  0.2558 -0.4015  0.1319
20474W        W36948  15.868   0.503   0.116  0.1823 -0.1831 -0.2902
20475W        W36949  16.125   3.864  11.094  0.1273 -0.0297 -0.1047
20476W        W36950   6.045   5.711   2.490 -0.3456 -0.1803 -0.1870
20477W        W36951   2.409  14.231  13.075  0.3235  0.1194  0.2503
20478W        W36952   0.558   5.176   3.003  0.1984  0.2058  0.0739
20479W        W36953  13.965   7.583   5.239  0.0408 -0.1514  0.0440
20480W        W36954  14.670  13.266  15.157  0.1281  0.0007  0.2434
20481W        W36955   4.152   7.611   1.046 -0.0947 -0.1686 -0.1339
20482W        W36956   7.292   8.125   0.398  0.1278 -0.0460  0.2188
20483W        W36957   5.721  12.501  15.565 -0.3295  0.0077  0.0689
20484W        W36958  12.708   6.501   5.117  0.2634  0.1283  0.0561
20485W        W36959   9.550   7.141  14.525 -0.2710  0.0239 -0.1565
20486W        W36960   0.170  10.358   4.018  0.1899  0.1480  0.3156
20487W        W36961  16.684   8.249   3.727  0.0666 -0.1082  0.2469
20488W        W36962   4.624   1.027   3.953 -0.0058  0.0886  0.0032
20489W        W36963   9.881  10.945  11.673  0.2036  0.1171  0.1296
20490W        W36964   9.296   8.000  11.382  0.1894  0.0618 -0.1398
20491W        W36965  16.025   2.337   4.949 -0.2068 -0.3111  0.3523
20492W        W36966   9.005   1.344   1.785 -0.5294 -0.0168 -0.0362
20493W        W36967  12.737  13.412  11.947  0.0851  0.1082  0.1923
20494W        W36968  16.418  13.801   3.242 -0.2740 -0.0022 -0.1857
20495W        W36969   0.328  17.171   3.991 -0.2216 -0.0041  0.1988
20496W        W36970  13.371  14.314   0.355 -0.1976 -0.2164  0.0525
20497W        W36971  11.025   6.327  12.126  0.1231  0.0338 -0.2428
20498W        W36972   2.424   4.576   3.097  0.5150  0.0066  0.1767
20499W        W36973   4.470  12.950  11.557 -0.1709 -0.1612 -0.0983
20500W        W36974  17.083   6.145  14.195  0.3823  0.2960  0.1432
20501W        W36975   7.361  10.083   3.160  0.0227 -0.0839 -0.0001
20502W        W36976  14.600  12.309  14.550  0.2180 -0.2336 -0.2318
20503W        W36977   5.764   6.543   3.004  0.0526 -0.2408 -0.0023
20504W        W36978   5.392   4.487  14.663  0.1432 -0.0006 -0.3355
20505W        W36979  16.536   2.550   4.740 -0.1074 -0.2346  0.2583
20506W        W36980   6.714   9.856   2.379  0.3123  0.1598 -0.0758
20507W        W36981   0.750   7.883   0.949 -0.0275 -0.0863 -0.5555
20508W        W36982   1.034   2.323   4.084  0.2061  0.0615  0.0775
20509W        W36983  15.505   1.735   4.768  0.4931  0.1575 -0.1303
20510W        W36984  11.427   8.232   2.472 -0.0049 -0.0011 -0.1184
20511W        W36985  15.343  18.248   3.840 -0.0906  0.0796 -0.2622
20512W        W36986  18.746   5.619   1.828 -0.1328  0.2158  0.0232
20513W        W36987   0.793  17.319   3.161 -0.1716  0.2055 -0.0198
20514W        W36988  16.053   0.023   1.309  0.1613 -0.0418 -0.0498
20515W        W36989   3.916   9.488   4.822  0.2771  0.1100  0.0693
20516W        W36990   3.545  12.454  11.771 -0.1879  0.3305 -0.1492
20517W        W36991   4.620   9.228   3.846  0.2363  0.2615 -0.1353
20518W        W36992  14.124  17.783  12.767 -0.0339  0.0731  0.2315
20519W        W36993   6.360   8.330  13.817 -0.3142 -0.2266 -0.3662
20520W        W36994   4.229  13.693   0.683 -0.0772 -0.1507  0.0594
20521W        W36995   5.735  17.930  10.383 -0.0107 -0.0155  0.1980
20522W        W36996   7.313   1.533  15.235 -0.1110  0.2989  0.0158
20523W        W36997   5.355   8.618   0.881 -0.2033 -0.2414 -0.0864
20524W        W36998  12.211  16.682   4.598 -0.3715  0.1306 -0.4254
20525W        W36999   3.193   6.319   0.222  0.0234  0.0861  0.1896
20526W        W37000   3.897   1.063   9.667 -0.1264 -0.0346 -0.3286
20527W        W37001  10.208  13.374  11.937  0.1189  0.0429  0.2346
20528W        W37002  18.306   6.761  12.581  0.4147 -0.1067  0.2633
20529W        W37003  14.340  11.070   1.964 -0.1393  0.0224  0.0321
20530W        W37004  11.747  15.689   1.625  0.2592 -0.0360 -0.2418
20531W        W37005   1.057  17.706   0.326  0.0885 -0.2107 -0.0697
20532W        W37006   1.429  16.591   0.339 -0.0195  0.0813 -0.0288
20533W        W37007   2.521  14.534  10.478 -0.0845  0.1704  0.1834
20534W        W37008   6.905  18.524  12.739 -0.1846  0.1269  0.3507
20535W        W37009  14.403   1.114  14.667  0.0623 -0.2093  0.1426
20536W        W37010   6.060   6.960  12.935  0.2253  0.0989 -0.1934
20537W        W37011   4.451   4.190   1.412  0.0862  0.0297  0.0530
20538W        W37012   9.738   9.364  10.810 -0.1346  0.0404  0.0196
20539W        W37013   8.191  18.329   0.752 -0.0025  0.0954  0.1166
20540W        W37014  17.105  14.979  11.048 -0.0705  0.2096 -0.0043
20541W        W37015  17.966   9.549  14.531  0.0596  0.0638 -0.0898
20542W        W37016   7.298  15.929   1.279  0.0385 -0.2376  0.0990
20543W        W37017   0.498  13.423   2.525 -0.3083 -0.2705 -0.1781
20544W        W37018  15.629   9.556  13.972 -0.2032 -0.0794 -0.4473
20545W        W37019   5.781  18.406  12.228 -0.2394  0.0762 -0.1643
20546W        W37020   5.703  16.692  13.996  0.0945  0.1335  0.3304
20547W        W37021   9.868   5.575  12.338  0.2511 -0.1369  0.1118
20548W        W37022   9.558  10.826   2.965  0.0351 -0.1088 -0.1028
20549W        W37023   4.167   6.428  12.104  0.0469 -0.0284  0.0538
20550W        W37024  13.717   8.134   0.349  0.1519 -0.1689 -0.0325
20551W        W37025   6.177   8.512   4.906  0.2813 -0.1923 -0.1453
20552W        W37026  11.898  14.787   3.380 -0.1759  0.0067 -0.0562
20553W        W37027   1.923   1.698   3.321 -0.1841 -0.2512  0.3278
20554W        W37028  15.461   9.182   2.751  0.1111 -0.0364  0.0295
20555W        W37029   4.893   2.525  10.545  0.0098  0.1684  0.1728
20556W        W37030   2.851  14.298  14.343  0.1548  0.0526 -0.1196
20557W        W37031   6.269   1.392  15.379 -0.2615  0.0279  0.2219
20558W        W37032   8.615  18.059   0.895 -0.0372  0.1692 -0.1449
20559W        W37033   5.727  11.166   0.025  0.0501  0.0608 -0.1762
20560W        W37034   4.355  13.575  10.911  0.1055 -0.4240 -0.0908
20561W        W37035  13.068   2.050  13.354  0.0427 -0.0915  0.1480
20562W        W37036  15.463   3.977   4.315 -0.4006  0.1318  0.0016
20563W        W37037   1.015  18.097  12.671  0.1532  0.1187  0.3882
20564W        W37038   6.390   5.517  13.762 -0.0082 -0.2255 -0.4855
20565W        W37039   8.805  13.054   1.207  0.0687 -0.2011 -0.1048
20566W        W37040  17.281   1.443   2.272 -0.2931 -0.2053 -0.1322
20567W        W37041   9.360  13.975   1.006  0.1820 -0.0987  0.1319
20568W        W37042   1.178   6.919   2.298  0.0104 -0.0715 -0.0894
20569W        W37043   9.032   8.090  14.520  0.0727  0.1685 -0.0903
20570W        W37044   0.262  18.573   1.788  0.3953  0.1905 -0.0523
20571W        W37045   2.991   5.959  12.348  0.3047 -0.0805 -0.0575
20572W        W37046   4.865   2.939   1.304 -0.0967  0.1103  0.0081
20573W        W37047   2.233   3.695   1.267 -0.1943  0.0089 -0.3128
20574W        W37048   8.646  10.053  13.824  0.1446 -0.2497 -0.0723
20575W        W37049   0.791   6.678   1.866 -0.1548 -0.3208  0.1861
20576W        W37050   4.168  13.273  11.773  0.4080 -0.1298 -0.1164
20577W        W37051  17.441   4.176  11.063 -0.3950  0.1233  0.0465
20578W        W37052   5.643  13.418  15.541  0.2016 -0.2049  0.3285
20579W        W37053  18.755  13.403   0.427  0.2401 -0.2611 -0.0251
20580W        W37054  17.094   0.053   5.849  0.0484 -0.1715 -0.2832
20581W        W37055  18.050   9.351   0.493  0.1725 -0.3145 -0.0508
20582W        W37056   0.875   6.680   5.026  0.0412  0.0597 -0.3803
20583W        W37057   4.611   5.820   0.853 -0.4159 -0.0282  0.1144
20584W        W37058  16.662   9.752   3.445  0.0718 -0.1269  0.1854
20585W        W37059  16.588   8.028  15.028  0.0256 -0.0400  0.1997
20586W        W37060  14.880  15.680   2.654 -0.1255  0.0063 -0.2547
20587W        W37061   0.392  15.353  12.752  0.1573 -0.2250 -0.2125
20588W        W37062  18.056  11.891   3.929  0.1690  0.3270  0.0418
20589W        W37063   0.676  13.894   2.598 -0.1630 -0.0469 -0.1553
20590W        W37064  16.669  11.020  11.647  0.1084  0.1720 -0.1425
20591W        W37065  17.354   9.331   5.338 -0.2107  0.1844  0.4666
20592W        W37066   0.675   7.444  12.775 -0.0817  0.1589  0.2571
20593W        W37067   8.207   3.639   0.716 -0.0051 -0.0842 -0.2045
20594W        W37068  16.012   4.886   2.746  0.2504 -0.4285  0.6930
20595W        W37069  15.405   1.137   2.114  0.0098 -0.2008  0.1723
20596W        W37070   9.336   1.739   3.895 -0.1847  0.2281 -0.2278
20597W        W37071   8.393  12.276   2.997  0.1610  0.0314 -0.0358
20598W        W37072  10.679  10.926  11.764 -0.0998  0.3003  0.2407
20599W        W37073  10.497   4.519  13.007  0.1798 -0.1497  0.2356
20600W        W37074   8.931   9.864   3.119 -0.2981  0.4866 -0.2962
20601W        W37075   4.671   7.105  14.753  0.1126  0.1470 -0.1955
20602W        W37076  12.147  13.367   0.776 -0.0073  0.1154 -0.0792
20603W        W37077   0.683   4.528  10.325 -0.3025  0.0112 -0.2178
20604W        W37078   5.377   7.701   1.833 -0.3717  0.0860  0.2074
20605W        W37079   0.266   0.019   0.467  0.0457 -0.0065 -0.2838
20606W        W37080  18.251   9.840  14.793 -0.1166  0.0135 -0.0540
20607W        W37081   6.367  12.991   2.352 -0.1231 -0.1690 -0.0107
20608W        W37082   8.151  11.342   5.107  0.2672  0.1391 -0.0265
20609W        W37083   8.466  12.313  11.339  0.1735 -0.1277  0.1942
20610W        W37084   3.296   2.757  15.209  0.1279 -0.1646 -0.1742
20611W        W37085   6.550  12.835  12.833  0.1540 -0.5277  0.1190
20612W        W37086  10.653  16.843   2.568 -0.2205 -0.1001  0.0429
20613W        W37087   0.269   3.637   0.223 -0.1002 -0.0976  0.4390
20614W        W37088   1.255  10.727   3.672 -0.1254  0.1766 -0.1107
20615W        W37089  16.391  11.041   2.743  0.2766  0.2177  0.1883
20616W        W37090   1.854   4.548  13.921 -0.2881 -0.1191  0.0629
20617W        W37091   6.867  16.358   5.478  0.1533 -0.3137 -0.0870
20618W        W37092   6.846  10.307  13.286 -0.0251  0.3184  0.1319
20619W        W37093   1.375   9.291   1.471 -0.0581 -0.0114  0.0591
20620W        W37094  14.353   2.824  14.059 -0.2652 -0.0732 -0.0737
20621W        W37095  12.572   1.502  14.205 -0.3025  0.1025 -0.2835
20622W        W37096   5.016   9.915  11.711  0.3914 -0.1313 -0.0943
20623W        W37097   5.635  18.390   0.884 -0.3679  0.3316 -0.0129
20624W        W37098   6.003  15.891  12.200 -0.1283 -0.0683 -0.1238
20625W        W37099  15.086   1.458  12.787  0.1633 -0.2088  0.0328
20626W        W37100   1.270   1.685  13.094  0.1529  0.1958 -0.1028
20627W        W37101  10.969   8.728   4.148 -0.1954  0.1373  0.1710
20628W        W37102  18.674  16.878   1.544  0.1088  0.0064 -0.0882
20629W        W37103   2.279   4.455   0.201 -0.3072 -0.1626 -0.0197
20630W        W37104   5.243   8.082   1.003 -0.1527  0.0309  0.2437
20631W        W37105   3.608  10.257  14.857 -0.1558 -0.0475  0.0896
20632W        W37106  17.120  16.576   4.754 -0.1751 -0.1588  0.1010
20633W        W37107   4.330   0.373   0.791  0.4798 -0.0696 -0.0513
20634W        W37108   0.023   4.398  10.743  0.3002 -0.1573 -0.0023
20635W        W37109   2.906  17.844   2.006  0.2504 -0.2093  0.0591
20636W        W37110  16.618  10.704  15.193 -0.0675 -0.0456 -0.2486
20637W        W37111   5.167   7.853   1.430  0.1174 -0.2665 -0.1269
20638W        W37112   6.173   2.823  13.096  0.3307  0.2753 -0.0215
20639W        W37113  13.386  17.051   0.863 -0.2219  0.0974  0.0491
20640W        W37114  18.493  10.350   4.655 -0.0471  0.1595  0.0122
20641W        W37115  16.268   6.159   1.562 -0.3893  0.0842 -0.1448
20642W        W37116   1.815  12.096  14.423 -0.0921  0.1046  0.1264
20643W        W37117  10.490   0.296  13.223  0.1897 -0.1740  0.0569
20644W        W37118  14.847   0.158   3.566 -0.1138  0.2537 -0.1190
20645W        W37119  17.132   3.149  11.409  0.1493 -0.0816 -0.1488
20646W        W37120   5.390  10.911  12.174 -0.0824  0.0802 -0.0239
20647W        W37121   9.335  16.673   5.830  0.0530  0.2498 -0.0638
20648W        W37122   6.869  16.074  14.094  0.3066  0.0999  0.1146
20649W        W37123  10.886   7.602  11.203 -0.1708 -0.0324 -0.3996
20650W        W37124   0.120  18.749   0.931 -0.4439 -0.0621  0.0007
20651W        W37125  14.252  14.438   4.465 -0.1059 -0.3728 -0.2216
20652W        W37126  13.549   7.320   3.678 -0.1377 -0.2723  0.0915
20653W        W37127  14.238  16.667  15.094  0.1017 -0.0494 -0.4437
20654W        W37128   3.265  16.971   4.430  0.0675  0.0678 -0.1516
20655W        W37129   8.101   3.403   5.342 -0.1379  0.4070 -0.0711
20656W        W37130  15.266   8.558   0.630  0.1211  0.0170  0.2806
20657W        W37131   7.581  14.713  12.688 -0.0041 -0.2245 -0.0176
20658W        W37132   9.295  12.527   5.537  0.0961 -0.2828  0.0116
20659W        W37133  10.659  15.557  13.045 -0.2020  0.0222  0.1091
20660W        W37134  18.774   1.531  14.066  0.1027  0.4431  0.3361
20661W        W37135   2.733   1.487  12.316  0.2196 -0.1039  0.1007
20662W        W37136   7.591   1.554   3.531 -0.0601 -0.0364  0.1407
20663W        W37137   4.054  14.034   3.583 -0.0573 -0.1396 -0.0964
20664W        W37138   8.175   4.677  10.975  0.0167 -0.3562 -0.0687
20665W        W37139   9.564   1.402   0.704 -0.1278 -0.1818  0.1239
20666W        W37140   4.444  18.495  12.194 -0.2664  0.0937 -0.0222
20667W        W37141   7.583   0.271   6.022 -0.0527 -0.1152  0.0992
20668W        W37142  13.923  18.288   0.426 -0.2425  0.1825  0.0240
20669W        W37143  11.690  16.310  13.915 -0.1696  0.3155 -0.1016
20670W        W37144   5.954  11.278  13.422  0.1433  0.2087 -0.0850
20671W        W37145  13.920   2.673  12.335  0.2127 -0.0216  0.1378
20672W        W37146   0.506   3.136  12.163  0.2245 -0.0565  0.0513
20673W        W37147   8.202   5.032  11.882  0.1535 -0.2625 -0.1025
20674W        W37148   3.443   1.191   0.991  0.0129  0.1147  0.0310
20675W        W37149   6.995   8.838   2.225  0.0814 -0.3269 -0.0228
20676W        W37150  14.410   0.173  13.488 -0.0352  0.0577  0.1073
20677W        W37151  11.761  14.248  12.217 -0.1412 -0.1788  0.2028
20678W        W37152   1.314   7.604  14.870 -0.4345 -0.3239 -0.3206
20679W        W37153   0.398   2.402   5.113 -0.2173  0.2207  0.2604
20680W        W37154   1.112   5.370   3.068  0.1309  0.0160  0.0021
20681W        W37155  11.931   8.087   3.838 -0.3227  0.0340 -0.0645
20682W        W37156  17.878  13.419  10.557  0.1793  0.2833  0.2501
20683W        W37157  11.988  11.482  13.379 -0.0517  0.0925  0.0262
20684W        W37158   8.755   9.763  15.538  0.2727  0.2883 -0.0662
20685W        W37159   1.658  15.021  14.329 -0.1609  0.0307 -0.0186
20686W        W37160  18.367  10.114  11.081 -0.1409  0.0148 -0.2028
20687W        W37161   5.968  18.424   3.285 -0.1016  0.1925  0.1232
20688W        W37162  13.171   8.725   4.388 -0.0597 -0.2461  0.2732
20689W        W37163   2.770   9.801  11.337  0.0362  0.0190 -0.3045
20690W        W37164   8.756   5.811  13.520 -0.1251  0.0563 -0.1708
20691W        W37165  18.180   5.357  11.431  0.2519 -0.3063  0.2164
20692W        W37166   6.063   8.125   4.110 -0.1842  0.0285 -0.0894
20693W        W37167   0.113  17.885   0.365  0.1092  0.2766  0.1253
20694W        W37168  15.825  12.325   4.320  0.3415 -0.0482  0.3285
20695W        W37169   6.437   2.444  12.990 -0.3169  0.0440 -0.1324
20696W        W37170   8.781   5.397   4.120 -0.2555  0.1613  0.0991
20697W        W37171  16.437   5.272   0.611 -0.3286  0.2042  0.1171
20698W        W37172  17.961  17.943  13.727  0.0910  0.0272 -0.0320
20699W        W37173  14.714   8.706  15.511 -0.0130  0.3111 -0.1618
20700W        W37174   1.923  14.578   1.358 -0.2775  0.0143 -0.0117
20701W        W37175  10.700  11.384  13.534 -0.0838  0.3663 -0.0739
20702W        W37176  15.999   9.167  15.258  0.0492 -0.3539  0.0472
20703W        W37177  17.443   6.427   4.404  0.1455 -0.3039 -0.0360
20704W        W37178   0.412  17.151  14.318 -0.0581  0.0765 -0.1357
20705W        W37179  13.772  14.504   3.736 -0.1046 -0.1237 -0.1042
20706W        W37180  18.146   0.575   0.546 -0.1644  0.1332 -0.0626
20707W        W37181   5.875  15.511  10.680  0.0517  0.0673 -0.1220
20708W        W37182  18.209   4.900  12.546  0.0578  0.0081  0.3169
20709W        W37183   0.901  14.073   2.161  0.0058 -0.0931 -0.1735
20710W        W37184   3.940   3.410  15.515 -0.0191  0.1218 -0.2388
20711W        W37185   7.636   4.237  11.576  0.3940 -0.1781 -0.0010
20712W        W37186  18.014   2.517  12.031 -0.3162 -0.3197  0.3008
20713W        W37187   0.384   8.148   2.279 -0.1618  0.4391  0.2021
20714W        W37188   3.217   7.044  12.334  0.1570 -0.4451  0.1075
20715W        W37189  17.193   1.712  13.876  0.0070  0.0663  0.0036
20716W        W37190  16.610  18.352   5.081 -0.0836  0.0747  0.0912
20717W        W37191   4.052   4.909  13.452  0.0653 -0.2335  0.2729
20718W        W37192  14.222  18.395   1.593  0.1763 -0.0992 -0.0752
20719W        W37193  16.857   1.526  12.498  0.1806  0.0292  0.3817
20720W        W37194  16.130  13.073  12.395 -0.3398  0.0993 -0.0881
20721W        W37195   7.650   8.901   3.515 -0.1361 -0.0020 -0.0353
20722W        W37196   1.019   8.199  12.213 -0.0087  0.0042  0.0705
20723W        W37197   8.640  12.802   3.021  0.1129  0.1940 -0.0489
20724W        W37198   5.292   4.242   1.229 -0.0913  0.1610  0.0647
20725W        W37199  12.823  14.543  11.248  0.2620 -0.0644 -0.3413
20726W        W37200  13.506   6.434   4.548  0.4335 -0.4504  0.3042
20727W        W37201   9.514  11.183  12.815  0.1894 -0.0309 -0.2230
20728W        W37202   8.284   2.724   3.805  0.1736 -0.0293  0.3200
20729W        W37203   7.100  14.844   4.764 -0.0405 -0.1366  0.1791
20730W        W37204  13.638   4.419  15.308 -0.1290 -0.1301  0.0819
20731W        W37205  15.430  16.161   5.742  0.1811  0.0568 -0.0455
20732W        W37206   6.354   1.092   0.247  0.1321  0.1514  0.1247
20733W        W37207  12.732  12.277   1.412 -0.0561 -0.0369 -0.1869
20734W        W37208   5.242  15.197   2.796 -0.1277 -0.0615  0.0349
20735W        W37209   8.927   7.754   1.257 -0.1418  0.0857  0.1309
20736W        W37210  15.285   5.749  14.982 -0.0635  0.1003 -0.0612
20737W        W37211  11.744   2.824  11.717  0.0209 -0.0187 -0.6119
20738W        W37212  14.482   1.458   3.139  0.2323  0.0371 -0.2465
20739W        W37213   6.808  15.404   1.876 -0.2639  0.4301  0.0749
20740W        W37214   6.487   5.331   1.532 -0.0983 -0.2132  0.0772
20741W        W37215   2.977  11.059  12.773  0.0380  0.0351 -0.0900
20742W        W37216   2.272  14.887   0.804  0.0611 -0.0413 -0.1450
20743W        W37217   9.405  15.442   1.373 -0.0693  0.1567  0.4550
20744W        W37218   1.618  17.518   4.668 -0.1572 -0.0281 -0.1773
20745W        W37219   6.843  15.779   1.032  0.1223  0.0980 -0.0899
20746W        W37220   5.369   6.773  11.279  0.2009 -0.0040 -0.0237
20747W        W37221  14.108  10.035  15.142  0.0284 -0.0357 -0.0651
20748W        W37222   1.586   8.645   2.311 -0.0226 -0.0699 -0.0364
20749W        W37223   8.531   6.333   4.063  0.1653  0.2312 -0.1035
20750W        W37224  10.360  16.844  11.629 -0.4261  0.0888 -0.0216
20751W        W37225   0.938  10.940  13.031  0.1706 -0.3605  0.0831
20752W        W37226  18.039  18.344  14.160  0.2910 -0.2510  0.0253
20753W        W37227   0.843   1.700  14.443 -0.1124  0.0010 -0.0585
20754W        W37228  15.169   0.094  11.789  0.0287  0.1170  0.1251
20755W        W37229   8.187   2.548   2.032 -0.1290  0.0797  0.1863
20756W        W37230   3.019   7.404   2.805  0.1365  0.2520  0.1732
20757W        W37231   5.054   1.583   3.622  0.0674  0.0422 -0.1492
20758W        W37232  12.868   7.676  13.966  0.0817  0.2080 -0.1774
20759W        W37233   2.894   1.953  10.469 -0.1835  0.1858 -0.0188
20760W        W37234   6.441  13.110   3.322  0.0265  0.0586  0.0324
20761W        W37235   6.842   9.918   3.242  0.1978  0.2191  0.0621
20762W        W37236   8.114   1.079   1.395  0.1212 -0.4175  0.1066
20763W        W37237   2.255   8.048   2.762  0.0827 -0.0100 -0.0641
20764W        W37238  12.835   2.358  13.037 -0.0457 -0.2804  0.2180
20765W        W37239  16.224   5.367   2.637 -0.3916 -0.1821  0.0644
20766W        W37240   7.069   5.867   1.209 -0.3348  0.1529  0.0342
20767W        W37241   8.091  15.112  14.394 -0.2565 -0.0023 -0.4353
20768W        W37242   9.492   4.897  15.316  0.0304 -0.1063 -0.0171
20769W        W37243   1.168  12.513   0.207  0.0345 -0.1096  0.3481
20770W        W37244   8.402  12.922   5.423 -0.0606  0.0464  0.1544
20771W        W37245  15.150  11.369   4.931  0.2889  0.0729  0.1791
20772W        W37246  15.063  17.524  11.190 -0.1012 -0.2103 -0.0794
20773W        W37247  10.681   3.568  13.405  0.0022  0.2804  0.2585
20774W        W37248   4.021   7.469  12.242  0.0406 -0.1095  0.1385
20775W        W37249  12.205   7.310  13.015 -0.0966  0.0630 -0.0642
20776W        W37250   2.807   3.853   2.326  0.0391 -0.3858 -0.0362
20777W        W37251   8.226  17.806   0.670  0.3026  0.1346 -0.0099
20778W        W37252  17.322  15.408  14.416  0.1102  0.0176 -0.1221
20779W        W37253   5.038   1.421   0.045  0.0516 -0.0508  0.0535
20780W        W37254  14.568  12.112   4.158 -0.0532  0.0508  0.0264
20781W        W37255  12.234   8.396  14.567  0.1184  0.1775  0.1718
20782W        W37256   9.678  15.499  11.505 -0.1378 -0.0324 -0.2470
20783W        W37257  13.458   9.717  11.147 -0.0371 -0.0040 -0.1474
20784W        W37258  11.035  17.441   2.769 -0.2232 -0.0091 -0.0293
20785W        W37259   1.839  15.271  12.429  0.1027 -0.3948  0.0121
20786W        W37260   9.083   7.136   0.426  0.1562 -0.0138 -0.3096
20787W        W37261  11.136  11.224   5.864  0.0901 -0.1277  0.1722
20788W        W37262  12.588   1.650   2.908  0.2388  0.0043  0.0060
20789W        W37263  14.371  10.302   4.162  0.1145  0.2063 -0.0398
20790W        W37264  14.175   8.590  13.360 -0.1894  0.0603  0.1216
20791W        W37265   0.237   7.052   3.393  0.1606 -0.0216  0.0056
20792W        W37266  16.579  15.360   4.824  0.0503  0.1639 -0.2219
20793W        W37267  14.753   7.544  12.210 -0.0880  0.3276  0.1819
20794W        W37268   2.126   3.278   1.823 -0.1902  0.1582 -0.3389
20795W        W37269   9.576   7.173   3.972  0.1698 -0.0584  0.0901
20796W        W37270  12.008   6.167  15.107 -0.0355 -0.2092 -0.3443
20797W        W37271   6.917  17.176  14.973  0.1214  0.0156 -0.1339
20798W        W37272  15.010  10.237  15.178  0.1837  0.0825 -0.1034
20799W        W37273  14.052  13.105  13.932 -0.0259  0.2226 -0.3029
20800W        W37274   1.374  13.270   2.187 -0.1077 -0.3002 -0.0619
20801W        W37275  11.927   1.435  14.354  0.0772 -0.1685  0.1264
20802W        W37276  14.971   2.102  11.001 -0.0462 -0.2182  0.0478
20803W        W37277   5.124  10.758  12.552  0.1360 -0.0801 -0.1766
20804W        W37278  13.117  15.339  11.801 -0.0387 -0.1064 -0.0937
20805W        W37279  11.699  11.589   1.076  0.1555 -0.2237  0.2262
20806W        W37280  18.337   2.041   3.978  0.3927  0.1012 -0.1107
20807W        W37281  12.560   1.790  12.054  0.1648  0.2801  0.3198
20808W        W37282   2.822  17.573   0.479 -0.1397  0.4778  0.2142
20809W        W37283   0.865   3.388  13.013 -0.0116  0.1262 -0.0481
20810W        W37284  15.108   9.924  12.669 -0.0022  0.0745 -0.0614
20811W        W37285  11.244   8.671   5.016  0.0878 -0.0583 -0.2998
20812W        W37286   2.898   2.914  10.091  0.1028  0.0794 -0.2825
20813W        W37287  10.002   0.406  13.521 -0.3815 -0.0506  0.2156
20814W        W37288  10.077   4.620  13.730  0.2582  0.0486 -0.2842
20815W        W37289   8.394  12.674   2.106  0.0033 -0.0339  0.2370
20816W        W37290   5.470   4.080  13.768  0.1868  0.0142  0.2614
20817W        W37291   6.161   1.148   4.569 -0.1921 -0.5236 -0.1736
20818W        W37292   8.336   6.817   4.781 -0.3538 -0.3135 -0.1176
20819W        W37293   2.135  16.533   1.116 -0.0697 -0.2332 -0.2009
20820W        W37294   4.371   3.671   1.225  0.3984 -0.0145 -0.0301
20821W        W37295  12.899   9.099  15.488  0.1595 -0.0475  0.0825
20822W        W37296  18.011   2.777   4.700  0.5382  0.3780 -0.2562
20823W        W37297  11.896   2.482   1.345  0.2640  0.1661 -0.0625
20824W        W37298   7.191   2.676  14.042  0.0918 -0.0706 -0.2571
20825W        W37299  11.967   7.296  13.765  0.0687  0.0217  0.0082
20826W        W37300   5.301  13.703  15.317 -0.3490  0.0345 -0.0844
20827W        W37301   2.352  16.842  13.733  0.1432 -0.0726 -0.1506
20828W        W37302   0.744   1.380   2.373  0.0656 -0.1552  0.1972
20829W        W37303   9.915   0.835  15.547  0.2979 -0.0087 -0.0366
20830W        W37304  13.606  10.494   5.420  0.0522 -0.1632  0.1426
20831W        W37305  11.912   5.824  11.208 -0.0827 -0.0730  0.1473
20832W        W37306   4.304   7.019   0.315 -0.1670  0.1272  0.0170
20833W        W37307  13.302  10.490   4.873 -0.1385 -0.2808  0.0209
20834W        W37308   7.260   9.978  10.936 -0.2477 -0.2031 -0.3008
20835W        W37309  17.973  10.427  13.369 -0.2266 -0.1666  0.4822
20836W        W37310  13.916   4.215  14.296 -0.1936  0.0265  0.3816
20837W        W37311  15.192   3.063  11.221 -0.2220  0.1321 -0.3702
20838W        W37312  15.081   0.133   5.009  0.0991  0.1759 -0.4083
20839W        W37313   0.753   6.858  13.900 -0.0877 -0.0417 -0.1751
20840W        W37314  13.070   6.730  11.363  0.0703  0.2914 -0.0580
20841W        W37315  15.794   6.799   1.379  0.2893 -0.2272  0.1113
20842W        W37316   7.997  12.800   3.838  0.2188 -0.0793 -0.2611
20843W        W37317  15.226   4.624   2.064  0.1604 -0.2501  0.1691
20844W        W37318  14.540   0.943   3.915  0.2709 -0.2582  0.0504
20845W        W37319  12.228   2.973   3.010 -0.1252  0.1038 -0.0704
20846W        W37320  16.005   5.248  12.800  0.0339 -0.1566  0.0843
20847W        W37321  12.650  17.367   1.322  0.0310 -0.0239  0.0906
20848W        W37322   3.083   4.488  14.781  0.2784  0.1443 -0.1809
20849W        W37323   3.565   6.414   2.890 -0.1474 -0.1896  0.0704
20850W        W37324   3.531   1.496   2.107  0.4337 -0.0004  0.1019
20851W        W37325   8.541   2.789   1.768  0.1141 -0.1188 -0.0394
20852W        W37326  17.721   3.470   0.659 -0.3711 -0.0072 -0.1564
20853W        W37327  17.613  17.733  11.379  0.0117 -0.1482  0.2022
20854W        W37328  12.463   9.414   1.042 -0.0932 -0.2209  0.4702
20855W        W37329   4.389  14.565   1.653  0.0890  0.1589  0.1583
20856W        W37330   3.963   7.003   1.683 -0.1191 -0.0803  0.2557
20857W        W37331  10.092  14.224   4.833 -0.2905  0.1164 -0.1202
20858W        W37332   0.237  10.165   2.503  0.0323  0.0139  0.2826
20859W        W37333   4.383   1.866   2.951 -0.0482 -0.2274 -0.2413
20860W        W37334   0.766  12.204  13.691 -0.1616 -0.2597 -0.3424
20861W        W37335   1.272  15.326  12.447 -0.0945 -0.0103 -0.1575
20862W        W37336  15.810  14.879  11.562  0.1678 -0.2821  0.1669
20863W        W37337   9.365   9.374  11.680  0.1228  0.1365 -0.0438
20864W        W37338   8.870   3.936   2.013  0.3712  0.1813  0.1506
20865W        W37339   7.020  13.976  11.920  0.1176 -0.2711 -0.1428
20866W        W37340  13.457   2.648   5.072  0.1461  0.0958  0.1475
20867W        W37341   4.506   0.654   4.587 -0.2023 -0.1446 -0.2606
20868W        W37342  15.485   6.430  14.494  0.0260 -0.0078 -0.0787
20869W        W37343   5.425  17.388  14.178  0.1402 -0.3508 -0.1464
20870W        W37344   5.168  16.936   0.179  0.2604  0.0936 -0.1558
20871W        W37345   0.927  16.578  14.798  0.2055  0.1271 -0.0701
20872W        W37346   7.765  17.434  10.934  0.1587  0.1605  0.2017
20873W        W37347   0.584  17.517  12.712 -0.0806  0.0460  0.3550
20874W        W37348   7.631   5.966  15.005 -0.1391 -0.2075 -0.0963
20875W        W37349  17.708  17.081  15.527 -0.0653  0.1925  0.1926
20876W        W37350   0.199   7.406   0.313  0.3184  0.0212  0.0856
20877W        W37351  17.893   5.539   2.157  0.1991  0.0693 -0.0266
20878W        W37352  13.079  17.427  10.486  0.3507  0.2256  0.0549
20879W        W37353   3.451   1.074   3.640  0.0291 -0.0633  0.0327
20880W        W37354   8.705   2.256   4.206  0.0006 -0.0513  0.0105
20881W        W37355  14.384  15.497   1.019 -0.2226 -0.3039 -0.1878
20882W        W37356  15.767   7.129  15.221  0.2213  0.0649 -0.1082
20883W        W37357  10.519   5.620   4.775  0.0530  0.1334 -0.0151
20884W        W37358   4.305   0.276   1.835  0.2502  0.1010  0.5455
20885W        W37359   3.114   8.663   3.295  0.2652 -0.0773 -0.0085
20886W        W37360  15.842  12.508   2.027 -0.1516  0.0485 -0.0392
20887W        W37361   8.297   1.616  10.402  0.1299 -0.3905  0.2500
20888W        W37362   2.246   9.404  12.730 -0.0707 -0.0286  0.0558
20889W        W37363   2.925   2.113   5.358  0.1251  0.0227 -0.3775
20890W        W37364  16.104  17.894   0.721 -0.1355  0.1530  0.0258
20891W        W37365   2.215   2.606   0.343 -0.1224  0.4133  0.1033
20892W        W37366   3.011  16.323  12.726  0.0845 -0.0182 -0.2030
20893W        W37367  17.545   5.153   1.860  0.0124  0.0288 -0.1292
20894W        W37368  11.112  17.522  13.057 -0.2550  0.0845 -0.1692
20895W        W37369  13.622  13.970  11.091 -0.0404 -0.0342  0.0895
20896W        W37370   2.851   1.996  13.817  0.0444  0.5832  0.0819
20897W        W37371  15.394   2.502   2.571  0.1501 -0.2194  0.1764
20898W        W37372   2.567  18.468  10.421 -0.3182 -0.0185 -0.1743
20899W        W37373   3.488   9.135   4.731  0.0892  0.2744 -0.3518
20900W        W37374   8.229  16.343  11.889 -0.0570  0.0998 -0.1144
20901W        W37375   8.253  14.716  11.716  0.0564 -0.1890 -0.1420
20902W        W37376   9.762   8.798   4.597 -0.0127 -0.1303 -0.0607
20903W        W37377   3.657  14.205   2.225 -0.0142  0.0984  0.2015
20904W        W37378   6.836   5.804  13.613  0.1917  0.0485  0.0829
20905W        W37379  14.020   4.644  11.059 -0.2273 -0.0326 -0.0228
20906W        W37380   5.355  10.012  10.794 -0.0730  0.1328 -0.1736
20907W        W37381   4.123  12.648   1.281  0.1118  0.0670 -0.0459
20908W        W37382   0.907   3.448  12.018 -0.0502 -0.0840  0.1755
20909W        W37383   6.693  11.375   4.580  0.1894  0.4637 -0.0831
20910W        W37384  16.953  16.288  14.003 -0.0724 -0.2117  0.2643
20911W        W37385   5.207  15.745  13.194  0.0789 -0.2985  0.2323
20912W        W37386  18.340  17.908   2.015  0.4055  0.1426  0.1250
20913W        W37387   7.366   0.017   0.687  0.1789 -0.0273 -0.2309
20914W        W37388   9.514   3.586   1.820 -0.1432 -0.1751 -0.2970
20915W        W37389  10.665   1.698  12.724 -0.0434  0.2361  0.1497
20916W        W37390   6.169   9.829  11.980 -0.2314 -0.2345 -0.1427
20917W        W37391   2.943   5.883  13.637  0.0929 -0.0962 -0.1593
20918W        W37392   8.899   7.713   3.586 -0.1787 -0.0155 -0.0607
20919W        W37393  12.493   3.669   1.509 -0.0591 -0.2117  0.0248
20920W        W37394   1.637  10.890   1.144 -0.2789  0.0904 -0.0483
20921W        W37395   5.844   0.801  13.049  0.0041  0.0031 -0.0772
20922W        W37396  12.185   8.682  13.108 -0.1212  0.3763 -0.2044
20923W        W37397   1.166   6.612  13.145 -0.1430 -0.2786 -0.4332
20924W        W37398   4.523   4.906   3.488 -0.0331 -0.3635 -0.3077
20925W        W37399  13.244   7.699   0.258 -0.0219  0.5536 -0.2019
20926W        W37400  14.008   9.753   1.197 -0.0487 -0.1305  0.0341
20927W        W37401  16.121   2.486  12.741  0.2743 -0.0321 -0.3521
20928W        W37402   2.289  11.928   1.175 -0.0440  0.3105  0.0470
20929W        W37403  11.291  10.636   1.981  0.0769  0.1991 -0.0875
20930W        W37404   0.878  12.195   4.793  0.2725  0.1495 -0.2189
20931W        W37405   8.093   2.062  13.101  0.0431  0.0689 -0.1742
20932W        W37406  12.689   9.021  12.359 -0.5319 -0.2981  0.0109
20933W        W37407  15.986  18.344   1.571 -0.2671  0.1539 -0.0592
20934W        W37408  18.458   2.018  10.238 -0.0056 -0.0963 -0.0840
20935W        W37409   7.212  17.125   3.137 -0.1893  0.0940  0.0869
20936W        W37410   6.368  14.334   4.488 -0.0987  0.1058 -0.2048
20937W        W37411   0.898   3.845   3.910  0.2163  0.2957  0.0474
20938W        W37412   3.215  12.383  14.565 -0.1036  0.1054 -0.0463
20939W        W37413   3.903  16.978  11.067 -0.0062  0.3865  0.3505
20940W        W37414   0.076  13.406  13.440 -0.2116  0.0858 -0.0620
20941W        W37415   3.260   9.515  11.354  0.2529 -0.0024 -0.4289
20942W        W37416  15.450  15.762   3.607  0.0562 -0.1231 -0.4379
20943W        W37417  14.019  11.149  11.902  0.2248  0.0581  0.2551
20944W        W37418  15.027  16.843   2.791  0.0301 -0.2803 -0.0675
20945W        W37419   1.086  12.067  14.124  0.1509  0.1196  0.0819
20946W        W37420  12.787   5.654  14.970  0.0225  0.2677  0.0194
20947W        W37421   3.411  14.616   5.428  0.2672  0.2378  0.1775
20948W        W37422  18.387   4.777  11.078 -0.0972 -0.2778  0.3877
20949W        W37423   8.505   3.916  15.278  0.0605  0.0403  0.2077
20950W        W37424  11.820   7.932   1.467  0.1098 -0.0619  0.1026
20951W        W37425   0.619  16.409   0.287  0.2469  0.1908  0.0186
20952W        W37426   0.112  18.209  11.084  0.1757  0.2466  0.0166
20953W        W37427  18.565  16.113  15.040 -0.0365 -0.0087 -0.0462
20954W        W37428   8.178  14.675   1.569  0.1426  0.3344  0.3163
20955W        W37429  13.385  18.428  11.514  0.1305 -0.1935 -0.5253
20956W        W37430   8.020   1.825   0.841  0.0914  0.1400  0.0962
20957W        W37431   1.216   2.160  10.898 -0.0709  0.0512  0.1225
20958W        W37432   6.436   4.127  11.326  0.2763  0.1846  0.5104
20959W        W37433  15.316  11.760   1.933  0.0344  0.3628 -0.1746
20960W        W37434  18.179  13.081   3.270  0.2395  0.1464  0.1222
20961W        W37435   9.130  15.804   2.671  0.0105 -0.3781  0.0690
20962W        W37436   7.771  16.105   4.363  0.2188 -0.0584 -0.0737
20963W        W37437  18.295  11.094  13.111  0.3809  0.1269 -0.2682
20964W        W37438   0.829  12.490  14.083 -0.0666  0.0357 -0.0119
20965W        W37439  16.643  13.197   1.799 -0.1041 -0.0609  0.1395
20966W        W37440   4.697   1.981   1.518  0.2653 -0.2038 -0.3533
20967W        W37441   3.267  12.429   4.300 -0.1023  0.1378  0.1404
20968W        W37442   8.977   5.360  13.129  0.2390  0.0335 -0.0586
20969W        W37443  11.816  11.802   0.174  0.1073 -0.0593 -0.2500
20970W        W37444  10.592   7.265   1.247 -0.0316 -0.0791  0.1426
20971W        W37445  17.998   9.149  12.887 -0.1241  0.2480  0.0075
20972W        W37446   8.957   9.017   4.708  0.0159  0.0470 -0.1255
20973W        W37447   8.754  17.086  11.783  0.4748 -0.1247  0.1624
20974W        W37448   0.332   8.017  11.684  0.0854  0.1286  0.0461
20975W        W37449  18.471   8.575   4.322  0.0925 -0.0139  0.1074
20976W        W37450   2.422  13.906   4.874  0.1890 -0.0184 -0.2007
20977W        W37451   6.491   8.675   0.533  0.0853 -0.1725 -0.1694
20978W        W37452   8.178  16.070  12.499  0.0197 -0.1786 -0.1213
20979W        W37453   6.303  14.853  11.674  0.1792 -0.0650  0.0644
20980W        W37454   2.662   5.527  14.552 -0.0461  0.2650 -0.1355
20981W        W37455  13.364  11.106   0.907  0.1867 -0.1100  0.1712
20982W        W37456   6.209   3.770   4.196  0.1333  0.0515  0.0803
20983W        W37457   9.907  17.506   1.259  0.3724 -0.4308  0.0361
20984W        W37458  11.863  12.886   5.404 -0.0444 -0.1247 -0.3555
20985W        W37459  13.487  15.468   4.081 -0.1711  0.1186  0.0563
20986W        W37460  13.387  18.409   1.326  0.0809  0.0948 -0.2961
20987W        W37461  12.045   4.352  12.201 -0.0665 -0.2274 -0.0770
20988W        W37462   2.180   9.476  12.032  0.1180 -0.0309 -0.2763
20989W        W37463   6.245  13.869   4.267 -0.0763  0.1488  0.2125
20990W        W37464   9.381  10.951   4.509  0.0707  0.1573 -0.3082
20991W        W37465  18.205   1.775  15.495 -0.3454  0.2192  0.0791
20992W        W37466   0.556  11.610   0.489 -0.1178  0.0388  0.1487
20993W        W37467   2.608   3.619  13.185  0.4433  0.1544  0.0497
20994W        W37468  14.213  13.515  15.042  0.2118  0.2302  0.1870
20995W        W37469   5.389  17.243  10.908  0.1038  0.2931  0.1532
20996W        W37470  15.815  18.178  11.255  0.0770  0.1132  0.5057
20997W        W37471   7.216   1.968  14.452 -0.0365 -0.1938  0.0376
20998W        W37472  17.411   8.349   4.030  0.0066 -0.1642 -0.0637
20999W        W37473   1.933  15.379   1.846  0.0310 -0.3520  0.2049
21000W        W37474   1.609   5.649   2.101 -0.1188  0.3495  0.2303
21001W        W37475  15.196  10.427  12.624  0.2402  0.3282  0.0683
21002W        W37476   4.811   9.792   1.166  0.1217  0.1443  0.1284
21003W        W37477  16.324  12.178   4.126 -0.1423  0.1065 -0.3501
21004W        W37478  16.243   6.646   1.343 -0.2053  0.1767  0.0559
21005W        W37479  16.254  17.621   3.536 -0.0884 -0.0874 -0.1792
21006W        W37480  15.543   8.317  13.537  0.1788 -0.2170 -0.1684
21007W        W37481  14.004   9.395   0.202  0.1749  0.0627 -0.2069
21008W        W37482  16.853   5.893  13.402  0.2287 -0.1138 -0.2430
21009W        W37483   8.112  18.462  15.459 -0.0369  0.2105  0.1809
21010W        W37484   6.971  15.113  14.276 -0.2306  0.1064  0.1439
21011W        W37485  15.308   3.387  13.759 -0.0249  0.1163 -0.0190
21012W        W37486   0.885   7.516  10.969  0.0836 -0.3528  0.2875
21013W        W37487  11.502  10.177  11.506  0.1671 -0.0205 -0.0209
21014W        W37488   8.641   8.536  10.724 -0.0190 -0.0214  0.1659
21015W        W37489   3.241  10.816   2.765  0.1585  0.1295  0.1131
21016W        W37490   0.538   7.322  14.099  0.0052 -0.0995 -0.0791
21017W        W37491   3.217  10.527   3.839  0.2184  0.0817  0.3337
21018W        W37492  17.342   4.559  12.526 -0.1005 -0.0538 -0.1113
21019W        W37493  11.664   1.548  13.925 -0.1099 -0.1816  0.0560
21020W        W37494  11.885   4.505  11.071  0.3974  0.0452 -0.0101
21021W        W37495   2.091  15.720  13.808 -0.1064 -0.1279  0.0720
21022W        W37496   0.779   8.457   3.280 -0.2549  0.0818  0.2078
21023W        W37497   3.939  16.841  14.138 -0.3148  0.0673 -0.2275
21024W        W37498   2.491  17.613  12.721 -0.0194 -0.4317  0.0976
21025W        W37499   8.595  11.305  12.054  0.1467 -0.0147 -0.0475
21026W        W37500   7.334  16.099   4.634  0.0611  0.0366  0.1044
21027W        W37501   3.228   7.874   4.147 -0.1450  0.0605 -0.1765
21028W        W37502   6.385  11.519  14.714 -0.2055  0.0206 -0.1115
21029W        W37503  17.045  18.128   3.019  0.0700 -0.2065  0.4001
21030W        W37504  13.630   3.416  14.684  0.2412 -0.2268  0.1788
21031W        W37505  12.636  10.217   5.798 -0.0932 -0.1118 -0.2164
21032W        W37506   3.996   5.121   4.293 -0.3939  0.0773  0.0427
21033W        W37507  12.362   8.856   5.371 -0.1115 -0.2096  0.1416
21034W        W37508   7.371   8.453  12.402 -0.0083 -0.0721 -0.0203
21035W        W37509  10.147   3.023  11.844  0.0747 -0.2410  0.4909
21036W        W37510  12.428   7.401  15.137 -0.0030  0.3469 -0.3889
21037W        W37511   4.560  17.132  11.399 -0.0429 -0.1539  0.1591
21038W        W37512  15.143  17.081   4.301  0.0463  0.1002 -0.0807
21039W        W37513   9.752  10.687  12.666 -0.0228  0.0545  0.2010
21040W        W37514   2.229   0.170  10.530  0.3183  0.0362  0.1650
21041W        W37515  15.007   1.911   0.502  0.2591 -0.0672  0.1691
21042W        W37516   8.796  15.326  12.894  0.1475 -0.4051 -0.0892
21043W        W37517   4.101  11.479  10.480  0.0101 -0.2610  0.1101
21044W        W37518  14.919   6.859  11.388 -0.4017  0.3265  0.2182
21045W        W37519   2.236  18.145   0.995  0.1218  0.0591 -0.5215
21046W        W37520  13.526   6.578  11.559 -0.0167 -0.2484 -0.2868
21047W        W37521  13.609   8.500   4.450 -0.0654  0.0300 -0.0886
21048W        W37522  16.483  12.711   5.050 -0.0166  0.1912 -0.0631
21049W        W37523  13.382   9.096   5.459 -0.2134 -0.1761 -0.1712
21050W        W37524  11.587  13.971   2.180 -0.2566  0.0270 -0.1267
21051W        W37525  16.896   8.666   2.492 -0.1936  0.3844  0.0243
21052W        W37526  10.487  13.574  11.309 -0.1755 -0.1763  0.2448
21053W        W37527   3.734  10.555   4.054 -0.0159 -0.0720  0.1121
21054W        W37528   4.685   4.866  12.171 -0.1998  0.4290 -0.2571
21055W        W37529   0.356   1.332   1.526 -0.0545 -0.0042 -0.0986
21056W        W37530   0.561  16.663  14.515  0.2791  0.1310  0.3124
21057W        W37531   8.362   3.169   4.090 -0.2481  0.0467  0.0842
21058W        W37532  13.823   0.919   4.091  0.2057 -0.0126  0.1128
21059W        W37533  18.331   8.041   2.716 -0.0531 -0.1807 -0.0883
21060W        W37534   4.293   8.898  13.677  0.3156 -0.0762  0.0952
21061W        W37535  12.318   9.613  14.791 -0.1033 -0.2263 -0.0189
21062W        W37536   1.318   1.771  12.545 -0.0004  0.0959  0.1596
21063W        W37537   9.200  15.042   3.589 -0.3186 -0.0139 -0.1116
21064W        W37538   2.716   5.325  11.279 -0.1014 -0.0845  0.1302
21065W        W37539   5.407  14.650  10.899  0.0622 -0.0054 -0.0486
21066W        W37540   9.594  14.428   2.906 -0.0425 -0.1050 -0.2632
21067W        W37541   2.896  11.614  12.874  0.0370 -0.0412 -0.1530
21068W        W37542   9.361   6.439  13.111 -0.2704  0.0873 -0.0067
21069W        W37543  16.902  12.516  10.867  0.3394 -0.0930 -0.1487
21070W        W37544   6.115   0.402   1.772  0.1105  0.0952 -0.1708
21071W        W37545  15.758  14.054   4.540 -0.0383  0.1988 -0.1050
21072W        W37546   8.756   3.155   1.967 -0.0878  0.0499  0.0918
21073W        W37547   6.829  13.512  12.177  0.2785 -0.0171  0.1913
21074W        W37548  10.700  12.314  14.721  0.2763  0.0838 -0.0237
21075W        W37549  11.953  13.708   4.515  0.0182 -0.0802  0.0334
21076W        W37550   8.094  17.053  10.680 -0.0921 -0.1945 -0.1929
21077W        W37551   5.037  10.007   2.061 -0.0446  0.2166 -0.3445
21078W        W37552  16.113   0.958   1.898 -0.1158  0.1729  0.0480
21079W        W37553   5.402   1.709   1.979 -0.1500 -0.1758 -0.0082
21080W        W37554   1.904   5.453   4.193 -0.0049  0.0480 -0.3632
21081W        W37555   5.827  12.001  14.159  0.0442 -0.0321 -0.1806
21082W        W37556   6.834  18.562  15.472 -0.0475 -0.2406  0.0128
21083W        W37557   5.813  10.150   4.841  0.1466  0.1399 -0.1595
21084W        W37558  15.414  15.078   4.099  0.3774 -0.1917 -0.0565
21085W        W37559   9.489   5.140  11.095 -0.0675 -0.3657  0.0742
21086W        W37560  12.237   6.771   2.306  0.1509 -0.0294 -0.0837
21087W        W37561  17.052  14.570  13.379 -0.0156 -0.0936 -0.0608
21088W        W37562   7.003  13.106   4.021  0.0734  0.4157 -0.0025
21089W        W37563  13.034  11.519  11.820 -0.1722  0.0983  0.4616
21090W        W37564   7.050  11.430  13.164  0.0335 -0.2875  0.2307
21091W        W37565  16.536  13.253  15.141  0.0486 -0.1107 -0.1077
21092W        W37566   2.571  14.287  12.449 -0.1692  0.0450 -0.0295
21093W        W37567  16.417   7.598  13.446 -0.0263  0.0085  0.0493
21094W        W37568  13.652   8.599  14.137  0.3559 -0.0232  0.0257
21095W        W37569   7.354  15.116  15.540  0.3097 -0.0637  0.0033
21096W        W37570  16.558  12.924  13.624  0.1451  0.0856  0.2631
21097W        W37571   7.026   1.767   2.429  0.2138 -0.0486  0.0548
21098W        W37572  13.494   9.287   2.653  0.0030 -0.0422 -0.0627
21099W        W37573  17.519   0.813   3.414  0.5825 -0.2723  0.2015
21100W        W37574   0.465   5.402   0.171  0.2047  0.0307  0.0998
21101W        W37575   0.167   2.036   0.206  0.1535  0.2574  0.0213
21102W        W37576   8.178  11.543   3.506  0.0700 -0.3524 -0.3563
21103W        W37577   2.668  12.272  13.415 -0.0050  0.2077  0.0266
21104W        W37578   1.356  13.754   1.327 -0.2140  0.0006  0.0182
21105W        W37579   7.604   6.737  12.217 -0.1443  0.1135  0.1998
21106W        W37580   5.329  17.943  13.524 -0.1015  0.3473 -0.0208
21107W        W37581  11.760   5.228  14.200 -0.0759 -0.0139 -0.4201
21108W        W37582   0.519   4.170   0.981 -0.0527  0.0533  0.2352
21109W        W37583  12.169  15.266  11.462  0.2054 -0.3259 -0.0502
21110W        W37584   9.024   2.683   1.904  0.1144  0.0177  0.0936
21111W        W37585  10.439   9.035   0.142 -0.0322  0.1341  0.0717
21112W        W37586  14.975  15.299   4.171 -0.0938  0.1431 -0.2070
21113W        W37587   9.252  10.560   0.901  0.0314  0.1009 -0.0804
21114W        W37588   6.669  18.343   4.547  0.0548  0.1143  0.0535
21115W        W37589  13.552  17.546  15.104  0.1549 -0.0127 -0.0816
21116W        W37590  16.149   8.157  11.159  0.3444  0.1725  0.1860
21117W        W37591   0.369  14.504  15.160  0.4531 -0.0635  0.0785
21118W        W37592  13.408  10.232   4.450  0.0000  0.1102  0.1937
21119W        W37593  18.037  13.838  12.389  0.4277 -0.1006  0.0820
21120W        W37594  18.059   4.153   0.576  0.0855 -0.0564  0.1810
21121W        W37595   0.796   9.129   1.548 -0.0712  0.0385  0.1607
21122W        W37596   1.130  16.494   2.865 -0.1862  0.0371  0.1662
21123W        W37597  15.833   0.578   3.280  0.1843  0.1560  0.0631
21124W        W37598  14.748   7.518   2.064 -0.0109 -0.1392 -0.0997
21125W        W37599  14.248   3.770  10.733 -0.0929  0.0057 -0.0334
21126W        W37600  11.151  11.520   4.495  0.2486  0.2169 -0.1080
21127W        W37601   6.867  14.348   1.532  0.1326 -0.0782  0.1306
21128W        W37602  13.119  17.745  14.880 -0.2011  0.2215 -0.2036
21129W        W37603   2.711   4.920  13.375  0.0734  0.5184 -0.0024
21130W        W37604   3.244  13.064   2.057  0.1226 -0.0288 -0.1488
21131W        W37605   8.275  18.114  11.919 -0.2710  0.0043  0.1355
21132W        W37606  16.461  14.257   0.152 -0.0108 -0.0365  0.1089
21133W        W37607   1.068  10.998  11.566  0.2483  0.0522 -0.1118
21134W        W37608   2.446  12.947  10.574  0.0440  0.1308 -0.1487
21135W        W37609   3.409   9.498  12.395 -0.0064 -0.0478  0.1718
21136W        W37610   9.066   9.400  11.216  0.1524 -0.1112 -0.2673
21137W        W37611  10.612  11.944  13.455  0.0589  0.4311 -0.0335
21138W        W37612   0.215  10.960  11.350  0.0808 -0.0429  0.0998
21139W        W37613  13.790   5.504  13.790  0.0538 -0.0355 -0.2456
21140W        W37614   8.326  16.700  15.128  0.1017 -0.2579  0.0045
21141W        W37615   5.971   3.223  13.908  0.0526 -0.1632  0.1148
21142W        W37616  11.039  14.259  14.854  0.3063  0.1184 -0.1664
21143W        W37617  11.005  10.641   3.468 -0.1483 -0.1544  0.2653
21144W        W37618   4.329  14.249  14.145 -0.0650 -0.0120  0.1028
21145W        W37619  16.337  11.287  11.380  0.2252  0.0357 -0.1188
21146W        W37620  18.203  10.833  13.592  0.1026 -0.1731 -0.0870
21147W        W37621  10.144   2.970   4.303 -0.2816  0.2814  0.3863
21148W        W37622   6.689  16.289  15.013  0.0188  0.1414  0.2619
21149W        W37623  16.670   3.367  15.313 -0.1043  0.1964 -0.0114
21150W        W37624  11.966   3.386  15.095 -0.0070 -0.1244 -0.1288
21151W        W37625   7.109  12.417   3.199 -0.1202 -0.0131 -0.2715
21152W        W37626   6.409   7.812  10.619 -0.0365  0.0439  0.1364
21153W        W37627  14.709   3.678   3.913  0.0541 -0.0826  0.3147
21154W        W37628   3.411   9.706   2.387 -0.2032 -0.2188 -0.1456
21155W        W37629  16.455   2.586   1.122  0.0422 -0.0411  0.0932
21156W        W37630   9.350   9.770  14.525  0.2063 -0.3829  0.0959
21157W        W37631   0.636   2.704   0.361  0.0288 -0.2051 -0.0100
21158W        W37632  13.010  11.005  12.840 -0.2186  0.2702 -0.0755
21159W        W37633   3.023   4.933  11.342 -0.0008  0.0948  0.0284
21160W        W37634  17.331   2.220  12.459 -0.0006  0.0628 -0.2511
21161W        W37635  18.352  18.065   2.939 -0.1495 -0.0718  0.1509
21162W        W37636   2.810   5.398   3.532 -0.0791 -0.0763 -0.0843
21163W        W37637   9.917   5.935   1.532  0.1768 -0.2322 -0.0256
21164W        W37638   3.725   0.340   2.063  0.4278 -0.0195  0.1107
21165W        W37639   6.479  10.542   0.213  0.2385 -0.1028 -0.1455
21166W        W37640   2.155  15.660  12.237 -0.0296 -0.2860  0.3371
21167W        W37641   6.015  14.904   3.228  0.3723 -0.1883 -0.4044
21168W        W37642   3.046   6.924  14.090  0.0512 -0.2737 -0.1433
21169W        W37643  10.526   6.070  12.043  0.1897 -0.2091  0.3817
21170W        W37644   2.356   7.999  13.455  0.0796 -0.0101 -0.2542
21171W        W37645   8.606   4.420  15.149 -0.0747 -0.1225 -0.0674
21172W        W37646  16.120  17.846  14.877  0.2246  0.2547 -0.2025
21173W        W37647  13.121   6.415   3.101  0.0602 -0.1032 -0.4353
21174W        W37648  10.641  11.326   3.156 -0.0999 -0.0841 -0.1327
21175W        W37649  16.542   8.977  12.411 -0.1410 -0.2964 -0.0914
21176W        W37650  12.572  13.621  13.456  0.0430  0.2308 -0.2413
21177W        W37651   1.837  10.641  11.417 -0.2629  0.4583 -0.1103
21178W        W37652   0.181  11.878  11.711 -0.0382  0.3903  0.0945
21179W        W37653   0.858   1.650   1.050 -0.1428  0.0100 -0.0617
21180W        W37654  12.177   9.477   4.078  0.0985 -0.1292  0.1049
21181W        W37655   6.385   9.501   2.593  0.1158 -0.3397 -0.0422
21182W        W37656   1.248   9.555   1.879  0.0080 -0.1217 -0.0784
21183W        W37657  11.053  14.555   3.672 -0.1386 -0.2368 -0.0501
21184W        W37658   5.695  15.959  11.656 -0.0391  0.0286  0.0235
21185W        W37659  12.146   8.499   2.803 -0.1845 -0.0035  0.0687
21186W        W37660  16.524  16.430   2.325 -0.3855 -0.1085  0.2696
21187W        W37661  15.939   9.557   1.311 -0.0728  0.4774  0.2089
21188W        W37662  12.379   7.231   3.604 -0.0310  0.2161  0.2131
21189W        W37663   9.347  17.843   4.791  0.1628  0.0083 -0.1557
21190W        W37664  10.543  10.620   1.065 -0.1960 -0.2308 -0.2286
21191W        W37665  17.975   6.366  13.143  0.0521  0.3567 -0.0612
21192W        W37666   8.886  18.776  11.744 -0.2651  0.0123 -0.0492
21193W        W37667  15.764  15.859  13.130 -0.0085  0.2370  0.2885
21194W        W37668  16.710  11.677  11.494 -0.1784 -0.0381 -0.1127
21195W        W37669   5.017  13.656  13.025 -0.0983 -0.2841  0.0988
21196W        W37670   2.006  15.407   3.065 -0.2679 -0.0340 -0.1775
21197W        W37671  11.490   6.520   2.794 -0.1520  0.1480 -0.2051
21198W        W37672  14.830   3.699   4.994  0.1739  0.2409 -0.0011
21199W        W37673  11.194   7.054  15.079  0.0065  0.1201 -0.2283
21200W        W37674   3.504  17.155   4.873 -0.1969 -0.1910  0.0002
21201W        W37675  11.407  15.222   1.702  0.3493  0.1151 -0.2399
21202W        W37676  15.614   8.119  12.093  0.1831 -0.1104 -0.0826
21203W        W37677   4.979  14.131   3.869  0.0622 -0.2627  0.2541
21204W        W37678  11.297   4.885  14.420  0.1197  0.0934  0.3781
21205W        W37679   9.047  13.212  12.870  0.0554 -0.1990  0.1079
21206W        W37680  14.926   6.478   2.913  0.0290 -0.0523  0.1856
21207W        W37681   0.534   4.415  14.688 -0.3971 -0.1877 -0.0092
21208W        W37682   0.743   7.631   1.925 -0.2414 -0.0320 -0.2660
21209W        W37683   4.229   7.173  14.528  0.2440  0.1155 -0.1586
21210W        W37684  12.765   2.992   2.530 -0.0597  0.1905 -0.1120
21211W        W37685  16.889   5.746  12.104 -0.0607  0.1215  0.0510
21212W        W37686   8.876   8.479   3.343  0.0119 -0.0982  0.0087
21213W        W37687   8.952   5.249  12.442  0.1660 -0.0241 -0.1527
21214W        W37688   5.039  17.906  11.645 -0.2597 -0.1358  0.4599
21215W        W37689   2.509   8.025  14.467 -0.1339  0.1371  0.1978
21216W        W37690   0.167   7.916   0.119 -0.1001  0.1678 -0.1535
21217W        W37691  14.150   3.810  14.180 -0.2556 -0.0530  0.4418
21218W        W37692  15.223   6.823  13.605 -0.2381 -0.2621  0.4293
21219W        W37693  10.887   4.413   0.617 -0.2431  0.1335 -0.0091
21220W        W37694  15.232   8.175  13.094 -0.0247  0.2442 -0.1729
21221W        W37695   6.569   6.978  11.807  0.0956  0.0435  0.1814
21222W        W37696   1.516   5.809   3.482 -0.0092  0.0796  0.2448
21223W        W37697  13.262  17.037  12.188  0.0812 -0.0821 -0.0306
21224W        W37698  15.100   0.164   4.453  0.0741 -0.1947  0.2118
21225W        W37699   9.102   6.608   1.045 -0.1297  0.0557 -0.1256
21226W        W37700   8.131   4.741  10.475  0.0765  0.2791 -0.3563
21227W        W37701   1.849  14.010  10.656  0.1407  0.1409 -0.1509
21228W        W37702  16.045   3.835  15.035  0.2532 -0.1653  0.1502
21229W        W37703   9.116   8.007  14.034 -0.1354  0.0604 -0.1707
21230W        W37704   0.979  14.319   0.295 -0.2067  0.1749  0.1608
21231W        W37705  14.528  15.316   0.520  0.0962  0.0448 -0.3928
21232W        W37706   6.775  16.561  14.221  0.0594 -0.2085 -0.1512
21233W        W37707   4.419   1.994  12.504  0.0360  0.1410  0.1931
21234W        W37708  13.242  14.813   3.937  0.1015 -0.1605  0.1414
21235W        W37709   9.033  13.276  13.718  0.0640 -0.2471 -0.2465
21236W        W37710  12.186   1.630   4.215  0.0120 -0.0793 -0.0598
21237W        W37711  14.696  18.209  14.822 -0.1276  0.2391  0.3719
21238W        W37712  15.071   3.508  11.993  0.0468  0.0556  0.1881
21239W        W37713   7.716  17.152  12.766 -0.2284  0.3615  0.1375
21240W        W37714   6.175  16.244  13.480  0.4324 -0.2143  0.0982
21241W        W37715   8.797  12.222  11.699 -0.1033  0.5663 -0.1310
21242W        W37716   8.325   2.357   3.477 -0.2613 -0.1251 -0.0040
21243W        W37717  14.200   7.340   9.986  0.0282 -0.0954 -0.0941
21244W        W37718  15.176   3.993  15.215  0.2007  0.0398  0.0638
21245W        W37719  16.378   7.843   5.365 -0.0634 -0.1324  0.4142
21246W        W37720   7.179  16.104  13.449  0.0020  0.0230  0.0206
21247W        W37721  17.343   9.633  13.559  0.1859  0.2366 -0.2311
21248W        W37722   5.366   3.352  13.909 -0.1707  0.1390  0.0338
21249W        W37723  16.253  14.615   4.235 -0.0303  0.1881  0.0735
21250W        W37724  18.337   4.218   1.128  0.0116 -0.0994  0.0383
21251W        W37725  10.052  11.897  14.112  0.0895 -0.0758  0.0489
21252W        W37726   6.179   8.967   2.524  0.0019 -0.0855  0.1631
21253W        W37727   8.645  10.482  14.216 -0.0649 -0.0654 -0.0011
21254W        W37728   5.332  16.934  10.486  0.4204 -0.2295 -0.1850
21255W        W37729  13.931   9.719  12.292 -0.1938 -0.1041 -0.2138
21256W        W37730  10.580  18.207  14.565 -0.1651  0.2235  0.0267
21257W        W37731   4.500  16.328   2.310 -0.4054  0.1504 -0.2122
21258W        W37732  13.593  12.304   3.971 -0.0040  0.0194  0.1017
21259W        W37733   6.052  16.194  14.286  0.1959 -0.3880 -0.2136
21260W        W37734  18.034   6.424  11.285  0.0983 -0.0505  0.2112
21261W        W37735   1.076   3.867  15.372 -0.4558 -0.0032  0.0249
21262W        W37736   0.566   8.063   5.076 -0.1708  0.1339 -0.0249
21263W        W37737  12.841   9.766   3.164 -0.2006  0.0182  0.0224
21264W        W37738   0.706  15.028  15.280  0.0405 -0.2803 -0.0786
21265W        W37739  10.383  13.544   1.341  0.3695 -0.0860 -0.2271
21266W        W37740  14.604   0.581   2.363 -0.0735 -0.0643  0.1894
21267W        W37741   3.970   3.447  13.594  0.0111  0.0610 -0.0339
21268W        W37742   1.853   8.179   3.604 -0.0840  0.3668  0.3588
21269W        W37743   0.730  11.150   0.473  0.4509  0.3466  0.0883
21270W        W37744  12.912  11.234  14.306  0.0569 -0.1252 -0.1626
21271W        W37745  18.409   3.877  13.766 -0.3455  0.0407 -0.1203
21272W        W37746   8.152   1.687  14.824 -0.0101 -0.0584 -0.1771
21273W        W37747  17.626   0.032  15.334 -0.0815  0.2114 -0.1431
21274W        W37748  16.159   1.992  11.861 -0.1115  0.0748 -0.1112
21275W        W37749   9.428   8.988   1.505 -0.0995 -0.0499 -0.0200
21276W        W37750  16.107   7.658   1.652 -0.4107 -0.0498  0.4532
21277W        W37751  18.080  17.132   2.627 -0.0087  0.0087  0.0000
21278W        W37752   0.793   7.909   2.375 -0.0786  0.1484  0.1311
21279W        W37753   2.088   5.656  10.435  0.0294 -0.0568 -0.0592
21280W        W37754  12.359   8.249   3.184  0.0657  0.1305  0.0750
21281W        W37755   5.492  14.426   0.938 -0.0701  0.1886  0.0653
21282W        W37756   8.481   7.736   4.264  0.1806 -0.0557 -0.2288
21283W        W37757  14.904   6.651   0.706 -0.0001  0.0613 -0.0415
21284W        W37758  17.944  12.342   3.844  0.1226  0.0725  0.0807
21285W        W37759   0.670   3.215   4.569 -0.2347  0.1136  0.1889
21286W        W37760  11.696  17.031   4.804 -0.0367 -0.1022 -0.0494
21287W        W37761  15.782  15.943   4.656 -0.1260  0.1593 -0.1166
21288W        W37762  13.656   1.510  11.390  0.0614  0.0625 -0.2858
21289W        W37763   8.807  18.031  14.192 -0.1418 -0.1487  0.1057
21290W        W37764   0.930  16.743   1.886 -0.1721  0.2269  0.0132
21291W        W37765   3.846   7.501   0.409 -0.1577 -0.0175 -0.2100
21292W        W37766   8.334   7.405   3.278  0.1045 -0.2447  0.2072
21293W        W37767  14.582  12.026   3.668  0.0864 -0.0017 -0.2172
21294W        W37768   1.795   3.654  10.651  0.1457  0.1418  0.0062
21295W        W37769  18.148   9.343  14.073 -0.3372 -0.2810 -0.1791
21296W        W37770  17.316   7.712   0.446  0.1179 -0.0833  0.2073
21297W        W37771  10.268  14.603  11.607 -0.1394 -0.2413  0.1551
21298W        W37772   6.909   7.157  14.367  0.2428  0.0653 -0.1860
21299W        W37773   6.463   6.104  11.995 -0.1600  0.0161 -0.0986
21300W        W37774  17.728   2.997   2.784  0.0739  0.0639  0.1304
21301W        W37775   4.358   4.595  11.818  0.0478  0.0457 -0.1948
21302W        W37776   7.264   0.185   2.229 -0.2889 -0.0704  0.0451
21303W        W37777   7.677   3.607   2.487  0.2195 -0.0215 -0.0834
21304W        W37778   8.123  11.967   3.991  0.2939 -0.0947 -0.2283
21305W        W37779   6.048  13.010   0.886  0.1613  0.0270  0.0905
21306W        W37780  16.074   2.007  12.935  0.0344  0.1077  0.0335
21307W        W37781   7.620  15.827   3.979 -0.0517 -0.0192  0.0643
21308W        W37782  14.178  10.447   1.421 -0.0323 -0.2108 -0.1819
21309W        W37783  15.486   5.478   3.739 -0.1747 -0.3245  0.0979
21310W        W37784  10.765   8.655   2.621  0.1292 -0.0591  0.0218
21311W        W37785  15.170  16.218   0.263 -0.5632 -0.0820  0.0006
21312W        W37786   9.740   4.781   1.472  0.0408  0.1532 -0.2332
21313W        W37787   5.786  17.640   2.110 -0.3331 -0.0840  0.0857
21314W        W37788   0.460   2.412   2.728  0.0666 -0.2084 -0.1341
21315W        W37789  17.201  15.961  13.108 -0.1650  0.1194  0.1254
21316W        W37790   3.396   1.635   0.780  0.0642 -0.1700 -0.0703
21317W        W37791  17.495   2.632  12.108 -0.0120  0.0859  0.1577
21318W        W37792  12.856   1.299  10.770 -0.1086  0.1148 -0.0162
21319W        W37793   5.017  12.811   2.295 -0.0046  0.1620  0.2277
21320W        W37794  14.496  14.008   3.695  0.0356 -0.0118 -0.1178
21321W        W37795   4.605   8.061   2.608  0.0095  0.0875  0.0411
21322W        W37796   1.237  13.949   5.229  0.0629 -0.1119 -0.0971
21323W        W37797   7.269   4.089   0.671 -0.2559 -0.4971 -0.2300
21324W        W37798  11.140   3.511   0.884  0.0236 -0.3093  0.3498
21325W        W37799   2.384   4.592   4.436  0.0778 -0.0875 -0.0147
21326W        W37800  16.409   8.691  13.624  0.1287  0.3476  0.3271
21327W        W37801   9.861  17.804   4.604  0.1040 -0.0570 -0.0535
21328W        W37802  14.630  11.660   3.140  0.0365 -0.2318  0.3124
21329W        W37803  10.048   6.991   1.908 -0.0026  0.0262 -0.0882
21330W        W37804  15.590  11.294   1.305 -0.0434 -0.0789  0.0940
21331W        W37805  12.150   0.096  13.784  0.0086 -0.1459  0.2990
21332W        W37806   4.326  12.890  13.835  0.5598 -0.1669  0.4544
21333W        W37807   1.878  15.437  14.627 -0.2049  0.2288 -0.1437
21334W        W37808   9.509   2.791  13.028  0.0547  0.1270 -0.0039
21335W        W37809   8.307  10.908  11.875  0.1392 -0.0221 -0.0032
21336W        W37810   9.131   6.188   4.682  0.0002  0.0532 -0.0822
21337W        W37811   7.105   1.403   4.232  0.0942  0.1142  0.0898
21338W        W37812   3.925  13.541  11.304  0.0910  0.1206  0.2713
21339W        W37813  10.744   4.939  11.227  0.0482  0.1753  0.1905
21340W        W37814  14.482   1.094   1.456 -0.1655 -0.0845  0.3783
21341W        W37815  18.518   8.894  14.169 -0.0816  0.1392  0.0822
21342W        W37816   4.508  17.478  15.493  0.2453  0.0833 -0.1942
21343W        W37817   0.506  18.339   2.354 -0.0366 -0.0581  0.2458
21344W        W37818   9.659  10.374   2.995 -0.2524 -0.0456  0.0273
21345W        W37819   9.892   6.531   2.249 -0.4522 -0.2556 -0.0545
21346W        W37820  18.391   9.859   4.572 -0.2103 -0.1572  0.2340
21347W        W37821  14.857  13.043   1.415 -0.4018 -0.2409 -0.0155
21348W        W37822   5.933  10.345   4.317  0.0775  0.4471  0.1236
21349W        W37823  17.978   0.810  11.944  0.0373  0.1783 -0.1341
21350W        W37824   7.040  17.555  12.438 -0.2087 -0.1517  0.1235
21351W        W37825  11.500  12.303   3.832 -0.3663  0.1166 -0.0136
21352W        W37826   0.897  18.372  13.535 -0.1666 -0.0400  0.0286
21353W        W37827   6.628   9.502  12.617  0.0909  0.4046 -0.0388
21354W        W37828  17.463   8.566   0.502 -0.2688 -0.2098 -0.2439
21355W        W37829  16.371   5.809   0.437 -0.0794  0.0523  0.1208
21356W        W37830  14.055   0.616   3.131 -0.1077  0.0413  0.0390
21357W        W37831   6.161  16.810   0.694 -0.1058  0.0801 -0.1762
21358W        W37832  16.490  14.688   2.284 -0.0351 -0.3868 -0.2219
21359W        W37833   7.271   1.402  13.426  0.0414  0.1684 -0.3205
21360W        W37834   8.788  12.618  11.033 -0.0736  0.1113  0.0836
21361W        W37835   4.396  16.004  12.104  0.0276 -0.2288  0.1669
21362W        W37836   9.921   0.072   0.670  0.0392 -0.0480 -0.1609
21363W        W37837   5.711  11.817  12.720  0.3551 -0.0852  0.0341
21364W        W37838   3.864   8.254   3.534 -0.0167 -0.0181 -0.0713
21365W        W37839  13.306  15.204   4.883  0.2470 -0.1991 -0.1155
21366W        W37840  16.292  12.278   2.118  0.1672  0.3399 -0.3333
21367W        W37841   7.290   9.224  11.697  0.0980  0.0287  0.2777
21368W        W37842   3.494   0.925  10.594 -0.3135 -0.0942 -0.1486
21369W        W37843   4.416  16.431  13.679  0.0626 -0.2080 -0.0582
21370W        W37844  12.065   2.243  15.537  0.0091 -0.2898  0.3447
21371W        W37845   7.723   1.641  13.230  0.1743  0.0429  0.2974
21372W        W37846   1.722   7.125  11.901  0.3149 -0.0462  0.0945
21373W        W37847   3.561  10.396   2.818 -0.1363 -0.0765 -0.2144
21374W        W37848   0.546   9.404  15.515 -0.0877 -0.2328 -0.2030
21375W        W37849   4.893   3.389   3.426 -0.0173 -0.1390 -0.0118
21376W        W37850  14.741   5.321  12.133 -0.2674 -0.0235  0.1735
21377W        W37851  15.347  14.386   2.134  0.0959 -0.0581  0.1443
21378W        W37852  14.822  14.750   5.268  0.0028 -0.0798  0.0463
21379W        W37853  13.002   2.493  12.043 -0.1643  0.1426 -0.2477
21380W        W37854  14.830   5.929   0.026  0.0313 -0.0505  0.3079
21381W        W37855  18.235  16.081  15.482 -0.0945 -0.3292 -0.0136
21382W        W37856   6.689   2.108  10.947 -0.4333  0.0124  0.3436
21383W        W37857  13.727  17.139  13.421 -0.0345 -0.0018 -0.1022
21384W        W37858   6.393  11.601   9.893 -0.3076 -0.1125  0.1544
21385W        W37859   7.468   0.433   3.950 -0.2156  0.1533 -0.0813
21386W        W37860   8.666   9.587   3.904 -0.5532  0.0498  0.1325
21387W        W37861  16.649   1.753   4.391 -0.0127 -0.0587 -0.0441
21388W        W37862   4.422  12.956  12.588 -0.2128  0.1483 -0.1608
21389W        W37863  11.572  16.117   2.879 -0.0634  0.0817 -0.1639
21390W        W37864  11.731  11.835   4.648 -0.1516 -0.1476 -0.2481
21391W        W37865   7.628   4.817  15.104  0.3993 -0.0576  0.1665
21392W        W37866   4.241  11.511   4.030  0.1629 -0.3072  0.0525
21393W        W37867  12.727  15.983  11.018 -0.2949  0.2115  0.4037
21394W        W37868  13.755  13.324  14.774  0.1509  0.1350  0.0528
21395W        W37869   0.603   7.965   4.553  0.0164 -0.0291 -0.0691
21396W        W37870   6.345  11.459   2.301  0.0472  0.2105 -0.3215
21397W        W37871  15.479   5.013  12.656  0.0755  0.0753  0.1042
21398W        W37872  15.881  18.770   2.864  0.0774 -0.0567 -0.0058
21399W        W37873   7.933  13.085  11.979 -0.0009 -0.0134  0.0966
21400W        W37874  14.853  15.580  15.529 -0.1504  0.1266 -0.1813
21401W        W37875  11.141   2.282   5.219  0.3362 -0.0911 -0.0433
21402W        W37876   4.398  17.644   0.369 -0.0187 -0.0583 -0.2985
21403W        W37877  15.485  10.052   0.087 -0.0117  0.2649  0.1855
21404W        W37878  13.738   3.444   0.266 -0.0458  0.0861  0.3266
21405W        W37879   5.214   7.342  12.970  0.4593  0.1530 -0.2436
21406W        W37880   4.059   6.480   0.461  0.1454 -0.2713  0.0027
21407W        W37881  16.378  18.410   5.555 -0.3804 -0.0083 -0.1205
21408W        W37882   3.048   9.985   3.808  0.2419  0.3099  0.0966
21409W        W37883  18.384  17.994  14.030 -0.1107  0.2689  0.0242
21410W        W37884  15.335  10.964   5.587  0.0549  0.3015  0.2042
21411W        W37885  13.960  11.797  10.570 -0.0540  0.2681 -0.0413
21412W        W37886   3.216  13.736   4.776 -0.2428  0.1455 -0.0520
21413W        W37887   5.532   4.384  15.558  0.0739  0.0553 -0.0576
21414W        W37888   1.448   1.389   1.948  0.1104 -0.1693  0.0973
21415W        W37889   5.126   4.902   4.158  0.1868 -0.0181 -0.1462
21416W        W37890  16.974  11.320  12.910 -0.4919  0.2435  0.0583
21417W        W37891   7.717  17.002   3.338 -0.0643  0.2900  0.0365
21418W        W37892   7.174   5.321   1.347 -0.0010 -0.1413  0.1630
21419W        W37893  10.976  10.377   0.914 -0.1492 -0.0282 -0.1925
21420W        W37894   0.914  14.494   3.544  0.1033  0.0810  0.1941
21421W        W37895  12.032   3.620  11.129  0.1057 -0.0161 -0.2237
21422W        W37896   3.501  17.785  14.082 -0.0098  0.0488 -0.2006
21423W        W37897  17.802   1.264   1.067 -0.0338 -0.1247  0.2582
21424W        W37898  18.400  10.794  15.128 -0.1608 -0.0264 -0.1770
21425W        W37899   6.219   6.038  11.493  0.3280  0.0469 -0.0587
21426W        W37900  11.101   8.845  13.373 -0.0006 -0.0314  0.0904
21427W        W37901   6.908  12.264  13.316  0.0219 -0.0481  0.1202
21428W        W37902  10.294   7.324   3.245  0.2531 -0.3410  0.2453
21429W        W37903  17.851  15.558   1.597 -0.0817 -0.2718 -0.2344
21430W        W37904  10.297   5.420  13.234 -0.4495  0.1269 -0.2535
21431W        W37905  17.464  12.656  12.393 -0.0309 -0.3641  0.2320
21432W        W37906   9.555  10.074  14.088 -0.0403 -0.0525 -0.3655
21433W        W37907   8.638   0.133  11.119  0.3049 -0.2485 -0.0928
21434W        W37908  16.119  16.326   1.498  0.0014 -0.2414 -0.1485
21435W        W37909   4.978  12.791   0.809  0.0718  0.0035  0.0806
21436W        W37910  15.090  17.295   1.303 -0.3626 -0.0542  0.2149
21437W        W37911   7.779   3.987  11.156 -0.1869  0.0407  0.0311
21438W        W37912  10.650  10.510  13.201  0.1951  0.1367 -0.0002
21439W        W37913   3.020   7.127  14.599  0.0566 -0.1316 -0.0846
21440W        W37914  14.810   9.825   4.728 -0.1004 -0.2448  0.2084
21441W        W37915  10.240   9.863   5.011  0.3083 -0.0989  0.0276
21442W        W37916  10.774  10.345   3.155 -0.1538  0.1089 -0.2781
21443W        W37917  13.328  13.004  15.358  0.0898 -0.2700  0.0083
21444W        W37918  13.371  16.783   0.018 -0.1636 -0.3262 -0.1560
21445W        W37919  11.840   7.609   1.815 -0.1339 -0.0486  0.0969
21446W        W37920  18.198   2.776  13.799 -0.2770  0.4170  0.4157
21447W        W37921   7.626   5.267  10.175  0.2103 -0.0405 -0.1491
21448W        W37922  10.769   7.656   0.968 -0.0493  0.0867  0.0689
21449W        W37923  10.783  14.505  15.297 -0.0076 -0.1054  0.0115
21450W        W37924   8.315  13.935  13.694  0.0226  0.0619 -0.1370
21451W        W37925  14.191  15.159   2.818 -0.2139  0.0679 -0.0605
21452W        W37926  17.491   0.483   1.109 -0.2653  0.0166 -0.0125
21453W        W37927   9.617  14.258   6.109  0.1328  0.3640 -0.0714
21454W        W37928   3.448  10.513  10.225  0.3471  0.0103 -0.0891
21455W        W37929   3.753  10.239   1.717  0.1257  0.3543 -0.1523
21456W        W37930   9.691   4.539   2.127  0.1337 -0.1622 -0.0435
21457W        W37931  18.767   9.995   4.929  0.3075 -0.1538  0.0963
21458W        W37932   4.573  14.413   2.245 -0.1044  0.1081  0.1639
21459W        W37933  15.206   8.596  10.594  0.1153  0.0480  0.1376
21460W        W37934   7.059   2.774   0.556 -0.2311 -0.0067 -0.3868
21461W        W37935   3.898  10.370  13.551 -0.0536 -0.0776 -0.2898
21462W        W37936   7.472  18.520   1.852 -0.2524  0.3568  0.1688
21463W        W37937   8.469   2.419   2.958 -0.0364 -0.2828 -0.2391
21464W        W37938  12.390   3.049  13.748  0.2541  0.1764  0.0030
21465W        W37939  11.991  11.786   1.475 -0.0610  0.1855 -0.2134
21466W        W37940  14.866   7.790   5.413  0.0585 -0.0412  0.0990
21467W        W37941   5.267  14.697   3.928 -0.2348 -0.0598 -0.0777
21468W        W37942   8.543   0.722  10.942  0.0958 -0.0950  0.1697
21469W        W37943   4.533   5.653  10.774 -0.0471  0.1752 -0.0740
21470W        W37944  14.769   0.936  11.195 -0.1628  0.0956  0.0086
21471W        W37945   4.137   1.323  10.102  0.0500 -0.1312 -0.2568
21472W        W37946   0.769  11.017   2.072 -0.1112  0.1313 -0.0112
21473W        W37947  13.047  15.745  14.911 -0.0163 -0.1077  0.0310
21474W        W37948   0.814  14.577  14.950 -0.2400 -0.0221  0.3208
21475W        W37949   9.559   4.327  12.642  0.1233  0.0300 -0.4232
21476W        W37950   5.028  15.614   4.505  0.0335 -0.2658  0.1242
21477W        W37951   1.215  14.714  12.435 -0.0421  0.1031 -0.0248
21478W        W37952  11.123   9.937  11.753  0.3232 -0.1403  0.0000
21479W        W37953  11.987   4.599   5.249  0.3245 -0.0263 -0.0553
21480W        W37954  11.788   6.815  13.863 -0.2290  0.0499  0.1098
21481W        W37955   0.762  13.079   4.986  0.1998 -0.0069  0.0016
21482W        W37956  18.667   6.424   0.078 -0.1026 -0.4212  0.0200
21483W        W37957  11.813   3.751  14.809  0.3728 -0.1552 -0.0099
21484W        W37958   3.707   5.586  13.189  0.1233 -0.0804  0.1854
21485W        W37959  16.900   3.726  12.608  0.0360 -0.1556 -0.1202
21486W        W37960   5.982   4.178  14.201 -0.1387  0.0727  0.2822
21487W        W37961  15.751   2.205   2.349 -0.1653 -0.2981 -0.0131
21488W        W37962   1.415   4.364  15.337  0.1218  0.0327 -0.1970
21489W        W37963  16.906   1.606   0.778  0.3773 -0.3773 -0.1562
21490W        W37964  12.894   2.012  11.292 -0.2576 -0.0184  0.0111
21491W        W37965   4.088  18.717   1.000 -0.1388  0.0664  0.0584
21492W        W37966   6.624  16.389  12.811  0.1889 -0.0199  0.0851
21493W        W37967   0.078   1.066  15.004 -0.2748 -0.0506 -0.0281
21494W        W37968  12.888  12.748   1.479  0.0528  0.0328  0.1189
21495W        W37969  12.266  15.727   5.696 -0.0817 -0.1289 -0.1092
21496W        W37970  15.439  18.327  12.591  0.3671  0.1363  0.0131
21497W        W37971   7.807   7.153   2.749 -0.0111  0.2880  0.0245
21498W        W37972   3.285  18.322  15.541  0.0440 -0.0750  0.0072
21499W        W37973   2.729  16.937  11.232  0.0362 -0.4177 -0.0896
21500W        W37974  10.356   9.291  15.302  0.1262 -0.1458 -0.3081
21501W        W37975   2.744  18.027  11.800  0.2358  0.0104  0.2073
21502W        W37976  13.912   8.601  11.899  0.0034  0.0717  0.1996
21503W        W37977   9.703  15.773   1.008 -0.1951  0.1121  0.0331
21504W        W37978   0.436  10.058  11.343 -0.1476 -0.0377 -0.0342
21505W        W37979  18.623   9.391  14.010 -0.2554 -0.1088  0.6284
21506W        W37980   7.648   1.859   1.814  0.0104 -0.1153  0.1553
21507W        W37981  11.696   4.807   1.722 -0.1845  0.1066 -0.0502
21508W        W37982   2.608   2.845  13.300  0.0191  0.5326  0.1348
21509W        W37983  11.408  10.034   3.043 -0.3080  0.2629  0.2158
21510W        W37984  11.982   0.215  14.229  0.0023  0.1496 -0.1235
21511W        W37985   5.723   9.753   1.294 -0.1537  0.0137  0.2926
21512W        W37986  13.225   8.971  11.571 -0.0812 -0.0360  0.1618
21513W        W37987   6.066  14.055  13.101 -0.2898 -0.1579  0.0526
21514W        W37988   0.169   2.968  14.634 -0.0567  0.1903 -0.0330
21515W        W37989   5.794   8.372  10.688 -0.0817  0.0931 -0.2092
21516W        W37990   0.808   2.896  11.806 -0.4913  0.2303 -0.1604
21517W        W37991  15.919  15.929   1.121  0.2509 -0.0577 -0.2508
21518W        W37992  13.162   1.019  14.013 -0.1860 -0.0582 -0.1545
21519W        W37993   6.588  13.736  11.060 -0.0087 -0.0526 -0.0068
21520W        W37994  12.103  11.595   3.398 -0.0796  0.2897 -0.0194
21521W        W37995   0.770  11.537  13.165 -0.0633  0.0764  0.1068
21522W        W37996   5.095   5.824   0.740  0.2398 -0.2196  0.1615
21523W        W37997   0.848   7.792   1.477 -0.1186  0.2076  0.0847
21524W        W37998  16.672   7.403  11.835  0.3063 -0.1879  0.0776
21525W        W37999   2.899  10.733   2.378 -0.2940  0.0672 -0.1344
21526W        W38000  17.577  12.422   2.894 -0.0732  0.1583 -0.2126
21527W        W38001   7.548   5.008   3.142 -0.0119 -0.0324 -0.3079
21528W        W38002  17.258   9.131   1.472 -0.0124 -0.1917  0.2730
21529W        W38003  12.792   9.909  14.394 -0.0849 -0.3284 -0.1471
21530W        W38004   8.005  15.598   5.126  0.0097 -0.0017 -0.3022
21531W        W38005   2.850   2.742  10.623  0.0382  0.0196  0.0235
21532W        W38006   7.315  10.693   5.716 -0.2215 -0.0235 -0.0603
21533W        W38007   5.175  12.454   0.238  0.1711  0.1463  0.0737
21534W        W38008   1.933   5.047   3.172 -0.1812  0.4524 -0.1775
21535W        W38009   8.294  11.320   4.118  0.1688 -0.4665  0.1131
21536W        W38010   1.169   7.105  11.926 -0.2735  0.4497  0.0485
21537W        W38011  12.239  12.626  13.541 -0.0756  0.0215  0.3026
21538W        W38012  18.518  12.278  14.389  0.0836  0.1034  0.0082
21539W        W38013   7.781   1.540  11.518  0.1291  0.2036 -0.0156
21540W        W38014   6.158   8.587   3.455  0.2881 -0.1519  0.3022
21541W        W38015  17.955  12.684  12.347 -0.1592 -0.0905 -0.1321
21542W        W38016   5.451   3.358   9.229  0.3288  0.2100  0.0623
21543W        W38017   2.303   9.979  15.463 -0.2723 -0.0119  0.0415
21544W        W38018  18.038  14.163  12.865  0.1075 -0.0596  0.2497
21545W        W38019  13.342   3.173  12.672  0.1529 -0.0645 -0.1031
21546W        W38020  14.648  14.319  12.450 -0.2538  0.1173  0.1016
21547W        W38021   1.826  12.812   0.302  0.0128 -0.3302  0.0458
21548W        W38022   3.344  10.972  14.058  0.2482 -0.2902 -0.0488
21549W        W38023   2.714  17.126  10.647  0.1535 -0.1916 -0.0697
21550W        W38024   4.418  11.775  13.475  0.0294 -0.1204 -0.0838
21551W        W38025   1.026   3.927   0.341 -0.3734 -0.0716  0.3660
21552W        W38026   7.531   9.127   4.598  0.0635  0.1398 -0.0428
21553W        W38027   8.977  10.314   2.246 -0.2271 -0.0701 -0.1056
21554W        W38028  13.531  17.493   0.708  0.0784  0.0318  0.0220
21555W        W38029  18.572  17.813   2.530  0.1131 -0.3431 -0.2382
21556W        W38030   3.763   2.381  10.298 -0.0026  0.0664  0.0101
21557W        W38031   3.180   1.143  12.123 -0.0878  0.0644 -0.1277
21558W        W38032   0.729  16.351  15.371  0.0537  0.1432  0.3920
21559W        W38033   0.067   1.984  13.419  0.0377 -0.0102  0.1290
21560W        W38034   8.813  13.863   5.949  0.3019  0.2118  0.2792
21561W        W38035  12.424   3.489   4.361  0.1059  0.2009 -0.1373
21562W        W38036  12.792  15.731   4.062 -0.1553  0.1088  0.1555
21563W        W38037   7.171  16.674   1.798 -0.0930 -0.0229  0.1064
21564W        W38038  10.023  10.643   2.830  0.0336 -0.3724  0.0196
21565W        W38039   5.183   2.670  11.883 -0.0560 -0.0850 -0.1788
21566W        W38040  14.719  17.324   0.922  0.1477 -0.3554  0.1237
21567W        W38041  12.180  14.458   5.101  0.0234  0.1197  0.0361
21568W        W38042   5.628   3.723  12.663 -0.2468 -0.0395 -0.4588
21569W        W38043  14.235   2.002  14.770 -0.4973  0.0932  0.0276
21570W        W38044   9.414   7.262  13.578 -0.2374 -0.0011  0.1532
21571W        W38045   4.747   0.199   1.978  0.2337  0.2482 -0.0460
21572W        W38046   1.003   9.510  14.651 -0.0514  0.3871  0.1298
21573W        W38047  15.672  16.832   2.311 -0.0172  0.0753  0.0044
21574W        W38048  14.273   6.127   3.601 -0.3070 -0.1307  0.1942
21575W        W38049   2.604   6.349  15.044 -0.2207 -0.0537 -0.1828
21576W        W38050   6.874  10.578   1.872 -0.2003 -0.1126 -0.1348
21577W        W38051   8.060   4.109  10.233  0.0556 -0.1460  0.1635
21578W        W38052  13.960   1.596  14.786  0.1651 -0.1335  0.1267
21579W        W38053   5.180   1.832   2.411 -0.2281  0.1101 -0.0204
21580W        W38054  12.860  15.969   1.020  0.1527  0.2098 -0.0076
21581W        W38055   5.081   1.968  14.882 -0.0256 -0.2487 -0.0732
21582W        W38056  12.831  12.687   4.538  0.2930  0.0908 -0.1512
21583W        W38057   8.534   6.709  14.907  0.0480  0.1831 -0.0115
21584W        W38058   2.517  10.774   5.631  0.1898  0.1334  0.3294
21585W        W38059   5.078   9.394  14.304 -0.1474  0.2486  0.0128
21586W        W38060   1.169  10.537  10.788  0.4657 -0.2151  0.0928
21587W        W38061   5.343  15.371   0.336 -0.2671  0.0280  0.0485
21588W        W38062   0.108   5.889  14.955 -0.1199 -0.3206  0.2359
21589W        W38063   9.418  10.763   3.439 -0.0046  0.0731  0.0490
21590W        W38064  16.157  14.390   2.063 -0.1452 -0.0476  0.5458
21591W        W38065  15.145  17.843  12.727 -0.0265  0.1045 -0.1272
21592W        W38066  18.754  14.959   3.911 -0.2267  0.0128 -0.2874
21593W        W38067   0.220   5.762   1.371  0.1818  0.0117 -0.1955
21594W        W38068   3.773  13.222   1.904 -0.0984 -0.0079 -0.0299
21595W        W38069   4.903  13.796   1.643  0.3378 -0.1209 -0.0924
21596W        W38070   9.464   0.269  14.462 -0.0928  0.2753  0.1110
21597W        W38071   5.367  15.241   4.111 -0.0446  0.0953  0.0911
21598W        W38072  15.926  14.846   1.655  0.0131 -0.1621 -0.0239
21599W        W38073  11.209   1.397  13.263  0.2127 -0.1448  0.0994
21600W        W38074  12.638   8.925  14.007  0.0909 -0.1725  0.2799
21601W        W38075  17.529   9.211   2.633 -0.1094 -0.1651 -0.0343
21602W        W38076   5.864  11.843  15.560  0.1061  0.2286 -0.2245
21603W        W38077  10.459  11.968   1.424  0.0916  0.2028 -0.3759
21604W        W38078   2.598  15.590   4.745  0.0713 -0.1563  0.2556
21605W        W38079   9.381  12.609   2.460 -0.4809 -0.2472  0.1745
21606W        W38080  11.386  15.609  14.607  0.1050  0.0253  0.1432
21607W        W38081   8.682  14.775  10.618 -0.2437  0.2548  0.0198
21608W        W38082  13.056  15.873   2.907 -0.1705 -0.0197 -0.3356
21609W        W38083  18.548  12.179  12.498 -0.0035 -0.2515 -0.0266
21610W        W38084  10.072  11.731   1.489 -0.0311 -0.2116 -0.1087
21611W        W38085  15.525   6.142  13.627  0.0714  0.0549 -0.1031
21612W        W38086  16.289  11.669  14.757  0.0676 -0.0278  0.0700
21613W        W38087   1.608   7.551  12.093 -0.0610  0.1925 -0.0224
21614W        W38088   4.672  11.493   2.334  0.2283  0.1208 -0.0014
21615W        W38089  14.165   9.079  11.069 -0.0200  0.0680  0.4173
21616W        W38090   4.324   1.853  15.183 -0.0601 -0.3379  0.1770
21617W        W38091  11.161  12.632  13.884  0.7824  0.0395  0.1965
21618W        W38092   7.529  10.402  10.631 -0.0637 -0.1048 -0.1676
21619W        W38093  18.074   0.949  12.800 -0.2219  0.0157 -0.1023
21620W        W38094  17.435  16.522   1.808 -0.0131  0.0239  0.2368
21621W        W38095  13.138  17.759   5.828  0.0802  0.1492  0.1662
21622W        W38096  13.741   6.280   2.160  0.2905 -0.0726  0.3454
21623W        W38097   8.687  11.556   1.835 -0.0887  0.0742  0.2078
21624W        W38098  14.200   5.483   1.837 -0.3012  0.4335 -0.1375
21625W        W38099  14.653   0.066   4.728  0.1434 -0.0537 -0.0659
21626W        W38100  16.741   8.905   0.258  0.2684  0.1365  0.3854
21627W        W38101  11.256  15.886   5.441 -0.1302  0.0328  0.0328
21628W        W38102   9.244   3.645   1.350 -0.0313 -0.3450 -0.1636
21629W        W38103   8.469  16.137   2.469 -0.1964  0.1080  0.1333
21630W        W38104   8.446  16.434   3.717 -0.3030  0.1255  0.0984
21631W        W38105   9.688   7.805   0.669  0.2856 -0.1708 -0.1753
21632W        W38106  12.153   4.701   0.339  0.3907  0.0987  0.0117
21633W        W38107  15.205   5.484  14.260  0.0595 -0.2231 -0.2534
21634W        W38108  14.470  16.227  15.354  0.0101  0.1125  0.1586
21635W        W38109   5.149   7.220  11.466  0.0248  0.0486 -0.4799
21636W        W38110   0.419  11.069  13.203 -0.2481 -0.0233  0.0503
21637W        W38111   5.503  10.481  11.073 -0.1333  0.0120  0.3411
21638W        W38112  13.316  17.895   1.256  0.1487 -0.0193 -0.0210
21639W        W38113   8.698   1.196   0.354 -0.2839 -0.1972 -0.0358
21640W        W38114   9.842  18.375   0.649  0.2331  0.1019  0.0248
21641W        W38115   1.345   2.804   1.502 -0.0347 -0.1535 -0.0852
21642W        W38116   9.847  14.581   0.041 -0.0703  0.2513  0.0772
21643W        W38117  10.404  15.770  13.482 -0.0474 -0.0594 -0.1500
21644W        W38118  10.840  10.895   6.152  0.0373  0.1544  0.1048
21645W        W38119   2.501   5.285  11.786  0.0972 -0.0709  0.1537
21646W        W38120  15.586   7.849   4.440  0.1320  0.0352  0.1357
21647W        W38121   6.926   5.800   4.649  0.0798  0.4155  0.1568
21648W        W38122  18.386  17.187  11.853 -0.1513 -0.0569  0.3360
21649W        W38123  11.634  17.536  14.519 -0.1714 -0.1676  0.0505
21650W        W38124  16.858  12.040  10.623  0.2101 -0.0496 -0.1430
21651W        W38125  11.964   5.118   0.419  0.0606  0.1035 -0.0729
21652W        W38126  18.683  10.689  10.571  0.2801 -0.0655 -0.0766
21653W        W38127   5.360   6.847   0.299  0.0105  0.0640 -0.1978
21654W        W38128   0.828  10.387   3.706  0.0731  0.1431 -0.2368
21655W        W38129  17.031   9.359   4.091  0.0644 -0.0923  0.2975
21656W        W38130  10.716  15.030  15.399  0.1323  0.1266 -0.0987
21657W        W38131   7.935   3.914   1.031 -0.3380  0.3808  0.1897
21658W        W38132   6.036  10.736  13.626  0.2453  0.1495  0.0014
21659W        W38133   9.787   6.259  11.720  0.0772  0.4478  0.1026
21660W        W38134   3.855  12.475  14.448  0.1888  0.0186 -0.2918
21661W        W38135   1.162   0.715   1.401 -0.2160 -0.2079 -0.0150
21662W        W38136  12.069  18.433   2.019  0.1491  0.0526  0.0521
21663W        W38137  10.777   9.732  12.102 -0.0329 -0.0647 -0.2065
21664W        W38138  10.785   6.708  14.001 -0.2211  0.1119  0.0158
21665W        W38139   3.417   7.712   0.253 -0.0397  0.2301 -0.3618
21666W        W38140   1.671  12.999  11.395  0.1700  0.0534 -0.3048
21667W        W38141  13.322  14.801   3.451  0.1920 -0.1125 -0.3257
21668W        W38142  14.297   4.833  11.410 -0.1238 -0.1753  0.1646
21669W        W38143   3.476  16.017   0.096  0.3080  0.0325 -0.2291
21670W        W38144   3.489   1.266  14.043  0.0589 -0.1875 -0.1069
21671W        W38145  18.368  17.140  11.063 -0.1165  0.0373 -0.0076
21672W        W38146  18.463   1.389   4.022 -0.0775  0.1510 -0.3515
21673W        W38147  13.729   4.203   5.586 -0.0963 -0.0655 -0.1352
21674W        W38148  16.239  16.697  13.003  0.1542  0.0925  0.3637
21675W        W38149   3.519   2.548  11.899  0.2962 -0.0668  0.1146
21676W        W38150   0.373  12.592  14.796 -0.0906 -0.1662 -0.0771
21677W        W38151  18.098   9.666   0.052 -0.0930  0.1584  0.2707
21678W        W38152   0.052   7.289  13.837  0.1171 -0.2811  0.0106
21679W        W38153   3.884   3.502   2.495 -0.2305  0.1127 -0.0977
21680W        W38154   6.778   7.374  13.492  0.0596 -0.0082  0.2253
21681W        W38155   7.777   6.704   3.089 -0.0818  0.1064  0.1342
21682W        W38156  11.669  11.403  12.673 -0.0327  0.0243  0.2864
21683W        W38157  15.354   7.467  12.449  0.1478  0.2557 -0.0101
21684W        W38158  11.440   2.605   4.993 -0.0202  0.1672  0.3003
21685W        W38159  14.851  17.531  15.349  0.1878 -0.0550  0.1236
21686W        W38160   6.007  16.150  12.686 -0.0365 -0.1508 -0.0586
21687W        W38161   1.833  14.868   0.445  0.0094 -0.2335 -0.0249
21688W        W38162   1.890  16.884   4.050 -0.0486  0.1467 -0.2630
21689W        W38163  14.362  16.088   4.263  0.0965 -0.1902 -0.0636
21690W        W38164   4.324   0.239  13.275  0.2374 -0.0695 -0.3872
21691W        W38165  12.482   7.855  15.263 -0.6241 -0.0566 -0.0417
21692W        W38166  16.833  10.215   4.330 -0.1370  0.0381 -0.1238
21693W        W38167   8.770  13.309   4.641  0.1185  0.3352 -0.0828
21694W        W38168   4.145   3.084   2.583  0.2264 -0.4672 -0.0458
21695W        W38169  15.223   3.112  12.234 -0.0023 -0.1510 -0.2909
21696W        W38170   9.265   1.289  13.482 -0.1816 -0.0440 -0.0384
21697W        W38171  17.114  13.978  11.206 -0.0037 -0.1934  0.1889
21698W        W38172  12.535   1.052  12.661  0.1336 -0.0507 -0.0521
21699W        W38173   5.822  18.632   4.811 -0.0558 -0.1740  0.0189
21700W        W38174   0.286  12.390   2.630  0.0744 -0.1269  0.1731
21701W        W38175  17.374   9.354  14.628 -0.2470 -0.2007 -0.1051
21702W        W38176  13.731  18.622  15.125  0.0719  0.0386 -0.2519
21703W        W38177   2.945   8.890   0.296 -0.1075  0.4029  0.1263
21704W        W38178  13.358  12.038   2.960 -0.0761 -0.0624 -0.2540
21705W        W38179  12.522  14.303   4.110 -0.0730  0.0777 -0.2635
21706W        W38180   8.662   1.069  12.269  0.1706 -0.0557  0.1636
21707W        W38181   5.051   6.354   1.695  0.1826 -0.0111 -0.1574
21708W        W38182   2.572   6.984  13.898 -0.2777 -0.0113  0.2357
21709W        W38183   1.158   2.267   0.935  0.0560  0.1340  0.0056
21710W        W38184  15.669  14.086   1.369 -0.2270 -0.2640  0.0018
21711W        W38185   6.228  17.628  13.762  0.0997  0.2468  0.4448
21712W        W38186   4.380  18.289   4.792 -0.0897  0.2025 -0.1461
21713W        W38187  15.516  12.512  11.965  0.0178  0.0539  0.1319
21714W        W38188   0.600  16.562  11.826 -0.1435 -0.0114  0.0103
21715W        W38189   6.928   6.316   3.911  0.0543 -0.1927  0.3327
21716W        W38190  14.658   5.809   5.269  0.1712  0.0685  0.0857
21717W        W38191   0.363   3.612  11.338 -0.0577  0.0833  0.0370
21718W        W38192   6.340   3.769   1.357 -0.0230 -0.1115 -0.0377
21719W        W38193  12.706   7.269  14.296  0.2096  0.2392  0.0978
21720W        W38194   6.548  11.054   3.671  0.1493  0.0760  0.3163
21721W        W38195  17.411   4.681   3.545 -0.1667  0.3076 -0.0232
21722W        W38196  17.983   5.144  11.845 -0.2687  0.3818  0.0077
21723W        W38197   4.883  13.255  11.438  0.1491 -0.3247  0.0507
21724W        W38198  13.887   2.346  11.465 -0.0841 -0.1049  0.2711
21725W        W38199  15.048  16.155   0.720  0.2108 -0.2459 -0.2231
21726W        W38200   4.994   3.835  10.493 -0.1261  0.1289 -0.0861
21727W        W38201  11.157   9.958   4.856 -0.0158 -0.1905  0.0152
21728W        W38202   8.341   3.016   0.063  0.2632  0.1768  0.1693
21729W        W38203  13.915  16.534  14.766 -0.1452  0.2753 -0.0810
21730W        W38204  15.281   4.925   3.784  0.0189  0.2828 -0.2084
21731W        W38205   1.335  17.295  12.081 -0.0146 -0.2340  0.0203
21732W        W38206   0.292   4.134  11.570  0.1294 -0.0071 -0.0899
21733W        W38207   4.563  15.722   4.409 -0.1080  0.0787  0.0779
21734W        W38208  10.885   7.437   2.001 -0.0197  0.3231 -0.3162
21735W        W38209   4.051   3.378   4.276 -0.0947 -0.0408 -0.1090
21736W        W38210  11.946  15.827  12.426 -0.0616  0.3358  0.0169
21737W        W38211   0.719   4.222  10.693 -0.0445 -0.1714 -0.0534
21738W        W38212  13.479  18.730   0.463  0.0364  0.1378 -0.3025
21739W        W38213   8.863   1.826  15.167 -0.1204 -0.0109 -0.3273
21740W        W38214  15.759   3.539  13.731  0.3609  0.1472 -0.3724
21741W        W38215  11.487  14.358  11.786 -0.1362 -0.0100 -0.2025
21742W        W38216   0.659  13.228   3.840  0.0603  0.0927 -0.1464
21743W        W38217   2.588  12.475   5.177  0.0517  0.0621  0.0259
21744W        W38218   4.232   0.613  11.513  0.1473  0.3422 -0.1318
21745W        W38219   5.738  12.169  15.168 -0.3677 -0.0386 -0.1800
21746W        W38220  18.051   0.252   4.492  0.0038  0.2109 -0.2186
21747W        W38221  18.589   9.940  15.205 -0.1583 -0.0186 -0.1782
21748W        W38222   0.821   7.902  11.268  0.2061  0.0553  0.0845
21749W        W38223  16.304  10.657   3.136  0.1954 -0.0368  0.0717
21750W        W38224   7.763  16.585   5.516  0.1790  0.1392  0.1808
21751W        W38225  14.178  14.205   1.033  0.0121  0.2859 -0.1925
21752W        W38226   3.091   4.913   0.092  0.1950  0.1207 -0.2051
21753W        W38227   4.534   2.743  11.248  0.0800 -0.0757  0.0290
21754W        W38228   0.767   8.643   4.381 -0.0544  0.0964  0.0623
21755W        W38229   3.360  11.412   1.176  0.0774 -0.1201 -0.2858
21756W        W38230  14.026  14.844  12.055  0.2328  0.1892 -0.3666
21757W        W38231   5.943   3.089  11.904  0.0754  0.2353 -0.2224
21758W        W38232  15.306  15.941   1.359  0.1402  0.1616 -0.1571
21759W        W38233  15.250   3.001   2.726 -0.2413  0.1909 -0.3353
21760W        W38234  17.072  12.208  15.323 -0.1748  0.0153 -0.2387
21761W        W38235   6.359  17.702   4.496  0.0724 -0.1548 -0.3794
21762W        W38236   6.775  15.447  14.920  0.0195  0.1606 -0.1798
21763W        W38237   7.823   5.114  11.012  0.1352 -0.0615  0.0531
21764W        W38238  15.167   8.093   0.576  0.0792  0.0191  0.4044
21765W        W38239  13.895   4.128   3.978  0.1043 -0.1174 -0.2852
21766W        W38240   7.782  13.393  10.210 -0.1411 -0.2140 -0.1712
21767W        W38241   9.478   3.114  10.442  0.1224  0.2265 -0.1144
21768W        W38242   3.079   3.044   5.776 -0.2869  0.1202 -0.0746
21769W        W38243   5.328  16.961  13.712 -0.0833 -0.1988 -0.2397
21770W        W38244   4.127  12.772   1.770  0.1894  0.0580  0.1837
21771W        W38245   1.645   0.542   1.375 -0.1697  0.2938 -0.0157
21772W        W38246  18.171   5.234   3.820 -0.1575  0.0522  0.3415
21773W        W38247   4.243  16.619  10.579  0.2760 -0.2365 -0.1103
21774W        W38248  12.172  15.230   3.486  0.1712 -0.0207  0.1810
21775W        W38249  12.416   0.915   2.974 -0.0052 -0.0003 -0.2162
21776W        W38250   1.279  10.590  15.190  0.2011  0.0671 -0.0179
21777W        W38251   1.547   6.350   9.433  0.2857  0.2190  0.1709
21778W        W38252  14.987   2.029  13.838  0.2246 -0.2553 -0.4888
21779W        W38253  13.441   9.150   1.730 -0.4177  0.0831 -0.3734
21780W        W38254  13.190   8.637   3.843 -0.0639  0.0385 -0.0728
21781W        W38255  13.978   1.117  14.985 -0.1546  0.3612  0.0764
21782W        W38256  16.303   5.963   4.656  0.0324 -0.1062  0.2053
21783W        W38257  17.687   3.462   5.928 -0.0503  0.2405  0.0231
21784W        W38258  17.803   3.912  11.353 -0.2457 -0.1714  0.1611
21785W        W38259  13.696  14.444   4.299  0.0729  0.0517 -0.1207
21786W        W38260  16.494  14.401   0.662  0.0336 -0.0356  0.4132
21787W        W38261   3.756   4.995   2.345 -0.2034  0.0695  0.0383
21788W        W38262  11.405   1.948  13.911  0.2214  0.0622  0.1647
21789W        W38263  17.247   4.562   4.271  0.1802  0.0282 -0.0353
21790W        W38264  11.918  12.463  10.337 -0.1556 -0.2695  0.0089
21791W        W38265  17.804   7.849   3.390  0.3093  0.1210 -0.0988
21792W        W38266   7.795   9.332   0.623 -0.0406 -0.3958  0.1003
21793W        W38267   6.275   8.909   3.940  0.0103 -0.0822 -0.0569
21794W        W38268   8.190   7.072   0.869 -0.0929  0.0382 -0.3809
21795W        W38269  13.493   5.574   9.901  0.1065  0.4160  0.4304
21796W        W38270  11.027   6.171   0.971 -0.1102 -0.0405 -0.2411
21797W        W38271  12.154  17.257   4.678  0.0971 -0.1686 -0.0219
21798W        W38272  11.647   5.738  12.886 -0.3889  0.1182  0.0132
21799W        W38273  10.505  12.595   4.945  0.0648  0.0141 -0.0908
21800W        W38274   1.015   0.487  12.537 -0.3200  0.2301  0.0301
21801W        W38275   4.068  17.090   4.709  0.0255  0.0931 -0.2701
21802W        W38276  14.517  14.475  11.179  0.2517  0.2420  0.2288
21803W        W38277  16.134  15.209   4.883 -0.2435 -0.1148 -0.1320
21804W        W38278   5.990  17.366   4.119  0.0209  0.3203  0.1609
21805W        W38279  13.208  13.114   2.273  0.1141 -0.0448 -0.5203
21806W        W38280  11.904   1.771  15.353  0.0005  0.1517  0.0691
21807W        W38281  13.780   3.036   6.122  0.0377 -0.2013  0.1026
21808W        W38282  14.178  11.353   1.114  0.0808 -0.0968 -0.0423
21809W        W38283  12.094   7.626   4.979 -0.2790  0.1638  0.1003
21810W        W38284   8.622   4.273  13.573 -0.2771 -0.2308  0.1890
21811W        W38285  15.570  12.838  15.015 -0.0701  0.0343  0.3484
21812W        W38286   9.788  18.610   4.988  0.1734 -0.3449  0.0321
21813W        W38287   1.625  17.299   1.502 -0.1283 -0.3440 -0.0176
21814W        W38288  14.114  10.074   2.641  0.1593  0.0738  0.1780
21815W        W38289  16.996   8.619   0.682 -0.1268 -0.1561  0.1045
21816W        W38290  15.115   6.440  13.316  0.1191  0.1433 -0.0673
21817W        W38291   3.756  15.697   2.279 -0.1001 -0.1812  0.1101
21818W        W38292  18.569   7.743  11.775  0.1744 -0.1197  0.2121
21819W        W38293  15.832  13.777   3.199 -0.2807  0.1821 -0.1751
21820W        W38294  15.014  12.484   2.417 -0.2297  0.2359  0.1429
21821W        W38295   7.278  14.601   1.748 -0.0420 -0.2966  0.1617
21822W        W38296   7.273  11.651  12.776  0.1476 -0.1807 -0.1612
21823W        W38297  11.521   3.123   3.305  0.2545  0.1691  0.1344
21824W        W38298  12.736  12.257   0.142  0.0609  0.2258 -0.1879
21825W        W38299   0.087   5.232   4.960 -0.1857 -0.5984  0.0960
21826W        W38300   2.225  15.878  10.599 -0.1086  0.1298  0.1328
21827W        W38301   9.018   5.792  13.980 -0.2889 -0.1097  0.2588
21828W        W38302  13.044  14.071  13.204 -0.0477 -0.2086  0.0063
21829W        W38303   6.903   9.751  14.309 -0.0669  0.3375 -0.1117
21830W        W38304  11.523   2.829   2.461  0.3560  0.1236  0.1272
21831W        W38305   1.112  17.035   4.166 -0.2100 -0.0941 -0.0810
21832W        W38306   9.395   7.211   4.849  0.4325  0.1416 -0.1926
21833W        W38307  17.075   4.563  13.462  0.0024 -0.1812  0.1497
21834W        W38308  18.091  11.198   4.819 -0.3692 -0.1524 -0.0264
21835W        W38309  14.129  16.986   3.195 -0.1047  0.1502 -0.2696
21836W        W38310   2.942   1.999   3.974 -0.1871  0.1091  0.2462
21837W        W38311  13.783   8.957   4.575 -0.3462  0.1017 -0.0340
21838W        W38312   5.339  10.963   1.410 -0.3389  0.1030 -0.0395
21839W        W38313  15.893   3.405  11.703 -0.1375 -0.2840 -0.2389
21840W        W38314   3.462  14.646   1.960  0.0395 -0.1235  0.0953
21841W        W38315  12.487   2.626   0.516 -0.1735  0.1720 -0.1958
21842W        W38316   7.273   0.103  10.957 -0.2351 -0.2420  0.2324
21843W        W38317   7.599  11.477  13.181 -0.0050  0.0827  0.1835
21844W        W38318   2.366  16.855   0.055 -0.3337 -0.1252  0.2034
21845W        W38319   9.997   5.567   2.026 -0.0498  0.0929  0.0012
21846W        W38320   3.518  14.936  13.340 -0.1102 -0.0588  0.0858
21847W        W38321   2.559  17.161   2.952  0.3066  0.2147  0.1238
21848W        W38322  18.058  12.197  12.649  0.0120  0.2219 -0.1646
21849W        W38323  13.338   1.303   1.318 -0.0006 -0.3138  0.1355
21850W        W38324  11.904   0.564  14.599 -0.2085 -0.4293 -0.1246
21851W        W38325  11.134  16.446  15.556  0.0493  0.2826  0.2148
21852W        W38326  10.875   3.193   3.828 -0.1017  0.1699 -0.0151
21853W        W38327  11.310  13.164   3.987  0.5874 -0.0039  0.0636
21854W        W38328  17.261   7.731   4.039  0.0132  0.0663 -0.1592
21855W        W38329  15.068   5.684   4.095 -0.1044 -0.0361  0.0580
21856W        W38330   9.464  11.335  13.302  0.0011  0.0720 -0.0730
21857W        W38331   2.702   2.514   0.380  0.1105  0.1237 -0.0766
21858W        W38332   9.235  13.445  13.288  0.0636 -0.0209 -0.2290
21859W        W38333   5.165  14.083   1.251  0.1065 -0.0171 -0.2656
21860W        W38334  12.139  11.872  11.430 -0.1005  0.0698  0.0734
21861W        W38335  17.009   1.180   0.644 -0.0656 -0.3508  0.2941
21862W        W38336  18.691   6.046  13.202  0.1610 -0.1517  0.1354
21863W        W38337   6.216   9.705   1.135  0.1207 -0.4452 -0.0618
21864W        W38338  15.034   6.780  14.151  0.0479  0.2529  0.0117
21865W        W38339   2.741  18.351   1.661 -0.1066  0.1546 -0.2622
21866W        W38340  12.745  12.341   3.393  0.0413 -0.0563  0.1600
21867W        W38341   7.385   3.766   4.071  0.0407 -0.0016 -0.2540
21868W        W38342  14.578  15.147  11.920  0.3250  0.1630 -0.4709
21869W        W38343  15.801  13.073   3.853  0.0388 -0.4908 -0.3826
21870W        W38344  14.551   9.291   2.203  0.1274  0.1954  0.0315
21871W        W38345   1.910   0.008   1.338 -0.0493  0.0081 -0.1099
21872W        W38346   2.846   5.072  14.081  0.0920 -0.1888  0.3895
21873W        W38347  13.066   9.249   2.147 -0.0124 -0.4597  0.1259
21874W        W38348  15.212  11.313  12.397  0.1284 -0.0851 -0.1693
21875W        W38349   2.145  14.470  12.679 -0.0754  0.1823 -0.4679
21876W        W38350  11.404  15.870  12.168 -0.0664 -0.0236 -0.1472
21877W        W38351   9.109  15.775  13.632  0.1798  0.0378  0.0107
21878W        W38352  13.903   1.671   3.024 -0.1059  0.1096 -0.2865
21879W        W38353  17.629  16.310  14.607  0.0202  0.1084  0.0008
21880W        W38354   9.463  17.084  13.914  0.1436 -0.2180  0.3513
21881W        W38355  13.958  16.632  12.068 -0.1103  0.2367 -0.1458
21882W        W38356   3.608   9.039  14.550 -0.0426  0.0183 -0.1747
21883W        W38357  16.047   6.599   0.795  0.3383 -0.2632 -0.1316
21884W        W38358   3.894   2.448  12.234 -0.0649 -0.2130  0.0749
21885W        W38359  16.308   9.616  13.112  0.1298  0.1241 -0.0398
21886W        W38360   3.699   1.599  12.169 -0.0968 -0.2329 -0.0384
21887W        W38361   9.907  14.296   1.424 -0.2629  0.1347  0.2233
21888W        W38362   4.437  17.426  13.690  0.3592 -0.2478  0.1725
21889W        W38363  14.674   5.692  13.311  0.1674  0.1587  0.0048
21890W        W38364   3.546  12.398  13.971 -0.0388 -0.0758  0.2269
21891W        W38365   1.323  17.706   2.253 -0.2161 -0.1650 -0.2028
21892W        W38366  10.766   9.231  13.960  0.2472  0.2175  0.1313
21893W        W38367   7.233  18.375  11.592  0.2053 -0.1123  0.1736
21894W        W38368   4.346   2.434  13.447  0.1109  0.0392 -0.0053
21895W        W38369   4.297   3.067  14.351  0.2776  0.2114 -0.0017
21896W        W38370  12.227  15.642   1.793  0.2414  0.0370 -0.0821
21897W        W38371   1.188   6.533  14.156  0.2039 -0.2445 -0.2081
21898W        W38372  16.100   8.420   0.076  0.0029  0.0096  0.0650
21899W        W38373   5.909   4.730  11.751 -0.2373 -0.1006 -0.1278
21900W        W38374  12.820  13.286   3.296 -0.0243  0.1754  0.1441
21901W        W38375   7.435  17.063  13.755  0.0284 -0.0645  0.2143
21902W        W38376   3.964   8.189   3.060  0.1237 -0.0049  0.3289
21903W        W38377   2.099  15.291  10.812 -0.0059  0.0095  0.0118
21904W        W38378   9.435   9.425   2.548 -0.0530 -0.0140  0.0218
21905W        W38379   1.492   3.679   0.167 -0.2811  0.0292 -0.0737
21906W        W38380  17.890  13.370   1.407 -0.0747 -0.0762 -0.1884
21907W        W38381  12.875  12.042  11.786 -0.2384 -0.0263  0.1597
21908W        W38382   1.794  15.689  10.577 -0.2415  0.0729 -0.1584
21909W        W38383  14.800   2.781   1.802  0.0828 -0.0501 -0.2081
21910W        W38384  17.937   9.561   3.908  0.0025 -0.1322 -0.1604
21911W        W38385  18.080   1.446  13.511  0.1485  0.0098  0.0856
21912W        W38386  13.601  15.823   0.453 -0.1770 -0.2163 -0.0406
21913W        W38387  15.664   4.740   4.279 -0.0792  0.2585  0.2117
21914W        W38388  16.822   1.357   3.246 -0.5315  0.3384 -0.0680
21915W        W38389   4.261   6.361  11.604 -0.0896 -0.1489  0.0107
21916W        W38390  13.979  14.792   4.092  0.2489  0.0635  0.1870
21917W        W38391   2.244   2.559  13.565  0.1976  0.0848 -0.0710
21918W        W38392   8.490  15.256  12.220 -0.0636  0.0551 -0.0607
21919W        W38393  11.457  15.749   3.192 -0.1750 -0.0258 -0.2352
21920W        W38394  13.247   0.042  14.409  0.0840  0.0319 -0.0715
21921W        W38395  12.939  16.293   5.025 -0.0398 -0.1980  0.1936
21922W        W38396   1.389   0.212   3.628 -0.0521  0.1955 -0.3382
21923W        W38397  15.289   2.074   1.624  0.0848 -0.2182  0.2361
21924W        W38398  13.913   7.638  14.369 -0.0091  0.1308  0.0260
21925W        W38399   2.263  12.519  14.591  0.0583  0.0163  0.3038
21926W        W38400  15.264  15.634  13.329 -0.3716 -0.1208  0.2143
21927W        W38401   7.249   3.391   0.029 -0.0771  0.1131  0.0737
21928W        W38402   9.104  18.732  13.282  0.0786  0.0176  0.1805
21929W        W38403  11.141  14.011  15.544  0.0788 -0.0161  0.0315
21930W        W38404  12.620   9.451   1.873  0.0665  0.0251  0.1018
21931W        W38405   5.942   2.378  13.123 -0.0258  0.4710  0.1354
21932W        W38406  15.255  11.414   0.351  0.0645 -0.3511 -0.1541
21933W        W38407   1.789   6.381   1.741  0.0092 -0.1389 -0.0608
21934W        W38408  14.217  11.512  13.178 -0.1644 -0.1835 -0.1803
21935W        W38409  12.308   2.121   3.499 -0.2007  0.3073  0.2642
21936W        W38410   2.821   6.068  14.689  0.2319  0.1780  0.1375
21937W        W38411   7.153   3.620  14.486  0.2507  0.2910 -0.3093
21938W        W38412  16.386  10.540  12.010 -0.2183 -0.0515 -0.2137
21939W        W38413   6.425   6.946   2.544 -0.0621  0.1227 -0.0473
21940W        W38414  12.510   7.151   1.653  0.1196 -0.1946  0.0603
21941W        W38415   6.372   2.247  12.289  0.2979 -0.0609  0.4289
21942W        W38416  12.632   8.155  13.874 -0.0925 -0.0584 -0.0318
21943W        W38417  17.536   7.568   3.677  0.0965  0.0888  0.0718
21944W        W38418   8.210  14.141   2.531  0.3143  0.3729  0.1215
21945W        W38419   1.295   9.763  13.156  0.1305 -0.0944 -0.4297
21946W        W38420   8.921   6.176   1.382 -0.0189 -0.1190 -0.0923
21947W        W38421  11.375   6.617   1.814 -0.2267  0.1717  0.1269
21948W        W38422   1.246   7.757   1.165  0.2088 -0.1072  0.2018
21949W        W38423   8.693  13.320   3.985 -0.0529 -0.3031 -0.3590
21950W        W38424  17.167  15.662   1.492 -0.3525 -0.1485 -0.2207
21951W        W38425  11.083   9.509   1.269 -0.0330  0.0904 -0.2285
21952W        W38426   5.966   5.988  15.035 -0.0084  0.0634  0.0870
21953W        W38427   6.092   7.479  14.190  0.5005 -0.0966 -0.0771
21954W        W38428  11.286   6.134   3.156  0.0844  0.2195 -0.2946
21955W        W38429  15.508   1.870  14.587  0.2210  0.0126  0.3864
21956W        W38430   2.681  11.958   5.514  0.0056  0.1537 -0.3074
21957W        W38431   3.429  11.949  11.733 -0.0382 -0.3620  0.0870
21958W        W38432   7.212   3.978  14.858 -0.2812 -0.1490 -0.1944
21959W        W38433  11.203   6.257   5.688  0.0797  0.0897 -0.0147
21960W        W38434  17.479  12.867   0.706  0.1196  0.0142  0.0948
21961W        W38435   8.824   2.043   1.057 -0.0193  0.0644  0.2264
21962W        W38436   7.026  10.640  12.096 -0.0196  0.0976 -0.2504
21963W        W38437   7.671   4.455  14.087  0.0481  0.0434  0.0880
21964W        W38438  10.231   1.541   4.299  0.0838  0.1584 -0.2585
21965W        W38439   0.688  15.478   9.992 -0.0735 -0.4030 -0.0848
21966W        W38440  17.230  12.289   3.964  0.0342 -0.0500 -0.2326
21967W        W38441  11.520   0.162   3.116  0.1240 -0.3987  0.3823
21968W        W38442  14.303  15.557  13.031 -0.1916 -0.2234  0.1160
21969W        W38443   3.832   6.770   4.520 -0.2662  0.4217  0.0644
21970W        W38444   8.410   3.395  10.712  0.0609 -0.2434  0.2859
21971W        W38445   8.321  15.127  12.701 -0.0787  0.0968  0.0257
21972W        W38446   1.544  16.899  11.724  0.0353 -0.0637 -0.2550
21973W        W38447   0.476  17.149  12.383 -0.2204 -0.1521 -0.2288
21974W        W38448  11.652   0.639   0.712 -0.1922 -0.0117  0.2614
21975W        W38449  15.481  10.662  14.452  0.1307 -0.1662  0.0731
21976W        W38450   4.948  15.305   1.376  0.2796 -0.0899 -0.3794
21977W        W38451   2.441  14.067   3.710  0.0942 -0.4089  0.0239
21978W        W38452  16.068  17.696   2.048 -0.1220 -0.2573 -0.1174
21979W        W38453  17.843  14.754  13.812  0.1058 -0.6145  0.0420
21980W        W38454   6.972  18.256   1.548 -0.1468 -0.2491 -0.3308
21981W        W38455   2.739   2.807  13.789 -0.2212  0.2229 -0.1664
21982W        W38456   4.246  12.687  14.653  0.0830  0.0559 -0.2405
21983W        W38457  11.957  13.722  11.261  0.2132  0.2170  0.1204
21984W        W38458  11.872  18.300  11.028 -0.0460  0.0491  0.0293
21985W        W38459   2.579  12.881  12.341 -0.3913 -0.2011 -0.4229
21986W        W38460   4.732   2.497  15.544 -0.0009 -0.0732  0.0713
21987W        W38461  18.042   8.459   1.755 -0.0852  0.1183  0.0019
21988W        W38462  16.332  12.368  11.233  0.0508 -0.0066 -0.1462
21989W        W38463   7.550   9.124   0.253 -0.0629 -0.1645 -0.0025
21990W        W38464   8.943  15.973   0.994  0.0521  0.2023  0.1380
21991W        W38465  18.076   4.155   4.673  0.3413 -0.3822 -0.1600
21992W        W38466  16.075  10.553  10.891  0.0176  0.0632  0.1232
21993W        W38467   1.551   4.781   3.884  0.2381  0.1242  0.3378
21994W        W38468   0.272   8.191  12.630 -0.2532  0.1837 -0.1569
21995W        W38469   6.823   2.049  12.165 -0.1892 -0.0990 -0.1285
21996W        W38470   0.613  16.488   2.886 -0.2803  0.1021 -0.1244
21997W        W38471  18.257  12.189   3.444  0.2353 -0.0722  0.1212
21998W        W38472   7.390   4.585  15.479  0.2108  0.0044 -0.3295
21999W        W38473   6.121   6.277   1.438 -0.0393 -0.0051  0.1030
22000W        W38474  18.337  14.914  12.947 -0.2299 -0.3319 -0.0292
22001W        W38475  14.171   6.648  13.393  0.1303 -0.0218 -0.0454
22002W        W38476  11.629  18.602   1.802  0.0580 -0.0720 -0.1287
22003W        W38477  11.480  11.994  15.055  0.0137  0.0662  0.3173
22004W        W38478   6.201   0.371  11.113 -0.0824  0.1732  0.0733
22005W        W38479   7.606  16.503   2.111  0.2106 -0.0118  0.0750
22006W        W38480   5.313  11.604  12.986  0.1771 -0.3991 -0.3229
22007W        W38481   4.781   2.528  12.282  0.0433  0.1275 -0.0328
22008W        W38482   4.454   6.286   0.733  0.2114  0.2541  0.1409
22009W        W38483  18.088  12.506  14.136 -0.1640  0.3867 -0.0586
22010W        W38484   8.228  17.559   1.155 -0.0064 -0.0989  0.1054
22011W        W38485   9.292  12.940   3.922  0.0844 -0.1045  0.2278
22012W        W38486  11.432  14.481  12.451 -0.2095  0.0777 -0.2598
22013W        W38487   7.492   7.456  12.845 -0.1378  0.0636 -0.0047
22014W        W38488  16.458  16.811   0.968 -0.1991 -0.0591 -0.2080
22015W        W38489   0.556  17.940  11.082  0.0978 -0.2307  0.0249
22016W        W38490   3.680  18.221   0.881  0.3070  0.2806  0.0811
22017W        W38491   4.427  10.422  13.552 -0.0823 -0.1240  0.0182
22018W        W38492   7.527   6.924   2.319 -0.4539 -0.1619  0.4062
22019W        W38493   0.296  10.138  14.964 -0.0101 -0.1356 -0.0368
22020W        W38494   9.251   5.690   3.893 -0.0588  0.0447 -0.2307
22021W        W38495  14.648   3.168   5.693 -0.0825 -0.2015 -0.1383
22022W        W38496  14.132   5.594  14.630  0.2149  0.2184 -0.1169
22023W        W38497  10.566   5.331   1.275  0.0210  0.1130 -0.1485
22024W        W38498  10.904  15.559  14.393  0.0210 -0.3307 -0.1762
22025W        W38499  11.573   7.294   2.593  0.1307 -0.1210 -0.1648
22026W        W38500  14.917  14.823   6.266  0.2003  0.2966  0.0890
22027W        W38501   0.010  15.960   0.825 -0.0181 -0.0618  0.0371
22028W        W38502  18.668   3.469  11.474  0.0852  0.0658 -0.1909
22029W        W38503   1.776   8.712   3.141  0.1548  0.1184  0.0001
22030W        W38504   1.486  17.573  13.156  0.0827 -0.0849 -0.1319
22031W        W38505  10.468  16.255   1.491 -0.0908 -0.1373  0.2098
22032W        W38506   8.631   0.060   1.389  0.0600  0.0479 -0.1589
22033W        W38507  10.118  13.691  15.348 -0.3040 -0.2467 -0.0129
22034W        W38508   4.710   3.326  14.251  0.0051  0.1091 -0.0568
22035W        W38509   9.825  14.634   2.414 -0.1717 -0.1534 -0.1406
22036W        W38510   5.656   1.790   5.516 -0.4297 -0.0042  0.1079
22037W        W38511   2.896   3.975  11.014 -0.0512 -0.0814  0.4445
22038W        W38512   5.734  10.567   3.865 -0.2168 -0.2247 -0.1482
22039W        W38513  15.157   3.483   2.821 -0.1819 -0.0428 -0.1016
22040W        W38514   0.565   4.837   3.533  0.3911  0.2890 -0.1748
22041W        W38515   2.140  11.604  12.856  0.4405  0.2614  0.0496
22042W        W38516   3.738   1.522   9.910  0.0129  0.0284  0.1733
22043W        W38517   9.734   6.071  15.499 -0.1886  0.0686  0.2738
22044W        W38518   7.217   8.533  14.217 -0.2435 -0.0812  0.1541
22045W        W38519  13.617   6.211   4.974  0.1343 -0.1447  0.1485
22046W        W38520  12.866  14.430  12.871 -0.1943 -0.0475 -0.1115
22047W        W38521   8.116   7.501  14.466  0.0559  0.0924  0.0819
22048W        W38522  15.249   3.273  14.832  0.1128 -0.1459 -0.2398
22049W        W38523   3.727   4.675   0.414 -0.0982 -0.1817  0.0896
22050W        W38524  12.195  17.376  15.321 -0.0045  0.0185 -0.0542
22051W        W38525   1.917  13.371   2.147 -0.1888  0.0489  0.0229
22052W        W38526   2.060  13.682  10.969 -0.1607 -0.1062 -0.1037
22053W        W38527  12.263   1.747   1.202 -0.2446  0.0310 -0.3515
22054W        W38528  12.247  17.547  11.948  0.0172 -0.1847 -0.0917
22055W        W38529  14.152  11.811   3.423  0.3549  0.1346 -0.2261
22056W        W38530  13.698  11.621  13.622 -0.1384 -0.0433  0.0564
22057W        W38531  16.334   9.759  13.933  0.2358 -0.1026 -0.1765
22058W        W38532   1.859  12.584  11.770 -0.0902  0.2392  0.0732
22059W        W38533  17.539  18.421  12.519  0.2508  0.2188 -0.1673
22060W        W38534  18.081  15.126  15.573 -0.2275 -0.3045 -0.0150
22061W        W38535  15.048   5.577   2.103 -0.0870  0.1803  0.1342
22062W        W38536   2.541   1.514   3.029  0.4980  0.1380 -0.2767
22063W        W38537   6.970  17.867  11.113 -0.1358 -0.1142  0.0266
22064W        W38538   0.728   6.283  13.046  0.3093  0.0420 -0.2528
22065W        W38539   6.464  12.749  11.260  0.1795 -0.0484 -0.0945
22066W        W38540  16.888   8.513   1.288 -0.0077  0.0688 -0.2126
22067W        W38541   9.781   0.896  11.122  0.3271  0.1944  0.0307
22068W        W38542   8.013   5.312  12.863 -0.0107  0.0142 -0.1309
22069W        W38543   9.350  16.821   2.031 -0.1348  0.1136 -0.4169
22070W        W38544   3.923   3.182  10.620 -0.1673  0.0422 -0.0899
22071W        W38545   9.694  16.253   0.735 -0.0314  0.0234  0.3492
22072W        W38546   7.736   3.500   3.456 -0.1140 -0.1901  0.1017
22073W        W38547   4.936  14.811   5.306  0.1883  0.0822  0.2681
22074W        W38548   6.527  15.095  15.151 -0.1081 -0.3135 -0.2280
22075W        W38549   1.837   2.279   2.247 -0.0522  0.4013  0.3153
22076W        W38550  10.514   6.053   5.030  0.0968  0.0574  0.0869
22077W        W38551   3.148   3.136   2.593 -0.0882  0.0971  0.1066
22078W        W38552  15.026  15.143  13.502  0.2704  0.1432  0.0154
22079W        W38553  14.439   3.985   4.150 -0.0444 -0.2338  0.0819
22080W        W38554   5.386  11.345   1.693  0.1088  0.2238  0.2228
22081W        W38555  10.314   6.061  14.730  0.0398 -0.2867 -0.1836
22082W        W38556   1.489   8.580   3.668 -0.0224 -0.2484  0.0549
22083W        W38557   9.860  12.815   2.435 -0.1237  0.1206 -0.2819
22084W        W38558   1.215   7.910  13.928 -0.0400 -0.2426  0.0925
22085W        W38559  13.881  12.345  13.195 -0.0018  0.0149  0.1358
22086W        W38560   1.042  18.303  14.010 -0.1899 -0.1119 -0.1167
22087W        W38561   3.212  14.450   0.108  0.0246  0.2193  0.0506
22088W        W38562   8.926  17.941  14.896  0.0504 -0.0311  0.2047
22089W        W38563   5.761  14.412   1.834  0.0155  0.1730 -0.1047
22090W        W38564  12.907  16.930   4.056  0.2047 -0.0093 -0.1759
22091W        W38565   8.719  16.677  13.720 -0.0155  0.2694 -0.0843
22092W        W38566  11.340  10.117  14.312  0.0603 -0.0836 -0.1770
22093W        W38567  10.216  10.702   0.670 -0.0063  0.0119 -0.1479
22094W        W38568   1.105  12.625   1.581  0.2434  0.1767  0.2090
22095W        W38569   0.522  10.964   2.527 -0.3376 -0.3281  0.2126
22096W        W38570  13.924   7.038   3.859  0.1149 -0.3211 -0.1227
22097W        W38571  18.778   4.216  11.186  0.2636  0.0427  0.1381
22098W        W38572   4.006  13.032  11.315 -0.0181 -0.1162  0.3130
22099W        W38573  15.862   4.607  12.878 -0.0731  0.0042  0.2078
22100W        W38574  12.989   3.588  15.316 -0.2675 -0.3600 -0.0570
22101W        W38575   4.441   1.172   5.584 -0.0167 -0.1578  0.0917
22102W        W38576   9.638   7.907   9.917 -0.2207  0.2763  0.0422
22103W        W38577   3.373  14.389  14.261 -0.3256  0.0637  0.2365
22104W        W38578  14.183   4.453   2.982 -0.3653 -0.0716  0.1643
22105W        W38579  14.086  15.992   4.676  0.0502  0.1206 -0.0911
22106W        W38580   3.038   7.686   0.569 -0.2075 -0.1986 -0.0953
22107W        W38581   0.073  10.676  14.765 -0.1586 -0.0087 -0.0015
22108W        W38582   0.365   9.540  14.120  0.0670 -0.0857  0.1198
22109W        W38583   5.164   8.824   2.575  0.0380  0.3084  0.0541
22110W        W38584   5.438   7.205  14.749 -0.1775 -0.2563  0.1365
22111W        W38585   0.628   8.874   2.478  0.0933  0.0645  0.1012
22112W        W38586  13.497   0.917   4.852 -0.1120  0.0754 -0.0733
22113W        W38587   9.886   2.930   0.328 -0.1145  0.1744 -0.1938
22114W        W38588   5.311   8.114  11.460  0.3090 -0.1379  0.1041
22115W        W38589   5.487   7.561  13.339 -0.3081  0.0413  0.0810
22116W        W38590   3.043   1.397  11.273 -0.0522 -0.0329 -0.3140
22117W        W38591  14.442   1.239  11.023  0.2573  0.2828  0.0413
22118W        W38592   1.781  14.712  13.034  0.0500  0.0930  0.1266
22119W        W38593   2.562   5.746  11.550  0.0197  0.0570 -0.1684
22120W        W38594   9.163  10.652   2.640 -0.0315  0.0333 -0.0937
22121W        W38595   2.131   9.211   3.644  0.0749 -0.3038 -0.0895
22122W        W38596   9.491  12.005   4.331 -0.2365 -0.2748 -0.0869
22123W        W38597  16.034  11.758   4.098  0.4325  0.2196 -0.2898
22124W        W38598  16.522   5.404  12.048  0.0269 -0.0300 -0.0545
22125W        W38599   8.406   8.443  12.421  0.1497  0.1430  0.2981
22126W        W38600   3.625  17.510   1.054 -0.2070 -0.3589 -0.1319
22127W        W38601   2.535  11.843   0.161  0.1124 -0.0418 -0.3804
22128W        W38602   1.002  15.513  11.019  0.1497  0.2686  0.1735
22129W        W38603   3.594   5.618   1.843 -0.0498  0.2095 -0.2576
22130W        W38604  12.559  16.574   3.647  0.1215 -0.1500 -0.0348
22131W        W38605  10.273  11.542  13.321 -0.0080 -0.3016 -0.0306
22132W        W38606   3.319   8.020   1.511 -0.1264  0.1766 -0.1786
22133W        W38607  12.038  11.484   3.944 -0.0381 -0.1424 -0.1018
22134W        W38608  13.446   8.539  10.043  0.0184  0.0712  0.1639
22135W        W38609  11.810   3.076  12.873  0.3151  0.2084 -0.0320
22136W        W38610   4.368   2.535  12.578  0.3049 -0.2447  0.1908
22137W        W38611  12.032  15.165  13.363  0.3918 -0.1519  0.3117
22138W        W38612   1.225  18.319   0.953  0.0797 -0.0140 -0.1295
22139W        W38613   7.207   6.784  13.665  0.0542  0.1263  0.0806
22140W        W38614   3.857  16.537   2.490 -0.0764  0.1669 -0.0825
22141W        W38615   8.692   9.178   4.325  0.1084  0.1185  0.0208
22142W        W38616   6.437  15.546  15.324 -0.0280  0.0180 -0.0552
22143W        W38617   9.570   1.631   4.352 -0.2239  0.1854  0.2080
22144W        W38618   1.811   8.238   1.662  0.0352 -0.0991  0.0194
22145W        W38619   8.258  13.212   0.896  0.1175  0.0553  0.0226
22146W        W38620   7.082  13.041  14.471 -0.2291 -0.2558  0.1719
22147W        W38621   5.931   9.527  14.870 -0.2571 -0.0017 -0.1662
22148W        W38622  13.378   3.585  13.033  0.0410 -0.0042 -0.0312
22149W        W38623   5.093   3.723  11.663  0.0977 -0.2418  0.1812
22150W        W38624  10.212   7.388   4.750  0.1500  0.0466  0.0546
22151W        W38625   1.658   1.363  10.253 -0.3144 -0.2260 -0.2247
22152W        W38626   0.886   2.416   4.998 -0.3106  0.0924 -0.1278
22153W        W38627  13.395   1.298   2.914  0.0183 -0.0688  0.0044
22154W        W38628  11.028  15.313  12.762  0.1768  0.0682 -0.0200
22155W        W38629  11.009  10.885  10.042  0.2583 -0.2904 -0.1103
22156W        W38630  10.781  14.851   1.077  0.2174 -0.1646  0.1933
22157W        W38631   4.641   2.017  13.435  0.0094  0.0136  0.2198
22158W        W38632   1.222   0.262   2.947  0.1838 -0.0072 -0.2029
22159W        W38633  14.518   6.986   0.507 -0.3008  0.0277  0.2141
22160W        W38634   7.186   6.861   3.898 -0.1248 -0.2308 -0.0050
22161W        W38635   0.956  10.313  14.850  0.0067  0.0057 -0.0076
22162W        W38636  15.365  11.205  14.586  0.0353  0.1834  0.0203
22163W        W38637   9.495   1.928   1.274  0.3011  0.2882  0.0695
22164W        W38638  14.657   7.018   2.969 -0.0924  0.0453  0.1006
22165W        W38639  13.829   7.410   2.543 -0.0490 -0.0187 -0.0089
22166W        W38640   7.673   8.917  11.802 -0.2832 -0.2167  0.1689
22167W        W38641  14.415   9.367  15.451  0.0079 -0.1395  0.1734
22168W        W38642  16.128   9.445   4.345 -0.2978 -0.1936  0.1572
22169W        W38643   2.106   3.946  11.808  0.0142  0.0962  0.1640
22170W        W38644  14.938   9.426  11.182  0.1252  0.2706 -0.1959
22171W        W38645  11.259  17.993  13.707 -0.0309 -0.1227  0.1976
22172W        W38646  17.391  17.767   3.073  0.1812  0.3980  0.1999
22173W        W38647   4.068   1.822  14.440  0.0711  0.0775  0.3077
22174W        W38648   3.370  18.385  14.781  0.1857 -0.0520  0.0999
22175W        W38649   7.997   0.290  12.556 -0.1605  0.1148 -0.0426
22176W        W38650  18.752   8.838  11.288  0.3424  0.1297  0.1181
22177W        W38651   9.796  12.848   4.207  0.1890 -0.2380 -0.1254
22178W        W38652   8.040   5.831  13.829  0.3072  0.0104  0.0189
22179W        W38653  10.245  13.210  15.557 -0.0072  0.3899 -0.0355
22180W        W38654   7.386   5.873   2.144  0.1469  0.0542 -0.1941
22181W        W38655   2.548  11.603  11.144 -0.0516 -0.0804  0.0292
22182W        W38656   0.212   4.600   5.581  0.2771  0.0284 -0.0442
22183W        W38657   1.231   6.079  13.908 -0.0128 -0.2607  0.4172
22184W        W38658   9.245  10.984   0.524 -0.0993  0.3131 -0.0505
22185W        W38659   8.531   2.272  15.015  0.1251 -0.1495 -0.0468
22186W        W38660  17.671   3.139  12.310 -0.0611  0.2413 -0.1050
22187W        W38661   1.313  15.426   5.097  0.2076  0.0990 -0.0016
22188W        W38662   9.499  11.625  14.974 -0.1795  0.2103 -0.0835
22189W        W38663  11.447  17.993  13.211  0.0520 -0.3394  0.0986
22190W        W38664   8.060  13.217  15.539  0.3038  0.1722 -0.0531
22191W        W38665  12.892  16.911   1.029 -0.1944  0.1074 -0.0236
22192W        W38666   0.166  18.063   0.845 -0.0268  0.0416  0.0777
22193W        W38667   0.614  12.345   1.066  0.2489  0.2545  0.2951
22194W        W38668  15.514   7.746   0.440  0.2222  0.1545 -0.1152
22195W        W38669  11.599   6.910  14.819  0.0556  0.0696 -0.1033
22196W        W38670   1.922   6.625   2.295  0.1301 -0.1326 -0.0619
22197W        W38671   4.011   8.899   1.608 -0.2229 -0.1166 -0.1562
22198W        W38672  15.813   6.889  13.865  0.1136 -0.1206  0.1395
22199W        W38673   5.655   1.992   2.495 -0.3218 -0.1958  0.2105
22200W        W38674   3.233   5.306   2.488 -0.3126 -0.0849 -0.4337
22201W        W38675   2.968   4.265  12.819  0.0927 -0.1311  0.0701
22202W        W38676  11.677   6.184  13.103 -0.2019 -0.0170 -0.1618
22203W        W38677   9.152  15.474   4.634 -0.1620 -0.1008  0.1065
22204W        W38678  17.101   3.509  14.236  0.1742  0.0556 -0.2279
22205W        W38679  18.429  15.178   9.910 -0.1733  0.0566 -0.3840
22206W        W38680  13.552   8.172   0.818 -0.1394  0.1021  0.0771
22207W        W38681   8.472  13.868  12.596  0.0585 -0.2017 -0.1125
22208W        W38682   4.789  11.125  11.155 -0.0685 -0.1462  0.1567
22209W        W38683   6.015  15.853  15.176  0.2971  0.0767 -0.1463
22210W        W38684   2.951  11.291  11.372 -0.1100 -0.2759 -0.1562
22211W        W38685   7.015   4.749  12.486  0.2940 -0.1345 -0.2039
22212W        W38686  17.992   0.315   1.242  0.2176  0.1186  0.0566
22213W        W38687  13.664   5.637  14.411 -0.1547  0.1687 -0.1429
22214W        W38688   3.245  17.416   4.593  0.0543  0.0155  0.1871
22215W        W38689   3.538   8.572  14.482 -0.0603 -0.0041  0.0671
22216W        W38690  18.590  17.237  15.249 -0.2037  0.0628 -0.2224
22217W        W38691   0.756   0.325   2.539  0.0265  0.0391 -0.0131
22218W        W38692  11.623   4.279   4.434 -0.1022  0.1090 -0.1854
22219W        W38693  18.291   1.037   0.213  0.1566  0.1695  0.4785
22220W        W38694  16.367   9.887  12.621 -0.0315  0.1283 -0.1378
22221W        W38695   9.611   2.285   2.764 -0.2282 -0.0334 -0.0191
22222W        W38696  14.973  14.082  13.612  0.1424 -0.2443  0.0481
22223W        W38697  12.711   8.061  11.377 -0.1102 -0.1161 -0.1111
22224W        W38698  11.725  17.081   3.823 -0.3585  0.3466  0.2826
22225W        W38699   0.872  10.845  14.996  0.3045 -0.2299  0.1465
22226W        W38700   4.412  13.553   3.593  0.2847  0.2626 -0.0960
22227W        W38701   3.061  10.525  14.068 -0.1539 -0.3952  0.0605
22228W        W38702  11.833  13.928  12.725  0.0095  0.1464 -0.0614
22229W        W38703  11.246   3.463  13.499  0.0206  0.1886  0.0806
22230W        W38704  11.764  14.738   2.564  0.1531 -0.1709 -0.1304
22231W        W38705   6.777   7.009  13.111 -0.1749 -0.0527 -0.3056
22232W        W38706   0.729  17.643  13.147 -0.2039 -0.1851  0.3770
22233W        W38707   0.720  14.422  12.523 -0.0792 -0.1381 -0.0604
22234W        W38708  16.885   1.733  11.983 -0.1115 -0.2758 -0.2329
22235W        W38709  12.372  13.551   1.519 -0.0819 -0.1145 -0.0600
22236W        W38710   8.740   2.481  13.862  0.0659  0.3840 -0.0586
22237W        W38711  14.200   1.284   4.977  0.1330  0.0708 -0.3102
22238W        W38712   1.667  15.905   2.973 -0.3266 -0.1466  0.1318
22239W        W38713  16.216  15.646   4.552  0.2232 -0.1082  0.1567
22240W        W38714   2.072  14.100  11.713  0.1021  0.3594 -0.0417
22241W        W38715   7.293  12.639   2.188 -0.1643 -0.0310  0.1000
22242W        W38716  10.591  13.809  13.405 -0.0710  0.2515  0.0370
22243W        W38717  17.095  10.269  13.077  0.2177 -0.4090 -0.0354
22244W        W38718  11.341   8.756   4.519 -0.3655 -0.1299 -0.1182
22245W        W38719  15.928   2.691  13.648  0.1648  0.3738 -0.2333
22246W        W38720  15.213   7.090  15.098 -0.0463 -0.1016  0.0448
22247W        W38721   4.512   3.318   4.365 -0.0392  0.2367  0.2666
22248W        W38722   9.264   8.423   3.593  0.1046  0.0633  0.0703
22249W        W38723  17.855  10.270   0.662  0.0067  0.0512 -0.1814
22250W        W38724  17.150  11.264   4.392  0.2757 -0.1577 -0.1032
22251W        W38725  15.586  17.921   3.512 -0.2017 -0.1331 -0.1775
22252W        W38726   1.776   4.420   4.800  0.2017  0.1223  0.0708
22253W        W38727  16.930  18.707  11.082 -0.1705 -0.1067 -0.0291
22254W        W38728   4.593  17.038  11.911  0.2203  0.1465 -0.0498
22255W        W38729  17.654   2.394  11.680 -0.0778  0.1602  0.2089
22256W        W38730   5.904   8.923   5.107 -0.1075 -0.0444  0.2004
22257W        W38731   5.745  11.111   4.163 -0.0923  0.1090  0.3038
22258W        W38732  13.871  15.169   4.414  0.2338 -0.2376 -0.0600
22259W        W38733   1.204   3.708   4.915 -0.1955  0.0561 -0.0771
22260W        W38734   3.318   5.216  14.001  0.0552  0.0413  0.0483
22261W        W38735  11.734  10.828   1.270 -0.0472 -0.2981  0.3635
22262W        W38736  17.289  16.171  12.681  0.1086 -0.0715 -0.0039
22263W        W38737  12.875   4.630  14.616  0.1274 -0.0597  0.0102
22264W        W38738  16.706   1.711   2.935 -0.1084 -0.2276  0.1624
22265W        W38739   6.761   3.061   2.839 -0.0298 -0.0833  0.0297
22266W        W38740  17.724  18.511   0.167 -0.1055  0.0125 -0.1816
22267W        W38741   9.054  18.209  13.680  0.0255 -0.1922 -0.0457
22268W        W38742   0.504   8.046   3.106  0.1641  0.1419 -0.1952
22269W        W38743   0.132   4.035  13.656 -0.0595  0.3446  0.2750
22270W        W38744  15.895  15.537  14.040  0.0049  0.2002 -0.1398
22271W        W38745   8.189  18.578   1.172 -0.0484  0.1017  0.0400
22272W        W38746   3.703  11.714  12.052  0.0746  0.2869  0.0952
22273W        W38747   3.537   2.796  12.381 -0.0188 -0.2224  0.2101
22274W        W38748   8.723   1.811   0.584 -0.3233  0.2170 -0.0147
22275W        W38749   7.567   7.249   3.769 -0.1226  0.1943  0.3997
22276W        W38750  10.423   6.872   0.948 -0.1184  0.1925 -0.0920
22277W        W38751  12.341  11.290   2.813  0.1641  0.0471  0.0355
22278W        W38752   3.284   2.830   3.024  0.1035 -0.3799 -0.0193
22279W        W38753  13.061  17.699  12.749 -0.0400 -0.0155 -0.0680
22280W        W38754  10.490  14.406   5.057  0.0641 -0.2037 -0.0807
22281W        W38755  18.266  10.459  11.493  0.2242  0.0996  0.0453
22282W        W38756  15.544  10.368   5.108  0.1745  0.0946  0.1631
22283W        W38757   8.290  15.333  15.051  0.0158 -0.2704  0.1804
22284W        W38758  13.424  12.686   2.188  0.0907  0.2736  0.0495
22285W        W38759  15.883  18.429  15.571 -0.2564  0.0559  0.0702
22286W        W38760   6.898   1.712   5.680  0.0530  0.0133  0.0901
22287W        W38761   7.627  11.663   1.353  0.0606 -0.0190  0.0807
22288W        W38762   8.713  11.238   5.095 -0.3602 -0.2660  0.1492
22289W        W38763  13.170   5.001  11.378 -0.1360 -0.0526  0.4765
22290W        W38764   4.609  11.806   3.326 -0.1723 -0.0977 -0.2546
22291W        W38765  11.313   4.032  13.421 -0.0421  0.0804 -0.1122
22292W        W38766   5.407  10.230   3.971  0.1324  0.1370  0.1776
22293W        W38767  17.627   5.542   2.659 -0.0349 -0.0831  0.0877
22294W        W38768  17.516  10.273  15.502 -0.1109 -0.1189  0.1655
22295W        W38769  15.376  18.463  15.532 -0.0579  0.2145 -0.1047
22296W        W38770  14.479   8.149  13.603  0.1349  0.0030 -0.1909
22297W        W38771  16.487   3.386  12.634  0.0209 -0.2029 -0.0750
22298W        W38772   4.877  12.218  15.367 -0.6669 -0.3408 -0.1608
22299W        W38773  16.663  16.446   3.968 -0.2753  0.4218 -0.0085
22300W        W38774  16.078   0.650   2.790  0.0966 -0.1665 -0.1906
22301W        W38775   1.392  16.414  11.859  0.0931 -0.0214  0.1192
22302W        W38776  17.662   3.358   4.031  0.0280  0.1057 -0.0445
22303W        W38777   7.059   9.912   4.393 -0.0971  0.1393 -0.1335
22304W        W38778   3.727   7.215  14.446  0.1486  0.1300 -0.1304
22305W        W38779  17.299   8.605   3.218 -0.0863  0.1180 -0.3068
22306W        W38780  18.624  10.939  10.119  0.3938  0.1064 -0.0560
22307W        W38781  17.744  12.765  11.324  0.1740  0.1063 -0.0688
22308W        W38782   0.437   8.888   5.599  0.0537  0.0273 -0.0769
22309W        W38783   9.604   0.323   0.966 -0.2003  0.0898  0.0352
22310W        W38784   9.730   1.618   2.411  0.4171  0.1008 -0.1091
22311W        W38785  13.095   4.027   1.520 -0.0807  0.0999 -0.0178
22312W        W38786   4.317  13.204   4.438  0.1628 -0.1547 -0.0287
22313W        W38787  10.046   9.510   9.441  0.3357  0.2751 -0.1797
22314W        W38788   3.891  18.079   4.962 -0.2798  0.1520 -0.0323
22315W        W38789  16.404   5.641   3.792 -0.0668  0.2555  0.1827
22316W        W38790  18.731   1.535   1.192 -0.2003 -0.1270 -0.3637
22317W        W38791   0.240   7.903   4.067 -0.4127 -0.2090  0.0989
22318W        W38792  16.068   9.361   0.259  0.0440  0.0161 -0.0385
22319W        W38793  12.647   8.968  11.819  0.3862  0.1150  0.1410
22320W        W38794  10.897   1.330  14.096  0.3062  0.0392 -0.2681
22321W        W38795   9.916   8.021  14.443 -0.2229  0.3161  0.1332
22322W        W38796   9.935  12.315   2.305  0.1340 -0.0490 -0.1647
22323W        W38797  16.570   4.470  13.452 -0.0140 -0.0451  0.0497
22324W        W38798   5.969  12.895  15.335  0.0840 -0.2285 -0.0823
22325W        W38799  11.979  17.552   3.119  0.0515 -0.2775 -0.2931
22326W        W38800   9.907   0.082  14.329 -0.1551  0.0772  0.0845
22327W        W38801   2.237  12.061  12.153 -0.0336 -0.4199  0.3560
22328W        W38802  10.695   7.466   5.328 -0.0054 -0.1000  0.1805
22329W        W38803  13.132   0.009   5.052  0.1986  0.3410  0.1998
22330W        W38804  16.805  17.185   0.981 -0.1000 -0.3750  0.1481
22331W        W38805  13.432   2.786   5.563  0.0505  0.0173 -0.1036
22332W        W38806  11.899  13.422  12.576 -0.0404  0.2787 -0.0731
22333W        W38807  13.232   1.611   4.224  0.1953 -0.1007 -0.3791
22334W        W38808   1.273   9.914  14.803  0.0070  0.0924  0.2100
22335W        W38809  13.351  15.340   3.605  0.1183 -0.1067  0.2370
22336W        W38810   2.451   5.594   9.911  0.0893 -0.2212  0.1016
22337W        W38811   0.625  11.654  11.090 -0.1137 -0.1351  0.3247
22338W        W38812   5.676   5.879   5.568 -0.1491 -0.1640  0.0355
22339W        W38813  17.886  18.241   4.383 -0.2535 -0.1070  0.1305
22340W        W38814  15.303  13.249  12.335 -0.0128  0.0324  0.0536
22341W        W38815  17.702   5.099   0.735 -0.1119 -0.0434 -0.4325
22342W        W38816   9.102   2.960  10.933  0.0503 -0.1579 -0.0756
22343W        W38817   9.746   3.989  14.125  0.0996 -0.3743 -0.1507
22344W        W38818  17.904   7.208   2.751  0.1061  0.2964  0.0101
22345W        W38819   8.260  17.454  12.392  0.0459 -0.0953  0.0860
22346W        W38820   3.288  17.299  10.737 -0.1397  0.3330  0.1577
22347W        W38821   0.295  11.949  12.621 -0.1192 -0.2593 -0.2103
22348W        W38822   3.092  11.849   4.262  0.1098  0.0247  0.3214
22349W        W38823   0.252   4.809   9.736 -0.1644  0.0301 -0.0107
22350W        W38824   4.346  18.197   2.389  0.1984 -0.4599  0.1572
22351W        W38825  14.595   9.328  14.987 -0.3563 -0.1176 -0.2219
22352W        W38826   8.081  18.260  11.063 -0.3082  0.0588 -0.1653
22353W        W38827   2.193  17.075  10.937 -0.3203  0.0084 -0.0678
22354W        W38828   1.271   2.660  12.070 -0.1144 -0.0343 -0.0064
22355W        W38829   4.895  16.578   0.640  0.0285  0.0267 -0.0918
22356W        W38830   6.067  16.745   0.211  0.0193  0.1151  0.0063
22357W        W38831   3.812   7.339  11.678 -0.0550 -0.0385  0.1046
22358W        W38832   4.163  12.942  10.644 -0.1311  0.0710 -0.0837
22359W        W38833   6.299   2.989   3.125 -0.3554 -0.1972  0.2275
22360W        W38834   4.489  13.195   4.973 -0.2452  0.7581  0.0868
22361W        W38835   9.870  17.065  12.960  0.0084  0.3725 -0.1558
22362W        W38836  11.815  14.107   0.285  0.1594  0.1333 -0.0625
22363W        W38837   4.160  18.590  13.499 -0.0295 -0.1478 -0.2396
22364W        W38838  18.074  17.229  13.086  0.0848  0.2056 -0.2137
22365W        W38839  11.054   8.367   4.483 -0.2742  0.2085  0.0752
22366W        W38840  10.591   6.345  11.136 -0.3941  0.2844 -0.0257
22367W        W38841  16.973  17.159   2.508 -0.0641  0.0222 -0.1817
22368W        W38842   0.291   1.097   5.029 -0.0814 -0.0783  0.1987
22369W        W38843  16.073  17.279  14.514  0.1776  0.1157 -0.3808
22370W        W38844   8.145   8.311   1.182 -0.5059  0.0446 -0.0153
22371W        W38845  16.964   4.292   3.779  0.1069  0.0947  0.0765
22372W        W38846   8.397   9.002   2.169  0.0278  0.3518  0.0491
22373W        W38847   5.315  18.528  15.400 -0.3121  0.1159  0.1081
22374W        W38848  16.652   5.568  14.270 -0.1548  0.0279 -0.1003
22375W        W38849  12.515  13.869   4.323  0.2627 -0.0122  0.0375
22376W        W38850  11.124   8.934  15.290 -0.1088  0.0199 -0.0678
22377W        W38851  14.414   6.986  14.336 -0.0277  0.2079  0.1434
22378W        W38852   3.883  17.941   2.717  0.2271  0.0767  0.0922
22379W        W38853   7.376   0.802  13.790  0.0780  0.0476 -0.3953
22380W        W38854  16.724  11.300  12.527  0.1698 -0.0402  0.0782
22381W        W38855  17.273   4.720   3.027 -0.3194 -0.0554 -0.1924
22382W        W38856   6.508   0.552  12.412  0.0575 -0.0257  0.0556
22383W        W38857   5.098   3.028  14.321  0.1543 -0.0319 -0.3229
22384W        W38858   4.678   9.140  10.373 -0.3188  0.0582 -0.1445
22385W        W38859   1.786   3.769  13.001 -0.0360  0.1577 -0.0374
22386W        W38860  16.478  15.649  11.760 -0.0864  0.1137 -0.1426
22387W        W38861  14.530  16.985   0.531  0.0848 -0.0916 -0.1469
22388W        W38862   1.751  12.633  15.388  0.1076  0.1097 -0.1756
22389W        W38863   1.694   3.300  15.206 -0.0994  0.1913 -0.1294
22390W        W38864   6.803   6.355  14.488 -0.2997 -0.0940 -0.2355
22391W        W38865  13.831   2.874   3.085 -0.3436  0.0059 -0.3084
22392W        W38866  18.623  12.579   3.938  0.2032  0.0832 -0.0782
22393W        W38867  15.228   0.613   3.213 -0.1366 -0.0564  0.2315
22394W        W38868  15.809  16.309  13.635  0.4305  0.0304 -0.2574
22395W        W38869  11.053  15.711  11.468 -0.1645 -0.0180  0.0126
22396W        W38870  16.327   9.648   3.107  0.0098  0.0722  0.0405
22397W        W38871   2.232  16.591   4.627  0.0418  0.0364  0.0808
22398W        W38872  11.680   2.611  11.264 -0.0653 -0.1440  0.1861
22399W        W38873  10.977   1.393  12.238 -0.0630  0.0286 -0.3748
22400W        W38874   8.037  16.095  14.403 -0.1503  0.3139 -0.0813
22401W        W38875  10.842  17.511  12.641 -0.0938  0.2049 -0.0368
22402W        W38876   0.995  12.962   1.897  0.1747  0.1023  0.0034
22403W        W38877  12.819   9.503   4.871 -0.1254  0.0848 -0.1742
22404W        W38878  10.446   6.917  12.373 -0.1015  0.1246 -0.1833
22405W        W38879  17.631   7.231  12.211  0.2632  0.0011  0.3738
22406W        W38880   0.432  10.577  15.176 -0.1375  0.2905 -0.4548
22407W        W38881  12.828  17.214  14.025  0.2235  0.1192  0.2120
22408W        W38882  16.207  13.453   1.867  0.1407 -0.0211 -0.3707
22409W        W38883  12.386  13.981  13.818 -0.1148  0.2216 -0.1500
22410W        W38884   4.867   0.978   4.359 -0.0503  0.1176  0.0365
22411W        W38885   3.755  12.148  12.786 -0.0214  0.0748  0.3888
22412W        W38886  12.081  14.890  14.249 -0.1546 -0.1249 -0.0670
22413W        W38887   6.803  14.546   4.307 -0.2483  0.0330  0.2553
22414W        W38888  17.741   1.036  14.839  0.0027  0.0625  0.0437
22415W        W38889  18.352  12.590  13.170 -0.0343 -0.1803 -0.2125
22416W        W38890   9.507   7.980   2.912 -0.0815 -0.0446  0.0870
22417W        W38891   3.147   4.946   5.260  0.1872  0.1794  0.1413
22418W        W38892  12.701   8.711   0.203  0.3031 -0.0910 -0.0098
22419W        W38893   7.503   5.402   5.401  0.1443  0.0534  0.1269
22420W        W38894   0.469  15.069   4.745  0.0389  0.1724  0.1144
22421W        W38895  10.160  12.753   0.252  0.0126  0.3663  0.0634
22422W        W38896  15.488   6.203   4.899 -0.0634  0.1520  0.0177
22423W        W38897   8.971   8.630   4.286  0.0016  0.1072 -0.1079
22424W        W38898   9.488  10.264  14.716  0.4548 -0.0888  0.2449
22425W        W38899   3.137   3.635  12.997 -0.2183  0.1985 -0.2018
22426W        W38900   5.533  10.435   5.338  0.4075  0.0927 -0.2581
22427W        W38901  11.359  16.115   4.375  0.2079  0.2599 -0.0455
22428W        W38902  18.642   6.196   3.906  0.0101 -0.2097 -0.0901
22429W        W38903   6.365   6.151  12.929 -0.1829  0.1523 -0.1180
22430W        W38904  13.927  12.257  12.729 -0.1289  0.0803  0.1222
22431W        W38905   4.367   7.276   1.912 -0.1726 -0.3093  0.1805
22432W        W38906  14.766   0.788  12.242 -0.1163 -0.0127 -0.2225
22433W        W38907   8.091   9.549  15.354 -0.0618 -0.2133 -0.0243
22434W        W38908   8.336   5.112  10.885  0.0203 -0.0486  0.3516
22435W        W38909  17.722  16.122   9.968  0.1300 -0.0570 -0.0498
22436W        W38910   7.772  13.581  14.258  0.0010 -0.2724  0.1291
22437W        W38911   2.017  15.885  11.058  0.0203 -0.2827 -0.2388
22438W        W38912  10.610   7.114  12.817 -0.1815  0.1397  0.1583
22439W        W38913  10.248  12.145   4.975 -0.2826 -0.1139  0.2795
22440W        W38914   2.365   6.782   3.053 -0.2668 -0.2478  0.0563
22441W        W38915  12.802  16.557  12.961 -0.2830 -0.1606  0.0494
22442W        W38916  14.125  13.145   1.718  0.0017  0.4322 -0.1364
22443W        W38917   1.221   1.683   2.321  0.1467 -0.1145 -0.2156
22444W        W38918  17.671  15.680  13.547 -0.0030  0.2847  0.0355
22445W        W38919  15.012  11.835   1.153 -0.0125  0.1623  0.1098
22446W        W38920   1.271  12.298  15.305 -0.2951  0.0529 -0.0315
22447W        W38921  14.934   8.136   5.048 -0.1324 -0.0474 -0.1814
22448W        W38922  11.944   1.790  11.373  0.2311  0.1744  0.0520
22449W        W38923   9.640  11.224  12.078  0.1888 -0.1805 -0.3648
22450W        W38924  16.425  18.576   4.674 -0.1315 -0.0844 -0.2673
22451W        W38925   9.224  16.210  12.214 -0.0407  0.2583 -0.0084
22452W        W38926  18.712   5.654  14.523  0.1881  0.2759  0.1999
22453W        W38927  10.541   4.820   1.037 -0.1396  0.2547  0.2112
22454W        W38928   5.611   1.711   3.009 -0.2097 -0.0588  0.0790
22455W        W38929   5.884   9.464  11.383  0.2108  0.5303 -0.1588
22456W        W38930  17.553   5.509  12.748 -0.0044 -0.2210  0.2548
22457W        W38931   4.738   2.803  12.781  0.0025  0.1207  0.0391
22458W        W38932   3.048   7.130  10.829 -0.1299  0.0006  0.0394
22459W        W38933   3.250  12.987   3.482  0.0794  0.2087  0.1330
22460W        W38934   5.478  14.328  13.301 -0.0483 -0.1634  0.0662
22461W        W38935  18.472   6.522   5.799 -0.0112  0.3972  0.4294
22462W        W38936  16.740  12.977  12.690 -0.1009  0.0222  0.2090
22463W        W38937  12.583  11.920  12.657 -0.1796 -0.1331 -0.1868
22464W        W38938  13.254  13.653   5.511 -0.0095 -0.1606  0.1467
22465W        W38939   4.803   9.304   2.737  0.1460  0.0731 -0.1939
22466W        W38940   6.761  16.281   2.779  0.0545 -0.0957  0.4952
22467W        W38941  12.646  15.246   1.689  0.0500 -0.1963 -0.0407
22468W        W38942  17.911   4.465   3.542 -0.4102 -0.0723 -0.0454
22469W        W38943  15.103   5.209  13.773  0.1585 -0.0997  0.4508
22470W        W38944  14.088   4.832   4.655  0.2567 -0.3433 -0.0996
22471W        W38945   6.155   7.773   1.191 -0.1395  0.1541  0.0764
22472W        W38946  10.047  18.236   5.342 -0.0955 -0.0218  0.2568
22473W        W38947   5.144   1.341   4.108  0.0800  0.2511 -0.0760
22474W        W38948   8.354   4.857  14.539  0.2655  0.3062  0.0681
22475W        W38949   5.968   7.230   4.296 -0.0085  0.4469  0.2018
22476W        W38950  12.510  10.470  12.899  0.2315  0.2812  0.0464
22477W        W38951   4.007  12.486  13.633 -0.1715  0.0677 -0.1325
22478W        W38952  13.277   8.960   3.001 -0.0003  0.1018  0.1537
22479W        W38953   2.961  11.773   3.731  0.0631 -0.0632  0.0189
22480W        W38954   3.771  18.260   1.374  0.0879 -0.1120  0.1384
22481W        W38955   4.636   7.896   1.150  0.1753 -0.1031  0.0840
22482W        W38956  16.398  13.491  14.353  0.0084 -0.0198  0.0516
22483W        W38957  12.175  11.914   0.598 -0.0005  0.2103  0.1187
22484W        W38958  18.681   4.330   5.044  0.0554  0.0765 -0.0613
22485W        W38959  15.687   3.687   3.721  0.0846 -0.4060  0.1608
22486W        W38960  13.607   9.239  11.223  0.1453  0.2138 -0.1269
22487W        W38961   9.418  14.074   1.482 -0.0500 -0.0440  0.2421
22488W        W38962   2.157   6.220  14.269 -0.1580  0.1622 -0.1882
22489W        W38963   5.683   7.127  15.493 -0.3667 -0.0907 -0.0516
22490W        W38964   7.792   2.199  12.702  0.0622  0.3972 -0.0332
22491W        W38965   5.200   1.121  12.464 -0.1397  0.1273 -0.2083
22492W        W38966  14.227  17.899  13.680 -0.1793 -0.1044 -0.1025
22493W        W38967  13.568   2.041  13.400  0.2565  0.1036  0.0950
22494W        W38968   7.306   5.614  11.361  0.2087 -0.0810 -0.0721
22495W        W38969  16.904  14.203  13.706 -0.1251  0.1265 -0.3687
22496W        W38970   5.178   4.971   5.474  0.1813 -0.2242 -0.1445
22497W        W38971  14.094  17.516  15.147  0.2001 -0.2758 -0.4592
22498W        W38972  10.255  18.410   2.572 -0.2144  0.0226 -0.1824
22499W        W38973   4.257   2.613  11.875 -0.0502  0.0180 -0.1037
22500W        W38974   1.293   9.144  14.819  0.4936  0.0115 -0.4146
22501W        W38975   1.189   1.471   4.406  0.1285 -0.2063 -0.0297
22502W        W38976  18.122   9.465   3.313  0.1469  0.2379  0.4338
22503W        W38977   7.891   5.915   9.623 -0.0233  0.0121  0.0564
22504W        W38978   3.498   5.191   2.910 -0.1235 -0.0875  0.0454
22505W        W38979   9.153   2.011   9.990 -0.1403 -0.4374 -0.2588
22506W        W38980  18.640   7.822  10.782 -0.2062  0.0448  0.2677
22507W        W38981  14.359   2.699   5.486  0.0622  0.2816  0.1293
22508W        W38982   7.126   6.162   2.957 -0.1205  0.0994  0.2506
22509W        W38983   6.951  13.200   5.577  0.0814  0.0554 -0.0797
22510W        W38984   4.898   1.561   1.407  0.0378  0.0557  0.4889
22511W        W38985  12.499   5.390  13.336  0.2221  0.0091  0.0983
22512W        W38986   9.252   2.591   2.422  0.0928  0.0005 -0.3680
22513W        W38987   0.480   1.331  14.187 -0.0504  0.0503 -0.0918
22514W        W38988  16.489   6.233  11.432 -0.0555  0.3068  0.0918
22515W        W38989   0.648   4.862  12.105  0.3699  0.1924 -0.3123
22516W        W38990   4.405   7.328   4.640 -0.0369 -0.1433  0.0211
22517W        W38991  14.918   6.389   3.991  0.3812 -0.1857  0.4042
22518W        W38992   0.254   9.546   0.309  0.2708  0.0762 -0.1497
22519W        W38993   2.374   9.143  14.763  0.1716  0.3702  0.2744
22520W        W38994   5.177   3.267  11.421 -0.2980 -0.0981 -0.1824
22521W        W38995  17.729   8.929   5.322  0.2276  0.2726  0.1032
22522W        W38996   7.205   8.127  13.926 -0.1672  0.0543 -0.3187
22523W        W38997  16.861   0.362  12.162  0.0196  0.1144 -0.3432
22524W        W38998   7.783   8.468  11.504 -0.0753 -0.1251 -0.2030
22525W        W38999  13.717   8.734   0.262 -0.2351  0.1784  0.0328
22526W        W39000   0.094  10.458   0.785 -0.0329  0.1883 -0.1220
22527W        W39001   9.389   2.808   1.013  0.3362  0.1047  0.1037
22528W        W39002   0.336   4.821   1.818  0.2747  0.0710 -0.0167
22529W        W39003   8.866  15.894  13.214  0.1085 -0.0804  0.0128
22530W        W39004   0.500   7.951   0.550  0.1643  0.0105 -0.0331
22531W        W39005  11.741   0.420   2.428 -0.0321 -0.0699 -0.0597
22532W        W39006   6.075   4.733   9.771 -0.1308 -0.0156 -0.0131
22533W        W39007   5.220   3.702  13.603 -0.1657  0.1673 -0.0594
22534W        W39008   4.714   9.664   2.278  0.2364 -0.0548  0.1982
22535W        W39009   1.013  12.013  11.302 -0.1655  0.1331 -0.1525
22536W        W39010   2.562  15.614   2.569 -0.0142  0.0527  0.0451
22537W        W39011  14.840  14.827   4.748  0.0079 -0.1775  0.0599
22538W        W39012   2.879   6.111   4.291  0.3346 -0.0397  0.2815
22539W        W39013  16.817  17.571   2.813 -0.0986 -0.2688  0.2872
22540W        W39014  14.867  13.316   2.848 -0.2189 -0.1155 -0.0537
22541W        W39015  16.600  10.651   1.669  0.0307 -0.1534 -0.0959
22542W        W39016   0.205  13.594   3.059  0.0641 -0.0327 -0.0498
22543W        W39017   0.418   2.826  13.110  0.1480 -0.0327 -0.2438
22544W        W39018   4.322   6.072  11.140  0.3000 -0.0733  0.3558
22545W        W39019   8.411  18.104  11.363 -0.1448 -0.0697  0.1746
22546W        W39020   7.081   4.268   0.118 -0.0173 -0.0616  0.1686
22547W        W39021  14.853   1.657  14.220 -0.0443  0.0496 -0.2961
22548W        W39022   8.063   8.090   3.788  0.0027 -0.2321  0.1816
22549W        W39023   0.616   7.326  15.162 -0.0645 -0.1377  0.0291
22550W        W39024   8.318   4.673   4.594 -0.0030 -0.0144 -0.2161
22551W        W39025  17.602   3.898   0.432  0.1613  0.1470 -0.1729
22552W        W39026   0.700  12.030  13.224  0.0569  0.2735 -0.1747
22553W        W39027   9.882   9.020   0.508 -0.0629  0.0988  0.0046
22554W        W39028   0.051  16.823  12.504  0.1530 -0.1966 -0.1821
22555W        W39029   4.185   5.720  13.598 -0.2339 -0.0954  0.0430
22556W        W39030   3.636  11.334  13.815  0.2771 -0.1081 -0.3183
22557W        W39031  16.596  16.259   3.526  0.4533 -0.1549 -0.1636
22558W        W39032   8.400   2.599   0.663 -0.1278 -0.0897  0.1933
22559W        W39033   2.483  10.475  13.821 -0.3781  0.1077  0.2668
22560W        W39034  16.141   8.118   2.604  0.1209 -0.0907 -0.0073
22561W        W39035  11.372   7.727   5.363  0.2996  0.1593 -0.1337
22562W        W39036  11.433   7.666   0.734 -0.4333 -0.2245 -0.0039
22563W        W39037   3.857   6.026  15.105 -0.0532  0.1267  0.1338
22564W        W39038  16.825   4.542  13.011 -0.2038 -0.2803 -0.0499
22565W        W39039  11.190   5.383   2.100  0.1738 -0.1335  0.0510
22566W        W39040   2.218  11.141   3.850  0.1452 -0.4223  0.0383
22567W        W39041  15.083  10.427   4.911 -0.0448 -0.0489  0.2979
22568W        W39042  10.553   8.550  14.604 -0.1496 -0.0704  0.1767
22569W        W39043  17.432   5.299  13.768 -0.0415 -0.0072 -0.0137
22570W        W39044  17.251   8.734  15.005  0.0514 -0.1467 -0.2662
22571W        W39045   8.591   6.736   4.327  0.2355  0.1548  0.1400
22572W        W39046  13.955  16.606  14.247  0.0994  0.1775 -0.2663
22573W        W39047  13.092  18.659  12.402  0.0790  0.0724 -0.2001
22574W        W39048   8.967  12.439  15.103 -0.3333 -0.0701 -0.0879
22575W        W39049  14.922   8.699  14.388 -0.3700  0.0945 -0.1350
22576W        W39050  12.010  15.974  13.741  0.3920  0.1384 -0.1661
22577W        W39051  14.404   2.207  15.199  0.0479  0.0672  0.0983
22578W        W39052  12.686   9.931   4.637  0.2177  0.2140  0.1722
22579W        W39053   7.262   4.488  14.971 -0.3188  0.0405  0.0276
22580W        W39054  13.078   7.109  14.538  0.0683 -0.0663  0.2035
22581W        W39055   9.930  16.021  13.379 -0.1678  0.0768  0.2420
22582W        W39056  16.340  13.031  15.550 -0.0714  0.4075  0.0681
22583W        W39057   8.629  17.768   5.353 -0.0158  0.0223 -0.0162
22584W        W39058   4.299  12.478  14.167  0.1189 -0.0643  0.1321
22585W        W39059   8.394   4.204   3.866  0.0788  0.0782 -0.0634
22586W        W39060   6.352   6.532  11.627  0.1480 -0.1320  0.4935
22587W        W39061  16.610   3.947   3.692 -0.0409  0.1058 -0.2785
22588W        W39062   1.145  14.105  12.495 -0.2533 -0.2630  0.1041
22589W        W39063  10.490  11.043   1.465 -0.0951 -0.0341  0.2578
22590W        W39064   5.349   0.138  10.608  0.0287  0.1402  0.1883
22591W        W39065  17.078  18.463   2.627  0.1023  0.1239  0.0814
22592W        W39066  11.944  17.679  12.367  0.0276  0.2080  0.2101
22593W        W39067  12.701  17.916  15.298  0.0230 -0.0972 -0.1444
22594W        W39068  18.432   5.824   4.248 -0.1044  0.1098  0.1856
22595W        W39069  18.406  16.634  11.001  0.0442  0.0603  0.0710
22596W        W39070   0.721  17.544  11.381  0.1176  0.0393  0.3570
22597W        W39071   7.986   3.837  15.126  0.0216 -0.3907 -0.3125
22598W        W39072  15.782  15.471  12.813  0.0518  0.0306 -0.1713
22599W        W39073   6.306  18.711   1.545 -0.0848  0.0189 -0.2495
22600W        W39074  17.514  16.647  10.745  0.0940  0.0215  0.0665
22601W        W39075   3.226  17.485  14.937 -0.2266 -0.1533 -0.1325
22602W        W39076  17.938  15.551   2.431 -0.1359 -0.2483 -0.1074
22603W        W39077  11.027  15.196   5.380  0.1389  0.2497  0.1226
22604W        W39078   9.155   1.664   0.375 -0.0876  0.1328 -0.2733
22605W        W39079   8.086  14.163  11.819  0.1031 -0.0399  0.2124
22606W        W39080  11.433  18.011  14.746 -0.1113 -0.2432 -0.0867
22607W        W39081  11.368   8.063  12.001 -0.1306 -0.1958  0.0238
22608W        W39082  16.410   2.593   5.286  0.0743 -0.0997  0.3413
22609W        W39083   1.033  14.668  11.182 -0.1067  0.2035 -0.2696
22610W        W39084  12.265   0.699   4.596  0.4018  0.0648 -0.1845
22611W        W39085  13.727  12.738   5.109 -0.0185  0.1666 -0.0706
22612W        W39086   1.092   6.672   3.995  0.0865  0.1437 -0.0015
22613W        W39087   9.020  18.763  12.307 -0.0617  0.0642 -0.1453
22614W        W39088   1.894   7.752   5.395  0.1777  0.1250  0.0986
22615W        W39089  14.765  15.115  11.421 -0.1402 -0.5657  0.1312
22616W        W39090   3.674  15.620  12.511 -0.1164  0.3456 -0.0089
22617W        W39091   7.744   0.815   3.808 -0.1804  0.1321  0.3033
22618W        W39092   2.479  14.568   1.213 -0.1583  0.1867 -0.1599
22619W        W39093   6.551   7.329  14.060 -0.2940  0.1754  0.0834
22620W        W39094  16.505   9.786   4.442  0.0736  0.2268 -0.1638
22621W        W39095   3.404   6.827   2.594  0.0509  0.2994 -0.0106
22622W        W39096   3.145   1.532   1.738  0.1694 -0.0194 -0.1278
22623W        W39097  17.621   4.971  15.164  0.0773 -0.1417  0.0349
22624W        W39098   6.470  18.135  13.271 -0.0507 -0.0735 -0.1888
22625W        W39099  17.150  17.187  15.183  0.1433 -0.1302  0.3607
22626W        W39100   5.120  10.887   2.609 -0.0888 -0.0534 -0.0317
22627W        W39101  13.192   3.133   1.542  0.0053 -0.0984 -0.0945
22628W        W39102   4.525  13.272   3.075 -0.1191 -0.1497 -0.0556
22629W        W39103   8.958  15.652   0.133  0.0352  0.0116 -0.3918
22630W        W39104   6.093  14.179   2.563  0.0223  0.1646 -0.3595
22631W        W39105  12.170   0.074   5.189  0.0572  0.1201  0.1949
22632W        W39106  18.186   7.923  10.518  0.2123 -0.1648 -0.2088
22633W        W39107   9.207  12.552  14.244 -0.2418  0.0814 -0.0359
22634W        W39108  18.279  15.739   4.783 -0.1728  0.0398  0.2503
22635W        W39109   2.988   1.255   2.728  0.2206 -0.0328 -0.0997
22636W        W39110   6.369   9.659   2.092  0.0361  0.0494 -0.0820
22637W        W39111  18.271  13.383   4.189  0.1143  0.0949  0.0730
22638W        W39112  17.896   1.079   5.706 -0.2134 -0.0669  0.2516
22639W        W39113   5.721   4.166  12.583 -0.0285 -0.0561  0.1602
22640W        W39114  17.991   9.483  15.151 -0.1510 -0.2647  0.1450
22641W        W39115  18.110  14.267  11.055 -0.0174 -0.2605 -0.3850
22642W        W39116  13.245   4.694   3.053 -0.1754 -0.1126 -0.1714
22643W        W39117  15.650   0.758   1.943  0.0299 -0.0640  0.0731
22644W        W39118   2.749  11.434   2.892  0.2471 -0.0548 -0.2127
22645W        W39119   4.712  12.498   2.019 -0.1385 -0.1098 -0.2810
22646W        W39120   9.582  12.603  13.887 -0.0851  0.0447 -0.1152
22647W        W39121   8.399   0.530   1.602  0.1246 -0.1704  0.3233
22648W        W39122   1.109   9.954  12.543 -0.1518  0.0279  0.1368
22649W        W39123   5.693  16.847   3.086 -0.2344  0.2490 -0.1477
22650W        W39124   9.589   3.505   5.257  0.1535 -0.1708 -0.3121
22651W        W39125  13.893   6.086  14.709  0.1027 -0.0765 -0.2846
22652W        W39126  12.027  16.074   1.454 -0.0981 -0.1124  0.0242
22653W        W39127  15.680   7.932  11.139  0.3716  0.2625 -0.0975
22654W        W39128   4.752  13.894  15.140  0.0273  0.0262  0.3525
22655W        W39129   1.484  14.386   1.177  0.0089 -0.1125  0.1139
22656W        W39130  11.436   8.704   0.437 -0.1632 -0.0909  0.0090
22657W        W39131   3.588  12.783   1.611 -0.3226 -0.2365 -0.0504
22658W        W39132  15.079  17.816  14.992 -0.1892 -0.0099 -0.1149
22659W        W39133   2.267   4.997   9.525 -0.1022 -0.3473  0.0740
22660W        W39134   2.640  15.996  14.330 -0.0073 -0.1358  0.1422
22661W        W39135  10.884  17.814   4.623  0.1127 -0.0855 -0.1493
22662W        W39136   2.556   9.906   4.927 -0.0777 -0.2402  0.1003
22663W        W39137  11.512  18.338  12.715 -0.2020  0.2205 -0.0500
22664W        W39138   1.057   2.494   0.061  0.1034 -0.0266 -0.0219
22665W        W39139  10.066  12.224   1.414 -0.2832  0.1204 -0.0020
22666W        W39140   1.321   5.268   2.256 -0.1699 -0.1417  0.2237
22667W        W39141  13.269  14.854   0.106  0.0394  0.2167  0.0453
22668W        W39142  12.374   0.062   1.225 -0.2797 -0.2454 -0.1718
22669W        W39143   7.316  13.454   5.816  0.2407 -0.1469 -0.1429
22670W        W39144   9.860  13.194  14.310  0.3839  0.1762  0.0843
22671W        W39145   0.942   0.091   4.489 -0.2145 -0.2393  0.0694
22672W        W39146   8.406  16.905   2.969  0.0128 -0.0400  0.2075
22673W        W39147  12.946   6.995   0.689  0.2030  0.2196 -0.0027
22674W        W39148   2.111   2.413   1.826  0.1105 -0.0131  0.1476
22675W        W39149  13.460  17.546   3.508 -0.0794 -0.2843  0.0337
22676W        W39150  14.909  11.796  10.809 -0.0665 -0.3011  0.1637
22677W        W39151   1.683  18.695   0.318 -0.0551 -0.1388 -0.0350
22678W        W39152  13.779   4.101  12.382 -0.1274  0.3270 -0.3192
22679W        W39153  15.561   0.880  13.997  0.0164  0.2895 -0.0085
22680W        W39154  12.038   2.298  11.139 -0.2919  0.1969 -0.0958
22681W        W39155  11.930   1.761   3.510  0.1126  0.2831  0.0267
22682W        W39156   3.321  15.862   3.120 -0.1454  0.0493 -0.1994
22683W        W39157  17.835   3.577  12.464  0.2332 -0.1224 -0.0238
22684W        W39158  11.208   8.102  11.150 -0.2405  0.2865 -0.0412
22685W        W39159   1.434   0.684   2.921  0.1738  0.1636 -0.2755
22686W        W39160  16.254   7.584   4.804  0.0085 -0.2714 -0.1845
22687W        W39161   0.534  17.509  10.831 -0.2177  0.1422 -0.0845
22688W        W39162  17.455  13.696  10.832 -0.0956 -0.0019  0.1622
22689W        W39163  17.794   8.536  13.644  0.1518  0.2780  0.2102
22690W        W39164   0.854  17.278   0.025  0.4090 -0.2939  0.1526
22691W        W39165   9.853   5.555   2.672  0.1046  0.3129  0.2821
22692W        W39166   0.757   2.460  13.380 -0.3263 -0.1485  0.0752
22693W        W39167  18.543  18.673   5.155 -0.0380  0.0399  0.2338
22694W        W39168  18.587  14.381  15.059  0.1361  0.1282 -0.2727
22695W        W39169   0.500  13.597   3.463  0.0516 -0.0397  0.2647
22696W        W39170  10.507   4.095  11.399 -0.0976  0.1564  0.0789
22697W        W39171  13.320   1.014  11.486  0.0883 -0.0482 -0.3112
22698W        W39172   7.693  16.733  12.510  0.2304 -0.3615 -0.2584
22699W        W39173  14.689   2.042  11.409  0.2761 -0.0420  0.1241
22700W        W39174   7.099   2.259   4.137  0.2978 -0.0555 -0.2761
22701W        W39175   7.282   0.855  11.663 -0.3942  0.0111 -0.2798
22702W        W39176  16.630  11.204   2.227 -0.0736  0.0395 -0.2057
22703W        W39177  18.478   3.247   3.667  0.2197 -0.1581  0.2281
22704W        W39178   4.971  10.338  12.936  0.2051 -0.1290  0.0067
22705W        W39179   0.060   9.395  12.506 -0.2820  0.3273  0.3617
22706W        W39180  15.049   2.793  11.762  0.2220 -0.1236 -0.0411
22707W        W39181   5.277   0.256   0.740  0.0271 -0.0424 -0.0791
22708W        W39182   1.405  18.403  14.440 -0.0284 -0.2161  0.0000
22709W        W39183  11.120   2.216  14.186  0.2850  0.0348 -0.0854
22710W        W39184  15.587   7.059  13.252  0.0321 -0.1722  0.0498
22711W        W39185   1.002   1.403  14.795 -0.2054 -0.0271  0.0765
22712W        W39186   2.255   4.779   3.474 -0.0017 -0.1421 -0.1047
22713W        W39187  18.620   3.285   4.926 -0.2651  0.0452  0.1853
22714W        W39188   8.175   7.379  11.590 -0.0907 -0.2760 -0.0336
22715W        W39189  15.572   3.469  12.038 -0.0577 -0.0899 -0.1943
22716W        W39190   7.481   1.966   4.975  0.3193 -0.1408  0.1814
22717W        W39191  15.743  11.544   1.757 -0.1661 -0.3813  0.1039
22718W        W39192  17.461   2.601   2.683 -0.1214 -0.0475 -0.1589
22719W        W39193   2.546  17.519   2.200  0.0330 -0.2980 -0.1142
22720W        W39194   3.316  12.962   4.023 -0.5193 -0.5324  0.4686
22721W        W39195   7.701  13.733  11.189 -0.0793 -0.0647 -0.0501
22722W        W39196   1.041  15.178  14.044 -0.1741 -0.1324 -0.1414
22723W        W39197  12.781  12.227   4.716  0.0194  0.1969 -0.0272
22724W        W39198   3.361   5.498  10.493  0.4179  0.0038 -0.1512
22725W        W39199   5.621   8.875   0.109 -0.0539  0.0326 -0.0439
22726W        W39200   0.569  12.552   5.054 -0.1338 -0.1023 -0.1945
22727W        W39201   9.535   8.018  10.881  0.0944 -0.1100  0.0335
22728W        W39202  17.855   3.783   9.906 -0.0250 -0.0851 -0.0980
22729W        W39203  15.862  18.483   2.409 -0.2227 -0.1409  0.2434
22730W        W39204  17.467   4.055  14.371  0.0615  0.1544 -0.3134
22731W        W39205  10.529  17.367  14.620 -0.1489 -0.0576 -0.0017
22732W        W39206   0.151  16.409   4.532  0.1261  0.0832  0.0844
22733W        W39207  10.897  18.398   2.206 -0.4026  0.1781 -0.1794
22734W        W39208   3.773   2.597  14.957  0.0965 -0.2886 -0.0723
22735W        W39209  15.628   5.017   4.800  0.2358 -0.0060 -0.3365
22736W        W39210  14.450  13.811   2.902  0.0556 -0.1452  0.2643
22737W        W39211  11.865  12.157  14.807 -0.0228  0.1906 -0.1628
22738W        W39212  16.680  14.056  11.077 -0.2645 -0.3856  0.2038
22739W        W39213   8.200   1.375   3.289  0.2011 -0.2342  0.2459
22740W        W39214  10.845   3.911  12.602 -0.0607  0.1722 -0.1158
22741W        W39215   3.328   0.418   0.404 -0.0535  0.0849 -0.0116
22742W        W39216   2.035   5.095  15.251 -0.2724 -0.0445  0.1214
22743W        W39217   9.910  16.783  14.841 -0.2876  0.1275  0.2018
22744W        W39218   9.545  15.327  14.623 -0.0019 -0.0764 -0.0448
22745W        W39219  17.187  16.142   0.522  0.0865 -0.0652 -0.2857
22746W        W39220   3.365   7.712  13.864 -0.1643 -0.2831 -0.0414
22747W        W39221   2.447  14.854  11.780 -0.0633 -0.1045 -0.0462
22748W        W39222   4.874   9.854  10.683 -0.0387 -0.4243 -0.1454
22749W        W39223  14.995   7.553  15.242 -0.0639  0.0881  0.0103
22750W        W39224   7.800   0.395   3.563 -0.1360  0.0666 -0.0141
22751W        W39225  10.645   1.918  15.313  0.1615  0.5155 -0.1599
22752W        W39226  11.523   9.128   4.821  0.1491  0.0844 -0.0794
22753W        W39227   9.356   2.036   3.174  0.2857 -0.3347  0.3600
22754W        W39228  17.100  10.803   4.039 -0.3594 -0.2900 -0.0840
22755W        W39229   2.425  11.978   1.678  0.1641  0.0528 -0.2932
22756W        W39230   8.333  13.041   2.498 -0.0248  0.3339 -0.0385
22757W        W39231   4.729  14.592   4.463  0.0078 -0.2436 -0.2415
22758W        W39232   3.203  15.707   3.595  0.2668 -0.0539  0.3591
22759W        W39233   0.514   8.208  12.133 -0.1537 -0.3548  0.0890
22760W        W39234  13.779   7.975   2.449 -0.0147 -0.0601  0.3972
22761W        W39235   7.408   8.677  15.049  0.0596 -0.3347  0.0156
22762W        W39236  17.020  15.456  10.283  0.0337  0.0171 -0.0894
22763W        W39237   7.084  15.332   3.494  0.0481  0.0515 -0.3693
22764W        W39238   9.976   5.752   4.877 -0.2612 -0.2920 -0.1457
22765W        W39239  13.617  11.050  10.401 -0.0067 -0.3778 -0.0486
22766W        W39240  16.708   1.796   3.456 -0.3860  0.0495  0.2230
22767W        W39241  10.840   1.806  13.983 -0.0582  0.0230 -0.1498
22768W        W39242  18.769  12.413  13.434 -0.0551  0.3199 -0.2229
22769W        W39243  16.181  17.334   4.425 -0.3167  0.1304 -0.3971
22770W        W39244   1.797   7.643   2.766  0.1693  0.0403  0.5620
22771W        W39245   2.084   4.562  15.315 -0.0677 -0.0915 -0.1435
22772W        W39246   3.076  14.681  14.556  0.2504  0.1482  0.0869
22773W        W39247  10.440  10.120   1.829  0.1431 -0.3155 -0.2531
22774W        W39248  17.508   8.113  13.573  0.2254 -0.1071  0.2459
22775W        W39249   4.662  15.391   1.819  0.1892  0.2542 -0.0662
22776W        W39250   4.096  11.458  12.186 -0.0363  0.1768  0.1244
22777W        W39251  18.539  11.420  14.097 -0.0242 -0.4113  0.0448
22778W        W39252  18.118   0.590   5.417 -0.0307 -0.0656 -0.0752
22779W        W39253   4.418  16.470   1.280  0.0260  0.1166  0.3204
22780W        W39254   6.017   0.381   4.268  0.1003 -0.3602 -0.1311
22781W        W39255  11.523  15.154   2.910 -0.0459 -0.2587  0.1327
22782W        W39256  10.725  12.729   1.828 -0.0317 -0.2162  0.2032
22783W        W39257  16.560   1.951   1.726  0.0579 -0.1266 -0.0123
22784W        W39258   5.029   5.160   1.294  0.1845  0.0572 -0.1327
22785W        W39259  14.497   6.350  12.040  0.1755 -0.1434 -0.0129
22786W        W39260   5.856  16.007   2.396 -0.0685  0.1578 -0.0841
22787W        W39261   5.918   1.171  10.992  0.1517  0.5848 -0.1342
22788W        W39262   8.655   5.951  10.636  0.1161  0.1160 -0.0651
22789W        W39263  14.377  13.773   0.681 -0.1110 -0.1862  0.0900
22790W        W39264   0.099   2.564   3.587 -0.1702  0.3229 -0.0113
22791W        W39265   7.282  16.883  13.348  0.0348  0.2688  0.0454
22792W        W39266  12.695  14.822   3.997 -0.1143  0.0854 -0.0358
22793W        W39267  10.440   1.546   3.557  0.0078  0.0466  0.0992
22794W        W39268   7.156  15.975   4.051 -0.4141 -0.3270  0.0632
22795W        W39269   6.634   6.792  14.708 -0.1296  0.0147 -0.0439
22796W        W39270   5.974  18.382   1.735  0.2071  0.2356  0.1266
22797W        W39271  17.439   9.138   4.872  0.1074  0.0703 -0.2734
22798W        W39272   7.102  12.021   2.469 -0.1317  0.2705  0.0692
22799W        W39273  10.985   3.347  11.333  0.0372 -0.2494 -0.0889
22800W        W39274   0.510  16.538  13.365 -0.2973 -0.1099 -0.2649
22801W        W39275   8.605  10.157  11.551  0.2597  0.0074 -0.1810
22802W        W39276  11.200  14.090   4.053  0.0125 -0.2934 -0.1045
22803W        W39277  10.478   1.978  13.650 -0.2777 -0.0853 -0.0399
22804W        W39278   6.665  15.619   2.297 -0.0596 -0.3869  0.0681
22805W        W39279   2.646   3.361   4.121  0.0325  0.1751  0.0924
22806W        W39280   7.282   6.357  10.890 -0.1276  0.4288 -0.1419
22807W        W39281   5.347  16.818   3.517 -0.0031 -0.0363  0.2123
22808W        W39282   6.519   1.452  12.909 -0.2705 -0.0061  0.1587
22809W        W39283   5.134  18.004   3.427 -0.1478  0.3021 -0.1360
22810W        W39284   7.940  14.232   1.445 -0.2592 -0.1395 -0.0139
22811W        W39285   1.787   8.113  13.480  0.0281 -0.0504  0.3424
22812W        W39286  16.692  15.868   2.159  0.2755  0.1191 -0.0159
22813W        W39287   2.978   2.848   0.620 -0.0978 -0.0395 -0.1606
22814W        W39288  16.012   4.213  11.500 -0.2125 -0.1421  0.1493
22815W        W39289  17.470   1.154   3.827 -0.1528 -0.1683 -0.0194
22816W        W39290   9.077   0.382  10.829 -0.0082  0.3741  0.0838
22817W        W39291   9.030   1.275   3.281  0.0765 -0.0765  0.1515
22818W        W39292   8.416   5.424   3.780  0.1481 -0.1601 -0.2049
22819W        W39293  16.277  11.486   4.644  0.1136  0.1305 -0.0778
22820W        W39294   0.898   9.994   3.236 -0.0173  0.1451  0.0503
22821W        W39295   0.288   9.257   2.355 -0.0689 -0.0354  0.1510
22822W        W39296  12.256  18.395  14.647 -0.2588 -0.2574 -0.0720
22823W        W39297  10.824   4.865  11.736  0.0022 -0.2981  0.3380
22824W        W39298   6.817  17.566   3.563  0.5166  0.0896 -0.1197
22825W        W39299  15.510  16.520  14.101  0.0365 -0.0653 -0.1100
22826W        W39300   6.553   9.399  14.212 -0.2809  0.1323  0.1663
22827W        W39301   6.975   5.556  11.903  0.2703  0.1007  0.1822
22828W        W39302  13.758   7.641   1.400 -0.0287 -0.0867 -0.2360
22829W        W39303   1.783  10.297  14.250  0.1164 -0.1884 -0.0010
22830W        W39304   6.404   0.402   4.542 -0.0688 -0.3352 -0.0024
22831W        W39305   3.007   3.196  14.078  0.0534 -0.0238 -0.1675
22832W        W39306   8.033   0.258   0.161 -0.1722 -0.1911 -0.1998
22833W        W39307  10.372  14.553   1.222 -0.0028 -0.1743  0.1207
22834W        W39308   2.271  15.068   3.846 -0.0083 -0.1650 -0.3081
22835W        W39309   5.314  15.269   2.282 -0.0715 -0.1605  0.2085
22836W        W39310  12.274   8.889   1.038  0.0525  0.2851 -0.0607
22837W        W39311   9.174  15.591   3.295  0.0542  0.1709 -0.2256
22838W        W39312   7.171  15.527  14.084 -0.0026 -0.6545  0.2142
22839W        W39313  16.165   3.494  15.467  0.0927 -0.2588  0.2128
22840W        W39314  13.698   9.070  11.723 -0.1803  0.0309 -0.0516
22841W        W39315  13.515   1.581  10.935 -0.0391  0.0326 -0.0132
22842W        W39316   4.614   9.429  10.842  0.2704  0.2672 -0.0659
22843W        W39317  16.851  16.058   1.377  0.1444  0.1012  0.0845
22844W        W39318  17.136  14.675   3.612 -0.1760  0.0238  0.1827
22845W        W39319  15.371   7.703   5.200  0.0331  0.0868 -0.2991
22846W        W39320  14.662   4.062  15.338 -0.0378 -0.0179  0.5330
22847W        W39321   9.480   8.976  14.938  0.1768 -0.4729  0.1183
22848W        W39322   5.123  12.701  10.747 -0.0323 -0.1207 -0.1264
22849W        W39323  12.393   3.608   0.384 -0.4264  0.1171  0.0419
22850W        W39324   8.253  10.321  11.816 -0.1213 -0.1342 -0.1780
22851W        W39325  16.254  14.729   0.253 -0.0507 -0.0413  0.0229
22852W        W39326   3.555   9.986  10.100  0.2431 -0.0813  0.2051
22853W        W39327  17.647   9.958  13.836  0.0496  0.1870 -0.0457
22854W        W39328   8.302  16.471   4.619 -0.3837 -0.3651  0.1714
22855W        W39329  17.234  12.621   1.179 -0.3535  0.0230  0.2229
22856W        W39330  15.337  18.602  12.994  0.1042 -0.0213  0.0694
22857W        W39331   7.587   7.912   3.912  0.0820  0.0927  0.3739
22858W        W39332  14.148  10.919  14.735  0.0043  0.0660 -0.2513
22859W        W39333   0.446   2.875  15.408  0.0032  0.0302  0.1535
22860W        W39334   3.168   2.390  10.529 -0.2282 -0.1421  0.1647
22861W        W39335  15.890  15.863  11.685  0.2536 -0.0596 -0.3899
22862W        W39336   8.923   7.261  11.072 -0.1455 -0.1095 -0.0313
22863W        W39337  15.486  16.838   1.266 -0.0310  0.0490 -0.1318
22864W        W39338  17.548  12.335  12.783  0.1563 -0.2100 -0.5787
22865W        W39339   8.574   3.542   4.397  0.2583  0.3521 -0.0512
22866W        W39340   7.060   0.267   0.387 -0.2392  0.0091 -0.1056
22867W        W39341   5.798  15.733  13.616 -0.3597 -0.0623 -0.0234
22868W        W39342  10.971  10.918   2.285  0.1690  0.3686  0.1250
22869W        W39343  18.511  13.549  13.073  0.1302  0.3057  0.0884
22870W        W39344   3.550   1.408  11.368  0.1468  0.1062  0.4290
22871W        W39345   2.335   1.256   1.535  0.0082 -0.3277  0.3921
22872W        W39346  12.734   2.367   4.256 -0.0425 -0.0371 -0.2491
22873W        W39347  18.544  12.061  10.728  0.2043 -0.2346  0.0076
22874W        W39348   4.417   0.036   4.068 -0.0951  0.1897  0.5178
22875W        W39349   0.392   7.360   3.821  0.1690 -0.0504  0.0910
22876W        W39350  15.976  15.686   5.042  0.2881  0.0144 -0.3142
22877W        W39351   9.929   1.307   3.360  0.0774 -0.5248 -0.1048
22878W        W39352   2.630  17.818  14.063 -0.3026  0.1314  0.0822
22879W        W39353  14.499   0.504   4.471 -0.0102 -0.0012  0.1666
22880W        W39354  16.674   9.574  15.159  0.0230  0.1244 -0.0759
22881W        W39355  13.760   5.112  12.793 -0.1882  0.0159 -0.0822
22882W        W39356  14.244   0.327   0.778  0.0847  0.2287  0.3019
22883W        W39357  16.136  13.256  14.767 -0.0317  0.0329  0.2996
22884W        W39358   5.391   9.382  11.107 -0.2983  0.0418 -0.0054
22885W        W39359  13.562  17.942   4.885 -0.1257  0.2278 -0.0033
22886W        W39360  17.367   7.745  13.941  0.0607 -0.0793 -0.1290
22887W        W39361  13.522   8.823  14.680  0.2680 -0.2108 -0.0256
22888W        W39362   8.150  16.537  12.346  0.1236  0.0497 -0.2055
22889W        W39363  11.284   2.096  14.813  0.0498 -0.0323 -0.2013
22890W        W39364   4.724  17.532   3.990  0.1672  0.0059  0.3376
22891W        W39365  15.785   5.877   4.664  0.0714 -0.1179  0.0076
22892W        W39366   5.755   8.413  12.916  0.2817  0.0204 -0.2759
22893W        W39367  17.199   1.753   3.217  0.2302 -0.0698 -0.1446
22894W        W39368   0.192  16.326  12.595  0.1679 -0.2060 -0.0409
22895W        W39369   8.791   9.615   2.131 -0.1228  0.1530  0.0341
22896W        W39370   8.715   7.652   3.120  0.2129  0.0638  0.0353
22897W        W39371  12.669   7.799  14.390 -0.1152  0.0331 -0.1768
22898W        W39372   8.961  12.753  13.757 -0.1352  0.0479  0.0098
22899W        W39373   1.031  13.184   0.934  0.2332  0.2701 -0.0712
22900W        W39374   9.599   1.443   0.232  0.0734  0.1078 -0.1793
22901W        W39375   3.257   6.107   0.724 -0.2101  0.3247  0.1810
22902W        W39376   1.002   4.488  13.241  0.1541 -0.2294 -0.1430
22903W        W39377  12.830  15.407  12.200 -0.0418 -0.1497  0.0027
22904W        W39378   9.016   3.312   0.406  0.0500  0.0691  0.0820
22905W        W39379  14.399  14.037  15.103 -0.2136 -0.1093  0.0797
22906W        W39380   8.335  13.368  12.398  0.0302 -0.3413  0.0501
22907W        W39381  14.164  17.150   3.754  0.4328 -0.0415 -0.0276
22908W        W39382  13.086  14.013   4.164  0.1466  0.0403 -0.2956
22909W        W39383   8.430   5.606   0.958  0.3512 -0.0172  0.2308
22910W        W39384  17.867   5.638   4.529  0.0561 -0.1752  0.2773
22911W        W39385  14.749  16.676  13.697  0.2875  0.2850 -0.1355
22912W        W39386   3.444   6.994  11.703 -0.2577  0.0657  0.1613
22913W        W39387  16.119   7.014  14.268  0.0882 -0.1233 -0.1740
22914W        W39388  16.251   7.695  12.405 -0.2313  0.0372 -0.0650
22915W        W39389   0.925   9.507   4.656 -0.1732  0.1431  0.1310
22916W        W39390   6.103  15.587   1.095 -0.2216 -0.0590  0.2107
22917W        W39391  11.100  17.060  11.693  0.1596 -0.0670 -0.4077
22918W        W39392  14.089   3.635   4.081  0.1305 -0.1011  0.2072
22919W        W39393  14.042  13.769   6.106 -0.0337  0.2439 -0.0954
22920W        W39394   9.158  15.455   0.919 -0.0504 -0.0589  0.1104
22921W        W39395  15.301  15.912  12.823 -0.2025 -0.6142  0.0450
22922W        W39396  16.836   2.391   0.086 -0.0191  0.0490  0.0724
22923W        W39397   7.675  11.368   4.563 -0.2164  0.1019 -0.0371
22924W        W39398   0.466   8.656   1.113 -0.1717 -0.1743  0.1406
22925W        W39399   3.030   0.423   5.552  0.0609 -0.0481 -0.4694
22926W        W39400   1.452  16.821   3.032 -0.1457  0.1228  0.2940
22927W        W39401  10.103  13.548  13.119  0.1312  0.3838  0.1678
22928W        W39402  12.133  14.420   4.402 -0.1796 -0.2009 -0.0619
22929W        W39403  15.775   8.338  13.008  0.0512  0.0856  0.1526
22930W        W39404   8.819  10.403   1.750 -0.0292 -0.2018  0.1833
22931W        W39405   2.892   6.679   4.649  0.0564  0.0760 -0.3380
22932W        W39406   5.465  13.121   4.292 -0.1875 -0.0841 -0.3174
22933W        W39407  11.130  16.181  13.652 -0.3143 -0.1385 -0.0930
22934W        W39408   8.230   8.884  12.503 -0.0063 -0.4699 -0.1367
22935W        W39409  17.258  14.018  14.682 -0.1686  0.1703 -0.2274
22936W        W39410   7.305   8.380  15.443  0.0859  0.3507 -0.1367
22937W        W39411  17.568   6.658   1.112  0.2268  0.0069 -0.2631
22938W        W39412   2.022   4.388   2.674  0.0702  0.0988 -0.1714
22939W        W39413  11.370  12.003  15.523  0.1738  0.1351 -0.1384
22940W        W39414  12.273   5.662   1.302 -0.0575  0.0810  0.0732
22941W        W39415   3.708  13.586   1.546 -0.0691  0.1947 -0.4742
22942W        W39416   0.374  17.960   2.060 -0.2064  0.1338  0.1511
22943W        W39417  12.793   0.710   5.574 -0.3230  0.0869  0.1507
22944W        W39418   8.612  17.426   1.718 -0.0130  0.2514 -0.1153
22945W        W39419   3.623  12.108   3.115  0.1690 -0.2795 -0.1390
22946W        W39420   5.919   1.800  12.197 -0.2696 -0.2950  0.0805
22947W        W39421   4.602  13.105   2.610  0.0990 -0.0691 -0.1079
22948W        W39422   3.941  13.384  12.573  0.1697  0.1573 -0.1454
22949W        W39423   9.233  16.948   9.948 -0.1911 -0.2193  0.2601
22950W        W39424  16.327  18.379   4.217  0.4629  0.2213  0.1214
22951W        W39425  13.066  18.311   3.426 -0.0316 -0.1021  0.4684
22952W        W39426   1.555  17.526  15.350 -0.2191 -0.1188  0.6250
22953W        W39427  16.726   0.081   2.582  0.4497  0.0444 -0.1731
22954W        W39428  10.100  11.415  13.834  0.3081 -0.1440  0.0824
22955W        W39429   0.827  15.471  14.462  0.0228  0.0656 -0.2002
22956W        W39430  16.928  15.218   0.674 -0.0948  0.3478  0.1538
22957W        W39431   5.784   3.543   4.447 -0.1640  0.3291 -0.4138
22958W        W39432  15.823   3.642   0.730 -0.0766  0.0701 -0.2162
22959W        W39433   4.320   9.349   4.555 -0.0370  0.0026 -0.4065
22960W        W39434   1.026   0.542  11.989 -0.0643 -0.1673 -0.2488
22961W        W39435  11.562   1.037   0.994 -0.0104 -0.1890 -0.2956
22962W        W39436  13.075   5.875   0.144  0.0293 -0.0793  0.3608
22963W        W39437   5.043  12.362   4.050  0.0188  0.1891  0.4477
22964W        W39438  13.342  12.720  12.916 -0.1231  0.0977  0.1141
22965W        W39439   1.197   7.556   0.735 -0.1958 -0.1577  0.2075
22966W        W39440   7.023  16.216  10.783  0.0358 -0.0873  0.2071
22967W        W39441   0.019  14.303   2.183 -0.0315  0.1752  0.1147
22968W        W39442   1.313  16.547  14.177  0.0933 -0.2533  0.0529
22969W        W39443   9.359   3.867   5.018  0.0796 -0.1784  0.1665
22970W        W39444  12.114  15.593   1.305 -0.0198 -0.1277 -0.2525
22971W        W39445   3.952   2.948   3.470 -0.2763  0.0847 -0.2681
22972W        W39446  15.421   9.908  11.551  0.1636  0.0651 -0.1807
22973W        W39447   5.856   4.642  14.634  0.2650 -0.1698  0.3616
22974W        W39448  16.917   1.621  14.551  0.0097 -0.1574  0.1224
22975W        W39449  13.450   8.747   4.917 -0.2839  0.0797  0.1331
22976W        W39450  17.843  11.371   1.928  0.0915  0.0493 -0.3755
22977W        W39451   1.035  13.346  12.394  0.1524  0.2833 -0.1634
22978W        W39452  14.792   7.989  13.193 -0.0108  0.2192 -0.0994
22979W        W39453  15.911  11.330  12.048 -0.1786 -0.0696  0.1138
22980W        W39454  15.313  13.036  12.825  0.2366 -0.1413  0.0609
22981W        W39455  17.348   3.273  11.947  0.0716 -0.2859  0.0406
22982W        W39456   1.038  11.229   4.671 -0.2271 -0.0400 -0.0496
22983W        W39457   0.657   5.305   3.621 -0.1607  0.0264  0.0882
22984W        W39458   6.526  16.743  14.970 -0.1100  0.0995  0.3558
22985W        W39459  16.658   9.316   4.440  0.0304  0.0681  0.0204
22986W        W39460  14.100  12.009   4.446  0.0397 -0.0201  0.0887
22987W        W39461   4.805  15.984  12.947  0.0164 -0.2628  0.0450
22988W        W39462  14.271   9.049   1.809  0.0101  0.0521 -0.1307
22989W        W39463  11.790   9.607  12.150 -0.3321 -0.1054 -0.0222
22990W        W39464  12.880  10.218  11.744  0.0616 -0.1557 -0.0238
22991W        W39465   7.827   9.624  14.408 -0.0099 -0.1034 -0.3016
22992W        W39466   1.967   0.308   1.846  0.0589 -0.0256 -0.3119
22993W        W39467  15.767  13.101   2.779  0.1716 -0.0371  0.2496
22994W        W39468   6.930  17.122   2.301 -0.2263  0.2227  0.1860
22995W        W39469   1.128  11.266   3.373 -0.2315 -0.1509  0.0906
22996W        W39470   3.638  10.408  11.306 -0.0418  0.2269 -0.0482
22997W        W39471   8.248   5.751   9.277 -0.1050 -0.0548  0.1617
22998W        W39472  12.205  16.467   3.370  0.1949  0.0846  0.2792
22999W        W39473  10.948  16.244   5.269  0.0631 -0.0124  0.1149
23000W        W39474  18.466   5.957   2.219  0.2601 -0.0813 -0.2587
23001W        W39475  12.285   8.969  11.433 -0.2355  0.0756 -0.0834
23002W        W39476  10.349  16.990   5.578 -0.1706  0.1532 -0.2991
23003W        W39477   0.733   0.237  13.500  0.2349 -0.4179 -0.0807
23004W        W39478   1.713   2.626   0.223  0.0623  0.0151  0.2259
23005W        W39479  14.609  16.432   0.839  0.1230 -0.0494  0.0778
23006W        W39480  18.570   9.493   3.137 -0.0315 -0.1271  0.0330
23007W        W39481  12.464  15.315   4.137  0.2840  0.0039  0.0653
23008W        W39482   7.307  16.612  14.060 -0.2787 -0.0349  0.0025
23009W        W39483  12.953  16.356  14.219  0.1114  0.1020 -0.3551
23010W        W39484   4.584   3.940   2.592  0.0273  0.2458 -0.1020
23011W        W39485  15.587   3.095   5.271 -0.0574 -0.0645 -0.0360
23012W        W39486  15.132  10.537   1.692  0.4071 -0.2770 -0.1482
23013W        W39487   3.664   1.069  10.141  0.1689 -0.0666 -0.1313
23014W        W39488  12.686  12.966   5.943  0.1773 -0.3073  0.1757
23015W        W39489   3.613   6.767  13.105  0.0510 -0.0615  0.1204
23016W        W39490   8.193  14.811  13.992  0.1560 -0.0076  0.2107
23017W        W39491   1.625   2.289  14.757 -0.0132  0.1021  0.2377
23018W        W39492   7.771  15.817  15.098  0.0323 -0.1537  0.2437
23019W        W39493   0.444   1.658  12.224  0.1798  0.1104 -0.2263
23020W        W39494   6.250  14.509  11.325 -0.1532 -0.0768  0.1183
23021W        W39495   9.030  13.646  11.548  0.0453  0.0959  0.2496
23022W        W39496  15.347  16.792   5.659 -0.4353  0.1455  0.1597
23023W        W39497   6.560   8.359   2.869 -0.4024 -0.2792 -0.1916
23024W        W39498  10.352  15.911   2.275  0.4705 -0.1799  0.2104
23025W        W39499  18.433  15.724   4.192 -0.2013 -0.2653 -0.1909
23026W        W39500   1.436  18.210   0.473  0.0446 -0.2423 -0.2279
23027W        W39501  14.138   9.596   5.800  0.3985 -0.1290  0.0603
23028W        W39502   4.263   0.574   3.294  0.1295  0.1108 -0.3980
23029W        W39503  17.934   1.344   0.102 -0.0858  0.1838 -0.0594
23030W        W39504  15.843   8.860   2.973 -0.0043 -0.1298  0.0485
23031W        W39505  13.713  17.030   3.487  0.0665  0.1270  0.0457
23032W        W39506  17.720  12.874   3.639  0.0291 -0.1714  0.1863
23033W        W39507  14.674  10.957   0.682 -0.0560  0.0321  0.1635
23034W        W39508  14.102   0.793   1.647  0.0932 -0.0491  0.0984
23035W        W39509  18.393   8.428   2.157  0.2251 -0.3031  0.0701
23036W        W39510  15.219  10.466   1.148 -0.0857 -0.1386  0.1224
23037W        W39511   4.237   1.824   1.241 -0.3152  0.1923 -0.2384
23038W        W39512  15.821   9.802   3.002  0.1370 -0.0889 -0.0173
23039W        W39513  12.184  13.458  14.057 -0.1830  0.0692  0.0730
23040W        W39514   0.665  10.377  14.136  0.1752 -0.0068 -0.0707
23041W        W39515   2.040   0.195   4.508  0.0088  0.1793 -0.2216
23042W        W39516   2.867  10.204   0.565 -0.0900 -0.0210 -0.2734
23043W        W39517   8.655   3.458  13.182 -0.0196 -0.1364 -0.4616
23044W        W39518   9.954   9.107  15.543 -0.0830 -0.1128  0.0938
23045W        W39519  12.954  12.104  13.158 -0.2442 -0.1326  0.1686
23046W        W39520   3.242   3.451   1.111 -0.1764  0.0461 -0.1283
23047W        W39521  15.460   8.044  12.638  0.0164  0.2826 -0.1919
23048W        W39522  14.642   1.101  13.110  0.0915 -0.1044  0.0948
23049W        W39523   6.088   4.729   4.318 -0.3632  0.0550 -0.0342
23050W        W39524   5.132   7.255  13.530 -0.0007  0.0641 -0.3093
23051W        W39525  12.605  11.558   3.169  0.2947  0.1625  0.0304
23052W        W39526  12.586  17.106   5.412 -0.0529  0.0701 -0.1455
23053W        W39527   2.506   1.160  13.284  0.1288 -0.0124  0.1424
23054W        W39528   3.218  11.823   2.888 -0.0756 -0.0501  0.1440
23055W        W39529   8.903  11.054   3.449 -0.0918 -0.0145 -0.1574
23056W        W39530  12.096  16.737  13.470 -0.0929 -0.5164 -0.3552
23057W        W39531   9.480   3.184   0.572 -0.1112  0.1753 -0.0042
23058W        W39532  15.848   1.491   4.134 -0.1278  0.0545  0.0427
23059W        W39533   9.957  14.985  13.959  0.1047 -0.3383 -0.2063
23060W        W39534  10.721  17.605   4.168 -0.1410 -0.0787  0.0401
23061W        W39535  13.879  16.708   0.117 -0.2031  0.1020  0.0639
23062W        W39536   8.050  13.227   3.503 -0.0486 -0.0960 -0.1322
23063W        W39537  13.508   6.854  14.830  0.1419 -0.1138  0.2282
23064W        W39538  16.331  17.340   2.353 -0.0466 -0.2196  0.0192
23065W        W39539   1.659   0.047  14.503  0.2055 -0.0768 -0.2421
23066W        W39540  10.170   3.991  11.800  0.1891  0.1600 -0.0349
23067W        W39541   8.772   6.798  11.676  0.2499 -0.0392  0.0654
23068W        W39542  16.234   9.168  12.796  0.0026  0.2498  0.0712
23069W        W39543   4.260  17.442  10.454  0.0880  0.3252  0.1001
23070W        W39544   7.524   9.453  10.963  0.1015  0.0657  0.1182
23071W        W39545   3.726   9.519  14.858  0.1553 -0.4627  0.1424
23072W        W39546  16.673   3.598  13.937  0.0682  0.1517  0.0947
23073W        W39547   7.312   6.279   4.680 -0.0616  0.2020 -0.1513
23074W        W39548  14.737  18.118  13.696 -0.1439 -0.0435 -0.3519
23075W        W39549  15.221  15.954   2.949 -0.0655 -0.1056  0.1745
23076W        W39550  12.225  16.231  12.467 -0.0983  0.1892 -0.0500
23077W        W39551  10.636  10.841   4.652  0.2117 -0.1542  0.1488
23078W        W39552   7.759  12.234   5.239  0.0141 -0.0881 -0.2096
23079W        W39553  10.297   6.377  11.589  0.0653 -0.0655 -0.4634
23080W        W39554  11.115   1.965  11.847  0.5730 -0.0306 -0.1456
23081W        W39555   1.352  13.382  11.511  0.2096 -0.0188  0.3050
23082W        W39556  13.147   8.423  11.286 -0.2580  0.1098 -0.0367
23083W        W39557   5.162  14.206  14.502  0.2271  0.1496 -0.2802
23084W        W39558   9.840  15.059  14.971  0.0661 -0.1040  0.1443
23085W        W39559  15.634  13.069   0.367  0.1567  0.4680  0.2141
23086W        W39560   5.683  15.485  14.906  0.1639 -0.0640 -0.1210
23087W        W39561  17.778   4.505  12.722 -0.0973  0.2395  0.1213
23088W        W39562  13.441  10.238   3.889 -0.2300 -0.1977  0.3362
23089W        W39563   1.500  10.387  11.939 -0.1276 -0.0527  0.2320
23090W        W39564  16.623   8.219   5.497 -0.3436  0.2006 -0.3960
23091W        W39565   8.203  13.194  15.044 -0.0313 -0.3204  0.0365
23092W        W39566   2.425  17.266  11.949  0.0504 -0.1175 -0.0514
23093W        W39567  15.494   2.482   1.361  0.1829  0.1964  0.2876
23094W        W39568   6.615   4.832   4.388 -0.0776  0.1217  0.0851
23095W        W39569   1.174  17.988  13.213 -0.1653 -0.1407  0.0262
23096W        W39570  12.266  16.372  13.808 -0.1696  0.0788  0.0664
23097W        W39571  18.656  17.544   0.088 -0.0966 -0.3064  0.1198
23098W        W39572  16.463  14.795   4.726 -0.0540 -0.0091 -0.0564
23099W        W39573   4.086  13.899   1.501  0.2225  0.2609  0.0616
23100W        W39574   5.469   8.972  11.425  0.2345  0.1475  0.0299
23101W        W39575   8.529   5.670  13.949 -0.4694 -0.5095  0.3002
23102W        W39576   3.326   8.277  11.727 -0.0504 -0.0181  0.0408
23103W        W39577   8.371  13.555   2.632 -0.0910  0.0612  0.2197
23104W        W39578   4.785   6.013   1.565  0.0006  0.2049 -0.1040
23105W        W39579  15.472   0.102  14.276 -0.0624  0.0666  0.0877
23106W        W39580  11.234   8.284   3.391  0.0922  0.1938 -0.1000
23107W        W39581   5.439  10.202  14.874 -0.2063 -0.0581  0.2970
23108W        W39582  14.506   4.533   0.040 -0.0852 -0.1528 -0.2066
23109W        W39583   3.214   0.955   1.672 -0.0666 -0.0951  0.3314
23110W        W39584  10.095  17.258  15.292 -0.3463  0.2023 -0.2302
23111W        W39585  14.993  10.107   0.181 -0.0863  0.0305 -0.0873
23112W        W39586  11.945  17.072  14.800  0.0230 -0.1536  0.2135
23113W        W39587  10.494   1.047   1.017  0.1740 -0.1630 -0.0285
23114W        W39588   4.364   3.677   4.925  0.2110 -0.1540 -0.2660
23115W        W39589   7.140   9.558   1.775  0.1557  0.1466 -0.0517
23116W        W39590   9.750   7.786  11.261 -0.0326 -0.0139 -0.1097
23117W        W39591   8.587  18.099  15.353 -0.3359 -0.2278  0.2503
23118W        W39592   6.827  14.515  13.439 -0.1009 -0.0276  0.1502
23119W        W39593  18.205   8.995  11.868 -0.6143  0.2346  0.0751
23120W        W39594   9.842  15.842   0.508 -0.1860  0.0013 -0.3062
23121W        W39595   5.496   6.295  15.074 -0.1980 -0.1652 -0.3480
23122W        W39596  10.717  15.372   3.098  0.0084  0.0410  0.0580
23123W        W39597   7.407   2.714   1.467 -0.1793  0.2152 -0.0506
23124W        W39598   9.146  10.306  11.828  0.1411  0.0263  0.0428
23125W        W39599   3.216  18.216   1.757 -0.1535  0.0372  0.0876
23126W        W39600   3.674  14.018  11.676 -0.0070 -0.0561 -0.0419
23127W        W39601   6.033  17.272  13.202  0.0824  0.0222 -0.1864
23128W        W39602   5.055   3.205   0.795 -0.0641  0.2089 -0.1504
23129W        W39603  16.018  17.001   2.762 -0.0907 -0.1065 -0.1023
23130W        W39604   6.488   4.047   2.157  0.0194 -0.1682 -0.1799
23131W        W39605   1.276   1.237  12.868 -0.1046  0.0219  0.1415
23132W        W39606  10.073   3.425   3.364  0.3583  0.1657  0.1575
23133W        W39607  13.183  10.202   3.347  0.0538  0.4916 -0.0171
23134W        W39608  12.611  17.324   0.836  0.0297 -0.2614 -0.2019
23135W        W39609   8.464   1.003  13.142  0.1958 -0.1281  0.0079
23136W        W39610  11.392   4.499   0.745  0.2407  0.1415 -0.1672
23137W        W39611   1.912  16.023  10.160  0.4128  0.3458  0.1343
23138W        W39612  14.873  12.536   0.518 -0.1057  0.1589  0.1051
23139W        W39613   1.077  14.410  11.572 -0.0118 -0.0398 -0.0326
23140W        W39614  17.714  18.637   4.132 -0.2124  0.1132 -0.2032
23141W        W39615   4.798  16.598  15.345 -0.2544 -0.1557  0.1504
23142W        W39616   9.085  17.227  14.407 -0.1168  0.0151 -0.3915
23143W        W39617   3.689  11.094   2.888 -0.0278  0.1989  0.1657
23144W        W39618  14.720   1.398   2.649 -0.0404  0.3145 -0.0161
23145W        W39619   4.551  15.753  14.879 -0.2733 -0.0935  0.2204
23146W        W39620   4.271  14.430   3.945  0.1054 -0.0277  0.5178
23147W        W39621   7.013   1.983   0.913  0.2021 -0.1462 -0.2431
23148W        W39622   4.187   7.672  13.135 -0.2387  0.1872  0.0841
23149W        W39623  15.459   2.880   1.012  0.0384 -0.0843 -0.0392
23150W        W39624   6.503  10.070  14.977 -0.0673 -0.1402  0.0825
23151W        W39625  18.644  18.239   1.216  0.1221  0.1123  0.2348
23152W        W39626   9.831  14.711  12.152  0.0651  0.2230  0.0386
23153W        W39627  13.091   7.593  11.214  0.0970  0.3116  0.2613
23154W        W39628   3.843   8.593  13.736 -0.1154  0.2346  0.1145
23155W        W39629   7.405   0.968  12.769 -0.0898  0.0926  0.0699
23156W        W39630  10.025  11.597  15.474 -0.0919  0.0579  0.0019
23157W        W39631  10.214   4.058  13.798  0.0080 -0.2357 -0.3403
23158W        W39632   1.059   2.912   3.361  0.0084  0.2506  0.1650
23159W        W39633   0.810   9.015  10.857 -0.2750 -0.1173  0.0866
23160W        W39634   2.289  13.041   2.307 -0.1884 -0.0039 -0.0362
23161W        W39635   1.899   2.188   3.591 -0.0432 -0.2050 -0.0391
23162W        W39636  15.148   8.632   1.889  0.1709  0.1236  0.1835
23163W        W39637  16.202  12.669  13.863 -0.2694 -0.4188  0.1364
23164W        W39638  13.864   7.474  12.722  0.2009 -0.1632 -0.0008
23165W        W39639   2.448  16.075   1.428 -0.0806  0.2803  0.1502
23166W        W39640  15.950  18.170  12.258  0.0595 -0.0707 -0.0959
23167W        W39641  18.684   9.217   0.344  0.4324  0.3523 -0.0179
23168W        W39642  12.057   7.425   2.761 -0.0679  0.2271  0.3534
23169W        W39643  17.349   0.552   3.769  0.1690  0.1505 -0.0033
23170W        W39644  10.573   0.580   4.401  0.0339 -0.3191  0.0366
23171W        W39645  15.503   8.035   4.880  0.1805 -0.1797  0.2212
23172W        W39646   4.832   0.172  12.145  0.0357 -0.1478 -0.1631
23173W        W39647   0.594   3.894  14.860 -0.0925 -0.0686  0.1011
23174W        W39648  17.009   6.528  12.055 -0.2076  0.0239 -0.1111
23175W        W39649  16.283  12.554   1.041 -0.1188 -0.0524  0.1413
23176W        W39650   0.241   9.700   2.155 -0.0371  0.0354 -0.1390
23177W        W39651   8.189  12.240  10.296  0.0847 -0.0146  0.4293
23178W        W39652  12.514  16.852  13.895  0.1467  0.0616  0.2124
23179W        W39653  10.503   5.401  14.342  0.2044 -0.2512  0.2111
23180W        W39654   1.636   5.599  11.518  0.0897 -0.0980 -0.1536
23181W        W39655  18.564  17.795  15.085  0.1477 -0.1905 -0.2786
23182W        W39656   3.557   8.105   2.784  0.1182 -0.0677  0.2030
23183W        W39657   0.830  11.906  12.578  0.3647  0.0639  0.2033
23184W        W39658  17.738  10.956  11.955  0.2119 -0.0569 -0.1648
23185W        W39659   2.844  13.449  11.809  0.2080  0.1880 -0.0727
23186W        W39660   4.397   4.323   2.244  0.0545 -0.1203 -0.0437
23187W        W39661  18.741  11.025   2.425 -0.0054 -0.0732  0.3435
23188W        W39662   4.149   1.694  11.000 -0.0075 -0.4380  0.1055
23189W        W39663  15.697   4.608   5.003 -0.1478 -0.0260 -0.2219
23190W        W39664  13.346  16.911   2.678  0.1695  0.0016 -0.1989
23191W        W39665   2.687   6.532  11.641 -0.0953  0.1744 -0.2557
23192W        W39666   9.086   9.809  13.909 -0.0472 -0.3201  0.2312
23193W        W39667   0.663   5.016  14.641 -0.2098 -0.0285 -0.3053
23194W        W39668  11.254   7.977   0.361 -0.2578  0.0198 -0.1192
23195W        W39669   5.676  14.024   2.284  0.3927 -0.3167 -0.1523
23196W        W39670   1.625  10.789  10.443  0.1318  0.2007 -0.1692
23197W        W39671   3.922  14.205  14.918 -0.0272  0.2166  0.0195
23198W        W39672   8.878  12.607   2.162  0.3212 -0.2432 -0.4506
23199W        W39673   9.800  18.206   2.683 -0.0970 -0.0400 -0.0781
23200W        W39674  18.455   8.805  10.848  0.0317 -0.0934 -0.0302
23201W        W39675  11.829  10.427  12.443  0.0145 -0.0668 -0.0342
23202W        W39676  16.088  18.018   5.741  0.1674  0.2243  0.2235
23203W        W39677  11.083  13.066   4.791 -0.0725 -0.3366  0.0601
23204W        W39678   3.682   2.630   1.976 -0.0177  0.0361  0.1030
23205W        W39679   5.789  12.703   2.767 -0.3990 -0.1612 -0.1386
23206W        W39680  18.020   1.702   5.620 -0.1138  0.0191  0.3594
23207W        W39681   6.114   5.373   1.165 -0.1370 -0.1317 -0.0760
23208W        W39682   7.435   1.987  12.983  0.0446  0.3625 -0.2122
23209W        W39683  11.935   8.329  13.849 -0.1757  0.0632 -0.1168
23210W        W39684  12.086   0.603   6.147 -0.2201 -0.1422 -0.0939
23211W        W39685  17.391  17.936   0.729 -0.0849 -0.3508 -0.2727
23212W        W39686  10.222  10.832  12.458  0.2833  0.1825  0.0027
23213W        W39687   2.674  12.176   1.343 -0.2346  0.1853  0.1707
23214W        W39688   9.971   3.364  13.521 -0.0229  0.0132 -0.1951
23215W        W39689  16.200   3.350  11.330  0.1277 -0.1559  0.0914
23216W        W39690   1.164   8.835   2.495 -0.2866 -0.0479  0.3484
23217W        W39691   1.805  13.523   3.113  0.2983 -0.0570  0.0971
23218W        W39692   4.344   1.163  10.905  0.1603 -0.4498 -0.0888
23219W        W39693  15.664  16.828  15.533 -0.0607  0.0411 -0.2495
23220W        W39694  14.232   5.856  15.094 -0.3723 -0.0051  0.1425
23221W        W39695   9.038  14.594   1.355 -0.0587 -0.1321 -0.2839
23222W        W39696  15.899   4.549  11.870 -0.0932  0.1553  0.0634
23223W        W39697  14.667   9.723  12.720 -0.0372 -0.0468  0.2773
23224W        W39698   7.677  14.753   2.893 -0.0097 -0.0571 -0.0228
23225W        W39699  17.726   9.596   1.755 -0.1948 -0.4736  0.1622
23226W        W39700   0.804   1.487  13.047 -0.3005  0.1082 -0.0436
23227W        W39701  17.324  18.269  15.480  0.1486 -0.0548  0.1585
23228W        W39702   9.431  18.063   0.831 -0.1511  0.0893  0.0412
23229W        W39703   0.542   4.609  12.790  0.3526 -0.0439  0.2489
23230W        W39704  17.070   6.773  13.227  0.2628  0.0296 -0.1463
23231W        W39705   7.721   2.488  13.778  0.3314  0.3562  0.0514
23232W        W39706  17.334  10.264   4.196  0.3311  0.1312  0.0129
23233W        W39707  17.946  12.121   0.675 -0.1069  0.2662 -0.5537
23234W        W39708  14.690   9.862  14.959  0.2476  0.0300  0.0326
23235W        W39709   3.531  18.573   4.408  0.1326 -0.0403  0.2158
23236W        W39710  10.479  14.122  11.496  0.1942  0.2532 -0.3278
23237W        W39711  16.630  14.827   5.494 -0.3483  0.1338  0.0784
23238W        W39712   6.711   3.522  11.982 -0.0740 -0.0217 -0.1421
23239W        W39713  17.536   3.018   3.310 -0.0420 -0.1337  0.0565
23240W        W39714   9.877   3.068   1.296 -0.0180  0.2280  0.1090
23241W        W39715  17.440  15.971  15.103 -0.1553 -0.2953 -0.0984
23242W        W39716   6.980   5.142   5.393 -0.2267 -0.1141  0.2584
23243W        W39717  12.172   2.247   1.736 -0.0072  0.1172 -0.1513
23244W        W39718  14.754   3.232   2.592 -0.3403 -0.3208  0.1109
23245W        W39719  18.395   4.164  14.774 -0.0489 -0.1007  0.5005
23246W        W39720   2.320  15.905  14.834  0.1862 -0.0270 -0.2183
23247W        W39721   0.318   8.183   0.949 -0.2495  0.0280  0.0029
23248W        W39722  11.543   1.246   1.532  0.0660  0.3574 -0.0050
23249W        W39723   4.711   6.452  13.632  0.0484  0.2327 -0.0578
23250W        W39724   6.449   1.116  12.538  0.1928 -0.2284 -0.1993
23251W        W39725  15.397  10.122   3.048  0.2371  0.0074 -0.1410
23252W        W39726   3.353  12.651  13.579  0.0503 -0.0824 -0.1089
23253W        W39727  16.468   8.777   1.464 -0.0427 -0.0377  0.2747
23254W        W39728   0.234   1.251  11.392  0.2991 -0.1891  0.1128
23255W        W39729   2.228   8.114   4.234  0.0471 -0.0443 -0.0116
23256W        W39730   7.809  13.800   5.247 -0.1618 -0.3109  0.0380
23257W        W39731  11.616   8.555   2.890  0.0334  0.1357 -0.0087
23258W        W39732   6.555  17.256   4.318  0.1029  0.0549 -0.1795
23259W        W39733   7.831  12.362   2.704  0.1565 -0.0631 -0.0425
23260W        W39734  18.560  13.498  12.108  0.3140  0.3374 -0.2210
23261W        W39735   2.507  13.122  11.076 -0.0631  0.0203  0.0565
23262W        W39736   5.502  17.300  12.999 -0.0180 -0.1593 -0.2860
23263W        W39737  13.967  10.400  14.793 -0.2537 -0.0202  0.1135
23264W        W39738   8.731   1.393  10.215  0.2134  0.2485 -0.2994
23265W        W39739  11.506   0.321  11.577 -0.1778  0.0011  0.0833
23266W        W39740   5.346   6.341  12.121  0.2383  0.3713 -0.0645
23267W        W39741   3.245   0.027   2.031  0.2942 -0.1628 -0.1497
23268W        W39742   2.173  16.718  12.943 -0.1378  0.0265  0.0671
23269W        W39743   2.357   0.493   0.240 -0.0317  0.0786  0.2779
23270W        W39744   8.105  11.039   1.307  0.0865 -0.4636 -0.1229
23271W        W39745   4.962   3.038  10.981 -0.2353  0.0932  0.1376
23272W        W39746  11.055  16.966   3.025  0.0233  0.0043  0.2174
23273W        W39747  14.059  12.954   2.776 -0.2481  0.2263 -0.3196
23274W        W39748  16.964  12.128   4.838 -0.2075  0.2009 -0.2608
23275W        W39749  11.396  13.325  15.060  0.1239  0.1721 -0.0598
23276W        W39750  13.938   6.640   2.575 -0.0418 -0.2297 -0.2089
23277W        W39751   2.328   9.014  11.385 -0.1119  0.0425  0.0621
23278W        W39752  13.945  13.448   3.435 -0.3542  0.0894  0.0170
23279W        W39753  15.477  11.727   3.204  0.0402  0.3396  0.0755
23280W        W39754  10.331  14.593   4.516 -0.0314  0.4378 -0.1871
23281W        W39755   3.408  13.584  11.003  0.1578  0.0590 -0.1350
23282W        W39756   4.642  10.826  12.605 -0.0099  0.1316 -0.1844
23283W        W39757  10.005   1.307   1.880 -0.0213  0.0303 -0.1523
23284W        W39758   0.560  17.046   2.558 -0.3253  0.2425  0.4939
23285W        W39759   2.779   0.187  12.102 -0.1902  0.0170  0.2737
23286W        W39760  10.204   4.397   2.129  0.0725  0.3073 -0.0980
23287W        W39761   0.404   6.134   3.998  0.1779  0.2182  0.3660
23288W        W39762  17.266   0.140   2.737 -0.0032 -0.2548 -0.0605
23289W        W39763  16.216  15.142   3.116 -0.3282  0.0546 -0.1227
23290W        W39764  13.354   1.880  15.150  0.2418 -0.0112 -0.2058
23291W        W39765  15.918   3.198   0.890 -0.1152 -0.0999 -0.0031
23292W        W39766   2.431  10.777   1.363  0.0931  0.1507 -0.0143
23293W        W39767  10.854  14.859  12.915  0.3843  0.2356 -0.2563
23294W        W39768   3.559   4.837  15.536  0.2043  0.2572 -0.4056
23295W        W39769  16.609   6.115  14.481  0.0753 -0.3340 -0.2893
23296W        W39770   5.060  10.147   1.572  0.2629  0.0737 -0.0262
23297W        W39771  12.586   7.872   5.095  0.0554  0.2170 -0.0155
23298W        W39772  14.169   5.049  10.122  0.0602  0.1147 -0.1091
23299W        W39773  10.747  18.133  13.761  0.2080  0.0179  0.0878
23300W        W39774   1.453  17.214  12.532  0.1868 -0.0532  0.2425
23301W        W39775   1.475   9.819   3.887 -0.1009 -0.0699  0.2179
23302W        W39776   9.515   2.066  10.889 -0.3000  0.2291  0.0859
23303W        W39777   7.799  10.536   1.321 -0.2599  0.0612 -0.1002
23304W        W39778  12.643   8.426   2.827 -0.0426 -0.0880  0.1158
23305W        W39779   1.155   6.042   1.076  0.1964  0.1957 -0.3628
23306W        W39780  16.919   6.556   4.442 -0.0613 -0.2106  0.1098
23307W        W39781  12.837  18.124  12.592  0.1320 -0.2028  0.0042
23308W        W39782  12.554  15.261  13.667 -0.1584  0.1349  0.1634
23309W        W39783   7.296  16.955   2.638  0.3248 -0.0073  0.3230
23310W        W39784  15.089   8.319  15.421  0.1037  0.5079 -0.1529
23311W        W39785  18.484   0.417  12.072 -0.1423  0.1564 -0.0474
23312W        W39786   2.599   2.852  12.789 -0.0852  0.2515  0.1044
23313W        W39787  18.182   5.343   0.615  0.2469 -0.2172  0.1738
23314W        W39788   8.516  14.651   1.206 -0.0281 -0.0261 -0.0484
23315W        W39789   7.061  12.639   1.227 -0.3114 -0.2076  0.0270
23316W        W39790  18.466   9.957  11.611  0.0924 -0.0498 -0.0239
23317W        W39791   4.135   5.899   0.603 -0.0397 -0.0003  0.1101
23318W        W39792  16.576   0.779  13.947 -0.0352 -0.0479 -0.0203
23319W        W39793  11.285   8.663  11.199 -0.0949  0.0794 -0.1411
23320W        W39794   8.935   8.906  10.973  0.3457  0.2179  0.1372
23321W        W39795   0.250  11.941   0.065 -0.2062 -0.2413  0.1962
23322W        W39796  14.401  17.698  13.214 -0.0002  0.4018 -0.1134
23323W        W39797  12.446   9.680   3.566  0.1641  0.0340  0.2532
23324W        W39798   6.779  15.056   3.864 -0.0047  0.1536 -0.2250
23325W        W39799  16.888  17.927  14.727 -0.2578 -0.0026 -0.3355
23326W        W39800  15.264  15.966   2.373 -0.0204  0.1882  0.4763
23327W        W39801   5.319  18.227  14.970  0.0929 -0.0926 -0.3389
23328W        W39802  10.018   1.305   4.823  0.0575  0.0364  0.0145
23329W        W39803   9.706   7.470   0.288 -0.0557  0.3213 -0.0340
23330W        W39804  11.767  17.112   1.644 -0.4712  0.1957  0.1382
23331W        W39805  12.814  13.623  13.028  0.1865  0.1312  0.1993
23332W        W39806   4.085   7.304   3.061 -0.0397 -0.3096  0.2352
23333W        W39807  16.755   8.428   5.035 -0.0966  0.1581 -0.1930
23334W        W39808  16.717   0.280  14.079 -0.3069 -0.0537  0.0849
23335W        W39809   1.230  13.667   4.496  0.1634 -0.0562  0.0358
23336W        W39810   5.549   5.079   3.692  0.0122 -0.0577 -0.1027
23337W        W39811   8.624   8.478  10.218  0.2319 -0.0951  0.2038
23338W        W39812  13.842   4.095   2.774 -0.1296  0.1643 -0.2130
23339W        W39813  13.100  15.054  12.381 -0.1677  0.0342  0.3664
23340W        W39814  13.381   4.661  11.781 -0.0062 -0.0244 -0.2283
23341W        W39815   1.621   7.304   4.518  0.1578 -0.2208 -0.0300
23342W        W39816  13.267   5.114   5.124 -0.0835 -0.2374  0.0485
23343W        W39817   4.949   7.066   1.177 -0.1779 -0.0020 -0.3090
23344W        W39818   1.622  14.324   5.286  0.1831  0.1248  0.1059
23345W        W39819   8.590   3.120   2.516 -0.1903  0.0770 -0.3329
23346W        W39820  16.378   7.297   4.375 -0.1024  0.0833 -0.1987
23347W        W39821   2.169   5.931   4.852  0.1975  0.2491 -0.2157
23348W        W39822   8.294   1.454   0.626 -0.0034  0.2057  0.1592
23349W        W39823   4.742  14.848  15.490  0.1038  0.0160  0.1105
23350W        W39824  13.627   0.680   2.329 -0.1056  0.0058  0.0600
23351W        W39825  12.264   2.713  12.407 -0.1976  0.1764 -0.2174
23352W        W39826  18.344   5.494  11.916  0.2941  0.0833  0.1609
23353W        W39827  14.105   3.816   3.171  0.1034  0.1440  0.1319
23354W        W39828   8.794  10.205  12.531  0.4243 -0.2646  0.1077
23355W        W39829   3.661  18.452  11.046  0.2467  0.0991  0.1534
23356W        W39830  15.676  11.173   0.583 -0.1240 -0.2894 -0.0546
23357W        W39831   5.810   3.521   2.736 -0.0171 -0.0168  0.1729
23358W        W39832   7.193   8.049   4.142  0.0617  0.0971 -0.0322
23359W        W39833   9.784   2.359   0.620 -0.0413  0.1256  0.2302
23360W        W39834  10.483  17.231   1.314 -0.0107 -0.1300 -0.2060
23361W        W39835  10.489  14.463  12.770 -0.0465  0.0506  0.1413
23362W        W39836   1.785  16.483  14.314  0.1017 -0.0107 -0.3308
23363W        W39837   6.623   9.744   4.616  0.3484  0.1066  0.0591
23364W        W39838   0.034   3.268   5.399 -0.0179  0.1082  0.1497
23365W        W39839  12.763   3.044   5.113  0.1379  0.1135  0.0692
23366W        W39840   1.968  18.038   1.761  0.0917 -0.0315  0.0215
23367W        W39841  12.691   5.176  10.606 -0.1112  0.1692  0.0248
23368W        W39842  16.511  12.459  11.719  0.0100 -0.0794 -0.0273
23369W        W39843   3.726  17.361  14.908  0.0389 -0.3226 -0.0358
23370W        W39844   8.090   4.012  12.270  0.0977 -0.3279 -0.0573
23371W        W39845   9.156  10.644  14.914 -0.0555  0.2667  0.3628
23372W        W39846   3.960   0.223  13.747 -0.0362 -0.0351 -0.0040
23373W        W39847   7.021  12.696  15.468  0.0282  0.0552  0.0239
23374W        W39848   4.297  18.073   0.093  0.0129 -0.1181 -0.1161
23375W        W39849   4.978   2.065  14.404 -0.1015  0.5579 -0.2071
23376W        W39850   6.916  15.313  15.454 -0.1616 -0.1163  0.0503
23377W        W39851   6.171   3.369  13.413  0.0359 -0.2977  0.0931
23378W        W39852  10.093   2.175   0.928 -0.1125  0.1809 -0.2313
23379W        W39853   5.766  16.756   4.059  0.0038  0.1072  0.0990
23380W        W39854  14.223  17.102   0.170 -0.1462  0.2531  0.2972
23381W        W39855   9.877   6.909   0.807  0.3669 -0.0091  0.2242
23382W        W39856  12.106   1.599   5.201 -0.3892  0.1441 -0.0760
23383W        W39857   6.414  15.261   5.474 -0.0721  0.2265 -0.1632
23384W        W39858   8.762   3.002   0.794  0.1792  0.1998  0.1086
23385W        W39859  16.497  17.843  10.513  0.0324  0.2144 -0.2027
23386W        W39860  15.696   6.857   4.263 -0.1633 -0.1910  0.2565
23387W        W39861  17.903   7.976   2.948 -0.1187 -0.1417  0.0215
23388W        W39862   3.229   1.229  13.529 -0.1243  0.2394  0.0893
23389W        W39863  11.090   4.327  15.210  0.1315 -0.1182  0.1767
23390W        W39864  14.651  12.420   1.029  0.2540 -0.0153 -0.1101
23391W        W39865  17.164   6.556  15.251  0.0164  0.2195 -0.1724
23392W        W39866   3.320   2.945   2.095 -0.0816  0.2194 -0.0965
23393W        W39867   5.931  10.645   5.104 -0.1253  0.0178  0.0093
23394W        W39868  18.705  16.366   0.286 -0.1179  0.0799  0.0412
23395W        W39869  13.759   7.697   9.935  0.1521 -0.1243 -0.3256
23396W        W39870  17.340  15.231   1.667 -0.1693 -0.1954  0.0031
23397W        W39871   6.990   4.127   2.446 -0.0476  0.1653  0.0059
23398W        W39872  17.735  17.785   1.263 -0.0291 -0.0643  0.4227
23399W        W39873  12.349   8.582   0.644 -0.0083  0.1828  0.0127
23400W        W39874  15.152  15.279  13.019  0.0201  0.1280 -0.0880
23401W        W39875  16.011   7.956   4.994 -0.2602  0.1222 -0.2444
23402W        W39876   6.745   7.798   2.931  0.3477 -0.2123  0.0762
23403W        W39877  15.868  15.647   0.360 -0.1732  0.1292  0.0051
23404W        W39878   6.826  11.879   1.786  0.2050  0.3717  0.1344
23405W        W39879   4.003   9.999  14.555  0.0138  0.0044  0.0972
23406W        W39880   8.727   5.473  10.980  0.3962  0.3363 -0.2178
23407W        W39881  17.841  18.549   3.637  0.0107  0.0699 -0.1001
23408W        W39882   0.932   2.945  12.336  0.1216  0.0209 -0.1985
23409W        W39883   5.644   3.083   1.609  0.0168  0.1522 -0.3838
23410W        W39884   5.768  15.404  11.207  0.0621 -0.2198 -0.0365
23411W        W39885   5.185   9.152   0.135  0.1140  0.1377 -0.3313
23412W        W39886   5.432   8.892   2.203  0.2340 -0.0188 -0.0216
23413W        W39887   1.900   5.296   2.286  0.0995  0.0239 -0.1319
23414W        W39888  15.105  10.945  15.326  0.0954 -0.0678  0.1274
23415W        W39889   7.529  15.601  13.683  0.0490  0.0682  0.1955
23416W        W39890   6.329  11.800   4.139 -0.0203 -0.2194 -0.0622
23417W        W39891   8.918  12.049  12.141  0.1062  0.2610  0.1623
23418W        W39892   9.951   4.626  12.858 -0.1475 -0.0123 -0.0523
23419W        W39893   2.296  14.458   4.647 -0.0302  0.2865 -0.1230
23420W        W39894   4.796   3.695   0.600 -0.2065 -0.0621 -0.2849
23421W        W39895  15.192   6.558   5.671  0.1941 -0.0442 -0.0760
23422W        W39896   2.525   1.646  14.018 -0.0805 -0.2003  0.3738
23423W        W39897  17.418  17.694   3.891 -0.5985  0.1340 -0.1064
23424W        W39898  10.210  11.352   0.606  0.0620 -0.0248  0.0398
23425W        W39899   3.977  11.710  13.625 -0.1026 -0.0103 -0.2486
23426W        W39900   4.840   4.688   4.587  0.2340 -0.0331  0.1149
23427W        W39901  15.629   5.942  11.232 -0.1678  0.1251 -0.1136
23428W        W39902   8.449   7.124  11.978  0.2251 -0.2641  0.1982
23429W        W39903  13.238   6.142  11.343  0.0981  0.3185  0.0008
23430W        W39904   1.166   0.628   3.427  0.1460 -0.0264  0.0990
23431W        W39905   6.790  12.037   0.983  0.0222  0.0557  0.1321
23432W        W39906   2.919   9.211   1.549 -0.1515 -0.0553 -0.1331
23433W        W39907   5.249   8.269   3.317 -0.1034 -0.2253 -0.1130
23434W        W39908   3.769  16.829  13.058  0.1682  0.3528 -0.0326
23435W        W39909   7.687   6.634  14.253  0.0063  0.1437  0.0259
23436W        W39910  18.422   1.726  14.957  0.1597 -0.1152  0.2710
23437W        W39911   9.537  17.161  11.276 -0.2247  0.3075 -0.1475
23438W        W39912   3.392   1.926  15.505  0.0742 -0.2517  0.0845
23439W        W39913  13.533   1.556   3.317 -0.1919  0.0572  0.1029
23440W        W39914   7.429  11.634   3.281 -0.2540 -0.4264  0.2086
23441W        W39915   7.550  14.737  11.251  0.1671  0.0674 -0.2180
23442W        W39916   3.598  10.549  13.087  0.3294 -0.2064 -0.0027
23443W        W39917   4.370   5.661   2.544 -0.2204  0.2772  0.1748
23444W        W39918   6.368  16.186   4.408  0.0136 -0.0367  0.0033
23445W        W39919   8.994  16.095  11.711  0.1324  0.2326  0.2670
23446W        W39920   0.331  15.952   1.586  0.1898 -0.1785  0.1261
23447W        W39921   8.874  13.535  11.987  0.0462  0.0447  0.1696
23448W        W39922   5.323  18.072   1.138 -0.0365 -0.1657 -0.1609
23449W        W39923  12.417   6.871  12.892  0.1725 -0.0969 -0.1518
23450W        W39924   7.965   7.037  14.358  0.2367 -0.0039  0.2127
23451W        W39925  12.019   8.194  12.709 -0.0232 -0.0256  0.0714
23452W        W39926  14.931  15.777   4.333 -0.3411  0.1173 -0.2070
23453W        W39927  11.890  13.536   2.202  0.0711  0.1341 -0.2972
23454W        W39928  14.814  11.449   0.569 -0.2891  0.0133  0.1632
23455W        W39929   9.788  16.838   4.111 -0.0929  0.0001 -0.1599
23456W        W39930   0.404   1.695  12.757 -0.1667 -0.1316 -0.2337
23457W        W39931  14.011  11.545   1.585 -0.0679  0.0549 -0.1357
23458W        W39932  15.953   6.477  15.209 -0.1245 -0.2884 -0.1493
23459W        W39933   5.268   2.015   4.773  0.0431  0.1167  0.0596
23460W        W39934   8.840   6.728   0.596  0.3194 -0.1968 -0.0475
23461W        W39935  15.267   8.993  14.639 -0.0670  0.2168 -0.0310
23462W        W39936   4.427  16.912  13.338  0.2138  0.2271  0.0734
23463W        W39937  18.319   6.491   5.329 -0.3303 -0.0129  0.0697
23464W        W39938   8.611   9.625  12.825 -0.3616 -0.2271 -0.2193
23465W        W39939   1.359  10.856  13.341 -0.0112 -0.0757  0.3709
23466W        W39940   2.509   0.229   4.215 -0.2238  0.0836 -0.1184
23467W        W39941   2.167   5.386   0.292 -0.0545 -0.1877 -0.2382
23468W        W39942   6.721   1.896   3.410  0.1198 -0.0455 -0.0488
23469W        W39943  12.097   0.950  14.321  0.0143 -0.1978 -0.2490
23470W        W39944   1.499  18.773  15.430  0.0205 -0.1901 -0.1237
23471W        W39945   8.483  11.184   3.669 -0.2514  0.0265 -0.0990
23472W        W39946  11.955   7.261   2.215 -0.0613 -0.1074 -0.2237
23473W        W39947   8.644  15.978   1.488  0.2223 -0.0388  0.2048
23474W        W39948  13.171   3.772   0.999  0.2714 -0.3192  0.0855
23475W        W39949   1.989   9.045   2.258 -0.1792  0.1850 -0.0161
23476W        W39950  15.475  17.984  14.156  0.2335 -0.2000  0.1937
23477W        W39951   7.908   9.862   5.106 -0.2928  0.0536 -0.1850
23478W        W39952  17.078  16.988  14.289 -0.1702 -0.0310  0.1002
23479W        W39953   6.302   0.091  11.552 -0.1328  0.1419 -0.0224
23480W        W39954   5.652   6.071   3.283 -0.1879 -0.2916  0.0350
23481W        W39955  13.953   3.551  15.101  0.1189  0.2154  0.2740
23482W        W39956   2.040  16.994  14.170 -0.0704  0.0298 -0.3884
23483W        W39957   2.910  11.100   0.409  0.1382 -0.0420 -0.0072
23484W        W39958  15.039   6.294  14.337 -0.0410 -0.0186  0.0802
23485W        W39959   5.981   8.197  15.433  0.0653  0.0041  0.0534
23486W        W39960   7.470  11.138  13.475 -0.3939 -0.0109 -0.0448
23487W        W39961  10.395  15.339   2.719  0.0677 -0.0506  0.0343
23488W        W39962   4.621   1.639  10.810 -0.0110 -0.1198 -0.0683
23489W        W39963  14.422  18.429   3.837  0.2576 -0.0516  0.1376
23490W        W39964  17.736  12.993  12.690  0.3453 -0.2483  0.3341
23491W        W39965  13.792   7.619  13.693  0.2405  0.3791  0.0208
23492W        W39966   9.571   8.882  11.631 -0.1613  0.0559  0.2028
23493W        W39967  10.783   5.677   0.949 -0.1157  0.2834  0.4570
23494W        W39968  18.011  17.454  13.848 -0.0596  0.0063  0.1690
23495W        W39969   7.602  12.470   3.204 -0.2204  0.2491 -0.2013
23496W        W39970   9.499   5.740  14.185  0.0950 -0.1940  0.0372
23497W        W39971   9.175   1.517   9.994  0.0869  0.0991  0.0180
23498W        W39972  18.356   9.517  11.192  0.1434 -0.3045  0.0533
23499W        W39973   9.702   3.236  11.805  0.0697  0.1936  0.1168
23500W        W39974   6.701  12.713   4.796  0.1119  0.3432  0.0169
23501W        W39975  10.357  10.959  11.385  0.0448 -0.2344 -0.1104
23502W        W39976  14.741   3.116  12.175 -0.1593  0.1766  0.0523
23503W        W39977   6.479  12.892   5.180  0.0423  0.0968  0.0819
23504W        W39978   7.816  13.929   2.214 -0.0013 -0.2057 -0.4161
23505W        W39979   4.922  14.757  13.375 -0.0674 -0.0303 -0.2565
23506W        W39980   0.749   9.509   3.151 -0.0438 -0.0244  0.1436
23507W        W39981  11.572   2.583   3.343  0.0900 -0.2242 -0.1074
23508W        W39982  12.610   8.486   1.051 -0.1359 -0.0123  0.1552
23509W        W39983   9.791   9.152   5.540  0.1657 -0.1918  0.0553
23510W        W39984   3.840  13.149  13.025 -0.0012  0.0969 -0.0746
23511W        W39985  15.394  18.379   0.939  0.0688 -0.0087 -0.3056
23512W        W39986   0.304   2.319  14.110 -0.1470  0.1028  0.0592
23513W        W39987   9.422   5.535  13.397  0.0966  0.2178  0.0989
23514W        W39988  10.287  17.231   3.380 -0.1486  0.2445 -0.0199
23515W        W39989  13.585   0.432   5.383 -0.1483  0.0561 -0.0485
23516W        W39990   9.404   0.053  15.148 -0.0750  0.2826  0.1533
23517W        W39991   4.109   3.200   0.376  0.2167 -0.1352 -0.1021
23518W        W39992   9.491   6.401  15.067 -0.0577 -0.1360 -0.1410
23519W        W39993   4.152   7.093   1.192  0.3079 -0.0451  0.1542
23520W        W39994   7.271  12.100  13.706 -0.2325  0.0302  0.2021
23521W        W39995  18.180  17.133   0.054 -0.0720  0.0129  0.1763
23522W        W39996  15.646  10.888  11.992  0.1283 -0.0773 -0.2974
23523W        W39997   7.217  14.489  15.077  0.0094  0.0804 -0.2137
23524W        W39998  11.472   6.622  12.991 -0.1412  0.1633  0.0348
23525W        W39999  16.523  10.841  10.934 -0.0398 -0.0816 -0.1389
23526W        W40000   4.494   1.293   2.181 -0.0937  0.1451  0.0329
23527W        W40001  13.750   1.214  14.565 -0.1164 -0.1971 -0.0325
23528W        W40002  16.063   9.245  14.710 -0.4355  0.3891  0.0067
23529W        W40003   7.841  16.748  13.932  0.0243  0.0055 -0.0276
23530W        W40004   7.541  12.987  13.657 -0.3654 -0.0024 -0.3777
23531W        W40005   1.160   1.281  13.414 -0.1329  0.2788 -0.2406
23532W        W40006  16.907   7.113   2.365 -0.2118  0.1022  0.2443
23533W        W40007   3.886  11.414  11.116 -0.1357 -0.0140  0.3287
23534W        W40008  15.571   9.271  14.925  0.1156  0.1919  0.0418
23535W        W40009  13.416  12.609   5.635 -0.1085  0.1473 -0.0166
23536W        W40010   7.960   2.277   4.444  0.0210  0.0289  0.0042
23537W        W40011  15.171  15.298   3.666  0.4702 -0.0843 -0.0127
23538W        W40012   9.960  15.560  13.668 -0.1278 -0.0883  0.3795
23539W        W40013   6.694  13.431   3.614 -0.0661 -0.3799  0.0469
23540W        W40014   5.235   0.777   1.489 -0.1299  0.1852 -0.2224
23541W        W40015   7.226  18.201  14.832 -0.2132  0.1731 -0.0340
23542W        W40016   7.707   7.078  10.487 -0.1287 -0.1159 -0.2385
23543W        W40017   2.976  12.274  10.201 -0.0641 -0.1877 -0.0622
23544W        W40018  18.356   6.826  13.269 -0.1531 -0.0683 -0.1824
23545W        W40019   9.973  12.989  13.851 -0.1868  0.0745  0.0389
23546W        W40020  14.754   7.161   1.218  0.1883 -0.0711  0.2377
23547W        W40021  18.387   3.460   2.282 -0.0705  0.0031 -0.1593
23548W        W40022   6.118  16.348   3.925  0.0790 -0.0368  0.0315
23549W        W40023  13.017  10.244  14.080 -0.4309 -0.0240  0.0291
23550W        W40024   4.293  16.489  11.919 -0.0160 -0.0870 -0.2383
23551W        W40025   6.895   6.670   3.468  0.1169 -0.2219 -0.0493
23552W        W40026  13.326  14.773   0.597 -0.2694  0.0566  0.1254
23553W        W40027   1.573   5.546   3.027 -0.2691 -0.1217 -0.2435
23554W        W40028   2.126   8.597   5.297 -0.2830 -0.0941  0.1028
23555W        W40029   1.269   6.839   2.737 -0.1085 -0.0562  0.1695
23556W        W40030   9.223   7.974  14.997 -0.3988 -0.3317  0.3621
23557W        W40031   2.919  18.075   3.895  0.0582 -0.1650  0.3901
23558W        W40032  16.858  16.994   2.972 -0.3497  0.1509 -0.4676
23559W        W40033   0.781  12.304   3.867  0.2484 -0.4155  0.0542
23560W        W40034   5.456   1.254  14.461 -0.0832  0.5947  0.0983
23561W        W40035   5.799  13.495  14.471  0.1582 -0.1643 -0.0861
23562W        W40036  10.228   6.138  12.424  0.0409 -0.1625 -0.2113
23563W        W40037   1.115  16.361  12.664  0.1550  0.2476 -0.0160
23564W        W40038  17.320  13.743  12.333  0.2007 -0.1136  0.3915
23565W        W40039   3.639  16.435   0.344 -0.0439  0.0405 -0.1057
23566W        W40040   6.557   5.776  14.798  0.1130 -0.3527 -0.2146
23567W        W40041   1.364  14.969   2.567  0.0126 -0.0702  0.0204
23568W        W40042  12.645  13.279   4.381  0.0343  0.3011  0.1238
23569W        W40043  11.692  15.859   1.143 -0.0627  0.0728  0.4873
23570W        W40044  15.828   7.656  12.085  0.1185  0.1834  0.0678
23571W        W40045  13.472  11.631   0.631 -0.2084  0.3722  0.1649
23572W        W40046   7.734   8.413   2.036  0.1742  0.1877 -0.4206
23573W        W40047   9.798   4.063   2.156 -0.2926  0.1483 -0.0140
23574W        W40048   1.025  16.183   1.035 -0.0174  0.2096 -0.0405
23575W        W40049   5.412   5.090  12.471 -0.2115  0.0678  0.2154
23576W        W40050  18.585  18.691  14.886 -0.1095  0.0911  0.0856
23577W        W40051  13.489  13.760  14.521  0.0386 -0.2894 -0.0738
23578W        W40052  15.754   9.237  13.203 -0.5007  0.1468  0.1190
23579W        W40053  18.294  12.975   1.088 -0.0157  0.2455  0.0837
23580W        W40054   2.603   6.249  12.130 -0.1088  0.0303 -0.1082
23581W        W40055  13.531   4.165   1.122  0.0741  0.0938 -0.1923
23582W        W40056   8.207   4.299  11.445 -0.1279 -0.1506  0.1157
23583W        W40057  18.082  15.632  11.818  0.0681 -0.0267 -0.1355
23584W        W40058  12.978   0.141   1.862 -0.1266  0.0492 -0.0579
23585W        W40059   3.574   3.929  13.771 -0.0646 -0.1138 -0.0360
23586W        W40060   0.581   4.796  13.324  0.1518  0.1598 -0.1578
23587W        W40061  13.730  12.227  13.729  0.0475  0.0488 -0.1279
23588W        W40062  13.326   7.292  15.463  0.0232  0.3321  0.1441
23589W        W40063  10.282   1.688  13.275  0.0165  0.1361  0.1635
23590W        W40064  10.562   6.617  13.042 -0.1734 -0.2568 -0.1698
23591W        W40065  17.070  16.627  12.480 -0.1885 -0.1064 -0.0435
23592W        W40066   8.527   7.719  11.729 -0.1915  0.0866 -0.1978
23593W        W40067  16.725   9.938   1.831 -0.1481  0.4431  0.5667
23594W        W40068  15.184  14.169  11.735 -0.0411 -0.1371 -0.1481
23595W        W40069   9.809   7.667   1.120 -0.0335 -0.1741  0.1819
23596W        W40070  11.263   5.130   2.896  0.0660 -0.0555 -0.0214
23597W        W40071   7.425   5.596  15.455  0.0702 -0.2513 -0.0093
23598W        W40072   8.436   0.919   0.677  0.1985 -0.1057 -0.0261
23599W        W40073   5.790   4.700   0.422  0.0830 -0.0806  0.0593
23600W        W40074   1.667   6.326   0.052 -0.1017 -0.3417 -0.1608
23601W        W40075  16.611  11.066  12.111 -0.3751 -0.0664 -0.0441
23602W        W40076   4.282   0.319  12.236  0.2738  0.2111  0.0143
23603W        W40077  14.415   6.130  11.404 -0.0656 -0.0111  0.0833
23604W        W40078   0.724   1.039  13.295 -0.1254  0.1081 -0.1304
23605W        W40079   9.444  15.807  11.874  0.1124  0.0334 -0.0846
23606W        W40080  16.001  17.659  12.298 -0.1055 -0.1580 -0.2091
23607W        W40081   8.531  10.990   1.495 -0.1654 -0.2348  0.2239
23608W        W40082  17.438  15.940   3.555  0.1238  0.0501 -0.1513
23609W        W40083   7.612  11.274   2.729  0.1951 -0.0675  0.1296
23610W        W40084  11.635   7.249  14.224 -0.1012  0.1851 -0.0182
23611W        W40085  18.518  17.519  13.977 -0.3281  0.0003  0.0023
23612W        W40086   0.224  15.986   0.337 -0.2765 -0.0927  0.0490
23613W        W40087   0.187  11.504  13.421 -0.0090  0.1908 -0.1268
23614W        W40088   2.338  16.702   3.004 -0.2130 -0.0514 -0.2029
23615W        W40089  12.410  17.019  15.109 -0.1832 -0.1088 -0.1899
23616W        W40090  13.950   4.246   2.013 -0.2035  0.1959 -0.2128
23617W        W40091   4.360  11.643   2.750  0.0827  0.1176 -0.4069
23618W        W40092   8.753   2.862   0.242  0.2321  0.2842 -0.0786
23619W        W40093   6.251   4.496   0.425  0.0483  0.2755  0.2205
23620W        W40094  10.889   2.126  12.680 -0.1923  0.0604  0.4183
23621W        W40095   7.820   2.942   5.300  0.1367 -0.0899 -0.0968
23622W        W40096  11.357   7.984   4.342 -0.1132 -0.4676 -0.2024
23623W        W40097   9.554  17.910   0.366 -0.0128  0.1659  0.0303
23624W        W40098  15.339  15.444   2.836  0.1338  0.0278 -0.2194
23625W        W40099   0.953  11.102   3.953  0.1676 -0.0014  0.2466
23626W        W40100  12.943  17.119  14.932 -0.2274 -0.0269 -0.1469
23627W        W40101   7.699   5.149   4.410 -0.3235 -0.1586  0.0764
23628W        W40102   8.734  11.075  13.604  0.1614 -0.0265  0.1089
23629W        W40103  18.704  15.227  15.566 -0.2176 -0.1076 -0.0300
23630W        W40104   4.058   1.191  11.425 -0.0053 -0.1007 -0.2676
23631W        W40105   4.333  17.387   4.313 -0.0079 -0.0385 -0.0201
23632W        W40106   3.994   4.985  12.086  0.1149  0.0607 -0.0906
23633W        W40107   7.269  17.161   5.006 -0.0645 -0.0216  0.0016
23634W        W40108  18.660  18.427   0.577  0.0224 -0.2778  0.1040
23635W        W40109  15.652  13.822  13.990  0.0551  0.2132 -0.1564
23636W        W40110  18.268  14.223  15.460  0.2170  0.1332 -0.1319
23637W        W40111   1.969  13.781   3.529  0.0979 -0.1346 -0.0354
23638W        W40112   4.136   2.578   2.539 -0.0769 -0.0393  0.3206
23639W        W40113   0.629   9.455   0.721  0.1940 -0.1492  0.0988
23640W        W40114  14.105  10.811  11.365 -0.1366  0.3410  0.2344
23641W        W40115  10.759   3.462  15.111  0.2257  0.0252  0.0151
23642W        W40116  10.211  18.633   3.815  0.0552 -0.2059  0.3765
23643W        W40117  12.189   4.567   3.948 -0.2741 -0.1169 -0.1850
23644W        W40118  10.199  14.762  14.757  0.1314 -0.2028  0.3147
23645W        W40119  15.777   5.491   0.130  0.2649 -0.2474 -0.3379
23646W        W40120  16.397  17.285   2.885 -0.0940  0.1859  0.1624
23647W        W40121  14.595   4.341  11.432  0.2647 -0.0053 -0.1058
23648W        W40122   0.242  15.452  12.070  0.2377  0.2138 -0.0021
23649W        W40123   5.791  17.938   1.643  0.2015  0.0888  0.2211
23650W        W40124   5.685   2.603   1.185  0.0734 -0.0027  0.4448
23651W        W40125  17.726  10.506   3.359  0.0706 -0.1720  0.2665
23652W        W40126   3.004   8.667   0.742 -0.0303 -0.0175  0.4527
23653W        W40127   1.024   0.689   0.338 -0.1806  0.0811 -0.1520
23654W        W40128  12.639  16.851   0.486  0.3658 -0.2354 -0.0828
23655W        W40129   9.084  15.756  15.243  0.1321  0.1657 -0.1367
23656W        W40130   0.206  12.325  15.215  0.0748 -0.1133  0.1397
23657W        W40131   1.697   8.789   1.398  0.0721  0.0333 -0.1117
23658W        W40132   5.484  15.412  13.416  0.2775 -0.1126  0.2241
23659W        W40133  11.423   9.100  14.374  0.0532 -0.1641  0.1685
23660W        W40134   0.888   8.448  15.334  0.2371 -0.1604  0.2072
23661W        W40135   7.387   0.615  10.828  0.0663 -0.1885 -0.2144
23662W        W40136  14.483  15.654  12.109 -0.0426 -0.0859 -0.0999
23663W        W40137   9.387   8.458  14.857  0.0934  0.1689 -0.1402
23664W        W40138   5.341  12.752  13.951  0.0662  0.1111 -0.0039
23665W        W40139   9.587   4.359   4.905  0.1515  0.0770  0.2220
23666W        W40140   4.402  12.886   0.504 -0.1595 -0.0240  0.0620
23667W        W40141   4.788   3.485  13.704 -0.0890  0.0944  0.0307
23668W        W40142  14.652   5.259  11.186  0.2357  0.0794  0.3107
23669W        W40143   3.801   3.723   3.308  0.0567  0.1475  0.1218
23670W        W40144  10.653   0.902  12.237 -0.0674  0.1492  0.0033
23671W        W40145  14.910  11.110   0.186  0.0570 -0.0639 -0.1335
23672W        W40146   9.043  17.428  11.230  0.1020  0.0021 -0.4218
23673W        W40147  18.416   8.207  15.394 -0.0872  0.1539  0.1599
23674W        W40148   2.635   2.446  10.321 -0.3936  0.3219  0.2712
23675W        W40149   5.721   1.371   1.865  0.0292 -0.1468 -0.0336
23676W        W40150   6.556  10.948  12.517  0.2165 -0.0987  0.3449
23677W        W40151  10.446  15.113   0.297  0.0427 -0.1019  0.0600
23678W        W40152  16.682   1.965   3.920  0.2624 -0.0160  0.2019
23679W        W40153   0.905   1.383   3.664  0.2297  0.4223 -0.1023
23680W        W40154   2.146   9.861  14.944 -0.2074  0.2273  0.0655
23681W        W40155   9.809  16.104  14.320  0.1136  0.0708  0.0143
23682W        W40156   1.390  16.762  13.326  0.0338  0.0534 -0.1318
23683W        W40157   2.445  11.432  11.602 -0.0568  0.1067 -0.2871
23684W        W40158  17.618  18.750   2.383 -0.0192  0.0174 -0.0057
23685W        W40159  12.969  16.752  13.869  0.2409  0.1591 -0.2047
23686W        W40160   7.308  16.093  15.036  0.1455 -0.0319  0.1961
23687W        W40161   1.769  12.534  11.169  0.3052  0.2240  0.0565
23688W        W40162  15.544   0.502   4.159 -0.0156 -0.1928  0.1710
23689W        W40163   0.545   6.837  15.115  0.4109  0.1526 -0.0437
23690W        W40164  18.513   2.810  14.177 -0.1796 -0.2233 -0.1018
23691W        W40165  11.085   2.933   5.837  0.1013  0.0483 -0.0695
23692W        W40166   0.905  15.140  10.452  0.0575  0.3044 -0.2021
23693W        W40167  18.208   2.484   2.175  0.0946 -0.0282  0.1373
23694W        W40168   1.871   8.277   0.728 -0.0684  0.3275 -0.1782
23695W        W40169   9.053   7.813   2.665  0.0521 -0.0922 -0.1039
23696W        W40170   5.854   2.428   2.278 -0.2118  0.0004 -0.2556
23697W        W40171  14.668  14.614  12.015  0.0793 -0.1480 -0.2052
23698W        W40172   9.222  16.698  15.035  0.0379 -0.2247 -0.2018
23699W        W40173  16.060  14.629  13.606 -0.1265 -0.1286 -0.0739
23700W        W40174   4.498   1.818   4.787 -0.0967  0.2150 -0.1032
23701W        W40175   3.899   6.731   0.933 -0.0698 -0.1300 -0.1929
23702W        W40176  12.949  10.795   1.047  0.1331 -0.0372  0.1316
23703W        W40177  16.489   8.636   3.342  0.1105 -0.0604  0.3122
23704W        W40178  18.470   7.826   5.051  0.3197 -0.0522  0.2969
23705W        W40179  14.388   1.164  10.030 -0.2010  0.1829  0.0704
23706W        W40180  18.481   9.090   4.430  0.2322  0.3037  0.0716
23707W        W40181   5.040  14.422   4.857 -0.1066  0.4783  0.0058
23708W        W40182  11.974   8.355   1.671  0.0632  0.1374  0.0843
23709W        W40183  18.665  13.064   4.110  0.0453  0.2118 -0.2064
23710W        W40184   2.421   3.901   2.681 -0.3823  0.0509 -0.0814
23711W        W40185  18.742   7.944   3.027  0.3837 -0.0397  0.4253
23712W        W40186   7.293   7.998  10.780 -0.0775  0.0729 -0.1101
23713W        W40187  17.969  16.252   4.080 -0.1142 -0.1060 -0.3886
23714W        W40188  14.734   7.352   0.746 -0.0047 -0.5380 -0.0256
23715W        W40189   3.139   9.897   4.850  0.0263  0.1933  0.0125
23716W        W40190  16.320   0.442  11.488  0.2156 -0.1750  0.0369
23717W        W40191  13.289   4.180  11.762  0.0335  0.1508  0.0502
23718W        W40192   9.756  17.108   3.174 -0.1099  0.1256  0.2036
23719W        W40193  17.237   9.879   1.647  0.0156 -0.2898 -0.2602
23720W        W40194   4.429  11.561   4.725 -0.1961  0.0384  0.0569
23721W        W40195   5.817   4.579   4.754  0.3494  0.4076 -0.3078
23722W        W40196  18.389  12.738   1.944  0.1889 -0.0399  0.1407
23723W        W40197  14.528  14.522   3.545  0.2392  0.0504 -0.0851
23724W        W40198  10.622   8.607  15.525 -0.5072  0.2891 -0.0646
23725W        W40199   2.797  12.705   1.169  0.0546  0.4580  0.2001
23726W        W40200   8.166  10.029  15.027  0.4886  0.1307  0.0064
23727W        W40201  13.470  13.348   0.150  0.1023 -0.1119 -0.1349
23728W        W40202  13.188   4.937   4.163 -0.1171 -0.0491  0.1654
23729W        W40203  14.393  13.133   3.557 -0.0520  0.0257 -0.0167
23730W        W40204  14.041   3.291  15.481  0.0000  0.3530 -0.0817
23731W        W40205  12.491   3.605  11.282 -0.0249 -0.0132 -0.1798
23732W        W40206  14.753  14.793   5.807 -0.0279  0.2084 -0.1114
23733W        W40207  11.689  13.535  13.860 -0.0255 -0.0108  0.0774
23734W        W40208   0.114   3.630  13.942  0.3029 -0.4251 -0.0180
23735W        W40209  14.196   8.885  14.623  0.1785  0.1899 -0.0065
23736W        W40210   0.904  12.171  12.018 -0.1837  0.1626 -0.1580
23737W        W40211   1.470   1.932   3.542 -0.1245  0.2798  0.0078
23738W        W40212  11.610   9.876   4.744 -0.4451 -0.1220  0.1969
23739W        W40213  18.385  16.124  11.913 -0.2260  0.1419 -0.1553
23740W        W40214   7.254  11.552   3.748  0.0368 -0.1856  0.0008
23741W        W40215  10.906   0.370  10.907  0.1387  0.1706  0.1920
23742W        W40216  10.699  10.158  14.966 -0.1461 -0.2714 -0.1136
23743W        W40217   9.536   4.474  14.054  0.1834 -0.2625  0.1019
23744W        W40218  13.279   5.582  14.064 -0.0487  0.0129 -0.0219
23745W        W40219   2.685   2.713  11.190  0.0094 -0.0169  0.0260
23746W        W40220  18.272   3.161   0.062  0.2375  0.1740  0.1244
23747W        W40221  18.552  10.333   5.264 -0.2116  0.3921  0.0387
23748W        W40222   2.839  16.003   3.190  0.3073 -0.0253 -0.2371
23749W        W40223  12.228  10.937   0.557 -0.1651 -0.0845 -0.1918
23750W        W40224   9.494   9.699   3.097  0.2479  0.0544  0.1837
23751W        W40225  11.062  12.738  14.732 -0.1874  0.0766  0.2353
23752W        W40226  14.027   6.884   0.557 -0.0547  0.1511  0.4105
23753W        W40227  12.157  11.344  14.803  0.0243  0.1086 -0.2576
23754W        W40228   2.000   1.638   2.851  0.0731  0.1415  0.1365
23755W        W40229   3.460   4.084  12.189  0.0408 -0.2929 -0.2346
23756W        W40230   2.305  17.174  11.412  0.0035 -0.0856  0.1697
23757W        W40231   4.402  14.476  11.915 -0.0659  0.2424  0.1267
23758W        W40232   6.309  10.215  12.845  0.1307 -0.0084 -0.4135
23759W        W40233   5.092  14.667  15.167  0.1240  0.1122  0.3682
23760W        W40234   4.052   7.678  14.472 -0.0347  0.0466 -0.0543
23761W        W40235   5.285  16.846  12.624 -0.4379  0.4747  0.1026
23762W        W40236   8.277   2.262   1.028  0.1306 -0.2288 -0.2674
23763W        W40237   4.365  16.526   9.365  0.3874  0.0989 -0.1272
23764W        W40238   2.448  12.580   2.163  0.1110 -0.0587  0.2532
23765W        W40239   3.879  17.778  14.685 -0.3883  0.1544  0.1417
23766W        W40240   2.434  14.392  11.493  0.1949  0.0093  0.0099
23767W        W40241  11.414   5.334  14.548  0.2023  0.0311 -0.0215
23768W        W40242  11.458   1.496  12.069  0.0348 -0.0166  0.1025
23769W        W40243  13.283  17.902   2.589  0.0778  0.3155 -0.1487
23770W        W40244   7.123  10.595   4.796 -0.2512  0.0037  0.1414
23771W        W40245  12.527  18.257   3.471 -0.0678 -0.0944 -0.0826
23772W        W40246  11.066   7.611  15.049 -0.2544  0.0515 -0.0223
23773W        W40247   6.538   1.469  11.537  0.3515  0.0629 -0.1602
23774W        W40248  18.014   3.258   1.881 -0.1772 -0.1569  0.0287
23775W        W40249   4.405  11.285  12.515 -0.4623 -0.0608  0.2847
23776W        W40250  18.697  11.031   1.063 -0.2853  0.0675  0.0329
23777W        W40251   8.700  10.220   4.008 -0.0601 -0.1668 -0.0582
23778W        W40252   9.979  17.306  14.798 -0.0141 -0.1760 -0.1954
23779W        W40253   6.835  10.927   0.335 -0.0532  0.0420  0.1497
23780W        W40254  18.361  14.250   0.386  0.0883 -0.0493  0.3505
23781W        W40255   7.980   5.635  10.091  0.1422  0.2424 -0.1217
23782W        W40256  15.951  12.810   2.386  0.1084 -0.1705  0.0979
23783W        W40257  14.575   5.200   2.035 -0.0697  0.2357  0.0059
23784W        W40258   1.001  14.497   1.908 -0.0422 -0.0905  0.1196
23785W        W40259   9.886   0.175  15.410 -0.4438  0.2079  0.0918
23786W        W40260  16.760   4.767  13.793  0.3431  0.0713  0.0172
23787W        W40261   6.491   6.559  10.789 -0.0602  0.3215 -0.2106
23788W        W40262   0.879   9.901   0.860 -0.1282  0.2995 -0.0825
23789W        W40263   3.783   0.185  12.352  0.1679 -0.1542  0.1696
23790W        W40264  10.340  16.660  10.214  0.0001 -0.0352  0.1424
23791W        W40265   2.503   7.830   0.432 -0.3177  0.0756 -0.0631
23792W        W40266  17.838   4.836  10.480  0.0403 -0.0418 -0.0664
23793W        W40267  17.754   1.130   3.041 -0.1113  0.3802 -0.2695
23794W        W40268   9.656   6.100  12.249 -0.2426 -0.0278  0.1178
23795W        W40269  12.396   6.555   2.740 -0.1881  0.0193 -0.0103
23796W        W40270  16.506   3.691   2.575 -0.0592 -0.0656 -0.0456
23797W        W40271  14.613  17.666   2.906  0.1260 -0.3667  0.2102
23798W        W40272  14.927  12.543   3.540  0.0026 -0.1346  0.0528
23799W        W40273  18.679   6.013   3.429  0.1342 -0.0376 -0.0742
23800W        W40274   5.532  14.217  10.690  0.1120 -0.1316  0.1478
23801W        W40275   9.367   5.751   0.128  0.0689 -0.0834 -0.0425
23802W        W40276   7.501   8.795  13.369  0.0584 -0.1470 -0.0635
23803W        W40277   4.768  17.875   0.684 -0.2172  0.5238  0.1004
23804W        W40278  10.864   1.902   4.346 -0.0786 -0.3313  0.1007
23805W        W40279  12.531  15.809   1.405 -0.0433  0.0609  0.1561
23806W        W40280   8.760   4.004  14.799 -0.0023  0.2077 -0.1525
23807W        W40281  14.634  18.225   4.330 -0.0419  0.0874 -0.1565
23808W        W40282  17.678   9.499   9.594 -0.0994 -0.2025 -0.0411
23809W        W40283   8.781  17.499  14.123 -0.2642 -0.4023 -0.2518
23810W        W40284   4.022   3.455  15.024 -0.0960  0.0668 -0.0574
23811W        W40285  11.477  17.578   2.947  0.1471  0.0913  0.1342
23812W        W40286  16.677  14.689   5.966  0.1162 -0.1494  0.4073
23813W        W40287   3.279  18.683  13.481  0.2809  0.1584  0.3057
23814W        W40288   3.587  13.276   0.148 -0.0082 -0.0918  0.2842
23815W        W40289   2.617   8.183   3.185  0.1432  0.0384 -0.1573
23816W        W40290   4.455  10.091   3.640  0.0691  0.1749  0.1235
23817W        W40291   3.242   6.337   3.285 -0.0417 -0.1189  0.2409
23818W        W40292  15.516   3.339   0.494  0.0045  0.1576  0.0808
23819W        W40293   2.715   0.493  15.285  0.2324  0.0829  0.1026
23820W        W40294  16.128   7.179  13.415 -0.1912 -0.2360 -0.0003
23821W        W40295  15.104  16.712  14.564 -0.3221 -0.0096  0.4008
23822W        W40296   2.577   9.396  12.339 -0.0560  0.1732 -0.0796
23823W        W40297   1.081  13.227  10.982  0.0808  0.0660 -0.3035
23824W        W40298  10.851  12.402   6.187  0.1692 -0.2259 -0.1893
23825W        W40299  18.672   9.222   2.721  0.3096  0.0062  0.0743
23826W        W40300   1.129  14.199   3.902  0.0537  0.0498  0.0336
23827W        W40301   6.068   0.550   2.261  0.3532 -0.0083 -0.1030
23828W        W40302  11.571   8.273  15.264 -0.2043 -0.4390  0.1435
23829W        W40303  16.911   7.167  12.959  0.0365 -0.3251  0.1993
23830W        W40304   8.428   0.173   4.136 -0.0314 -0.0243  0.2203
23831W        W40305   2.320  10.790  13.465  0.0192  0.0207  0.3814
23832W        W40306   4.458  13.976   3.945  0.1409  0.0149  0.2270
23833W        W40307   7.158   9.726   1.308  0.0603  0.0395 -0.2399
23834W        W40308   3.445   1.257   4.111 -0.0115  0.1381  0.3194
23835W        W40309   7.936   0.141  11.506 -0.1046  0.1939  0.0187
23836W        W40310  16.097  12.803   4.675  0.1097  0.0702  0.1515
23837W        W40311  16.383  10.087  13.481  0.1658 -0.3457 -0.0317
23838W        W40312  12.195  15.767  14.515  0.2076  0.0682  0.0666
23839W        W40313  11.690   7.831   3.488  0.0124  0.3181 -0.2624
23840W        W40314   9.709  18.024  12.634 -0.0954  0.1036  0.1344
23841W        W40315   8.741  12.223   4.983  0.0384 -0.0422  0.1327
23842W        W40316   5.144   8.463  13.919 -0.0466 -0.0340 -0.0065
23843W        W40317  11.071  11.772   1.852 -0.4967 -0.1490 -0.1888
23844W        W40318   0.839   9.385  14.104 -0.1740  0.0588 -0.1104
23845W        W40319  12.078   6.319   0.436 -0.0330  0.4487  0.2360
23846W        W40320  12.674  15.099   4.495 -0.0404  0.2115 -0.3736
23847W        W40321  17.757   7.608   0.242 -0.0454 -0.0864 -0.1439
23848W        W40322  17.879   8.639   0.231 -0.2056  0.0181  0.1629
23849W        W40323  12.972  16.275  14.754 -0.0785 -0.1150  0.0090
23850W        W40324  13.036   9.470  13.585  0.0828 -0.0261  0.0199
23851W        W40325   9.322   5.622   3.396  0.1080 -0.0852 -0.0105
23852W        W40326   1.378   4.913  10.961 -0.1314 -0.0668  0.1245
23853W        W40327   1.655  10.752   1.946 -0.1127  0.1846  0.2829
23854W        W40328  17.668   0.573  15.309 -0.0417  0.2484  0.2513
23855W        W40329  14.768   6.153   3.458 -0.1325 -0.0213 -0.0631
23856W        W40330  13.920   4.075  15.158 -0.0457  0.1123  0.2127
23857W        W40331  17.426   9.152  12.914 -0.2198 -0.2807  0.0273
23858W        W40332   8.313   4.030  14.373  0.1962  0.1224 -0.0106
23859W        W40333   8.112  15.784   3.059 -0.1252  0.2326 -0.0135
23860W        W40334   8.807  14.542  14.565 -0.1596 -0.2900 -0.0499
23861W        W40335   9.580  10.434   1.226  0.0873  0.1143 -0.1950
23862W        W40336   0.211  17.883  10.749  0.1801 -0.2852 -0.0751
23863W        W40337  16.510  14.422  13.454 -0.1190 -0.0840 -0.0376
23864W        W40338  17.069   1.014   1.591  0.0400 -0.1179 -0.3617
23865W        W40339   0.958  14.141  11.103 -0.0342  0.1568  0.1163
23866W        W40340  10.113   9.988   4.056  0.0564  0.0753  0.2235
23867W        W40341  17.413  10.239  11.735  0.1058  0.1045 -0.1528
23868W        W40342   3.845  13.600   3.789  0.2088 -0.0067 -0.2049
23869W        W40343   5.756  13.407  13.604  0.0164  0.0900  0.0826
23870W        W40344  12.728  18.727   0.873 -0.0081  0.2214 -0.0908
23871W        W40345   6.650   2.283  15.378 -0.2041  0.1040  0.3987
23872W        W40346   5.411   8.235   3.855  0.0541 -0.1833  0.1452
23873W        W40347  18.785   4.054   0.121  0.1238  0.4174  0.3069
23874W        W40348  12.435   4.574  11.351  0.1889  0.0548 -0.2443
23875W        W40349  14.844  15.935  13.185 -0.0888  0.0554  0.2659
23876W        W40350  10.002  10.434   0.316  0.2699  0.1945  0.0621
23877W        W40351   9.871  18.595  11.984  0.1119  0.0774  0.2846
23878W        W40352   2.248   9.167   4.425  0.0542  0.2779  0.0919
23879W        W40353   4.154   6.457   4.969 -0.0475 -0.0630  0.0074
23880W        W40354  12.066   7.206   0.413 -0.2004  0.0394  0.1716
23881W        W40355   6.238  18.350   4.883 -0.1347 -0.0422  0.0839
23882W        W40356   3.689   5.908  14.609 -0.1528 -0.2506 -0.1047
23883W        W40357   3.430   4.277   2.774  0.0331 -0.2338 -0.2562
23884W        W40358  14.445  12.961   4.145  0.1423  0.0042 -0.0221
23885W        W40359   3.234  10.444  11.026  0.1565  0.1203 -0.0871
23886W        W40360   4.363  17.279  14.193  0.2094 -0.0819  0.0713
23887W        W40361  12.701   5.256  15.368 -0.1101 -0.0234  0.2253
23888W        W40362   6.943  12.947   0.705  0.0739 -0.4773  0.0271
23889W        W40363   9.943   5.840  14.466 -0.1898  0.1697 -0.0510
23890W        W40364  11.569   0.676   1.798  0.0267  0.0512 -0.0162
23891W        W40365  11.749  16.200  12.742  0.0384 -0.1052 -0.2439
23892W        W40366  14.995   6.133  12.082  0.0082  0.0933  0.2828
23893W        W40367  14.503  15.944   2.377 -0.1559 -0.0687 -0.0152
23894W        W40368   9.532  15.233   3.172  0.1086  0.4404  0.0785
23895W        W40369   4.526  11.514   0.053 -0.1734  0.2351 -0.1094
23896W        W40370  13.727   3.139  12.329  0.1641 -0.0840 -0.2115
23897W        W40371   1.267   8.010  11.004 -0.2983  0.0928 -0.0874
23898W        W40372   8.287   6.167  14.206 -0.3072 -0.1945  0.0467
23899W        W40373   7.897  16.381  11.502 -0.0560  0.1284 -0.0123
23900W        W40374   5.131   2.051  11.983 -0.0180  0.1813 -0.0098
23901W        W40375   9.346   7.032   3.157 -0.0727  0.2669 -0.0883
23902W        W40376  12.934  15.789   4.936 -0.1583 -0.1098 -0.0773
23903W        W40377   2.240  18.428  14.883 -0.0529 -0.1614  0.1405
23904W        W40378   3.919   9.525   3.230 -0.2421 -0.0189 -0.0788
23905W        W40379  18.447  11.580  13.188 -0.0427  0.2563 -0.0211
23906W        W40380  14.407   8.899  15.187 -0.1156 -0.3146 -0.2254
23907W        W40381   7.010   7.891   2.413  0.1204  0.0463 -0.0525
23908W        W40382   1.343   4.468  13.648 -0.1853  0.2272 -0.0943
23909W        W40383  12.365   1.077   5.457 -0.2992  0.0867  0.0858
23910W        W40384   6.569   1.587   0.953 -0.0791  0.2315  0.2021
23911W        W40385  10.894   1.962   0.831  0.0641 -0.0709 -0.1307
23912W        W40386  15.370  13.342   3.537  0.0717  0.1227  0.0977
23913W        W40387  10.469   3.241  14.775  0.1449  0.1184 -0.0989
23914W        W40388   7.030  14.220   0.998 -0.2715 -0.1408 -0.1008
23915W        W40389   0.168  13.024   0.130 -0.0646  0.1566 -0.0632
23916W        W40390  17.027  12.934   1.983 -0.0597  0.2571 -0.0470
23917W        W40391   0.980   1.971  13.987 -0.2670  0.0773  0.0786
23918W        W40392  16.441   8.201   4.257  0.1780 -0.1258  0.0647
23919W        W40393  17.314  17.537   2.535 -0.2484  0.0491 -0.1263
23920W        W40394  10.445  12.476   1.529  0.1302  0.0985  0.0229
23921W        W40395   5.589  10.594  10.635 -0.0214  0.2568 -0.1541
23922W        W40396  11.823   9.866   1.700 -0.2368 -0.1268  0.0395
23923W        W40397  12.902  15.344   2.183 -0.1091  0.0843  0.0717
23924W        W40398   5.018  15.204  13.247 -0.0582  0.2459 -0.0849
23925W        W40399   0.559  10.437   5.243 -0.2332  0.1156  0.0567
23926W        W40400   9.402   9.087   2.905  0.2193 -0.0883  0.0056
23927W        W40401   7.349   7.551   1.912  0.0658  0.1393 -0.3542
23928W        W40402  14.417   7.065  11.258  0.1182 -0.3907 -0.1767
23929W        W40403   2.245  10.775   0.181  0.3131 -0.1816 -0.0769
23930W        W40404   5.755  12.487  14.019  0.0673 -0.0443  0.1798
23931W        W40405   6.712  10.853   4.692  0.4071 -0.0032 -0.3557
23932W        W40406  17.001   4.350  11.426  0.1756 -0.6688  0.2622
23933W        W40407  16.669   9.952  13.098 -0.0601 -0.2491  0.0416
23934W        W40408  13.990  16.094  14.465 -0.1175 -0.1201  0.0238
23935W        W40409  18.132   8.119  11.022  0.2112 -0.1508 -0.1098
23936W        W40410   1.530  13.085  14.365 -0.2599 -0.2256 -0.0505
23937W        W40411  11.053  18.724  11.199 -0.2337 -0.2467  0.0495
23938W        W40412  11.921  17.149  13.799 -0.1469  0.0060 -0.0592
23939W        W40413  14.836  10.157   3.920  0.1852 -0.0169 -0.2625
23940W        W40414  12.483   4.160  14.066  0.0402  0.1191 -0.0819
23941W        W40415   0.570  14.487   2.247  0.5427  0.2070  0.1006
23942W        W40416  16.714  13.896  14.086  0.2347  0.0655  0.2057
23943W        W40417   3.845   0.666  12.279  0.1968  0.3956 -0.2553
23944W        W40418  10.971  16.711  13.730 -0.2417 -0.0252 -0.0630
23945W        W40419   4.345  14.135   4.552  0.0509 -0.0481  0.0954
23946W        W40420  16.247  13.263  13.402  0.1497 -0.1253  0.0253
23947W        W40421   3.677   0.795  12.776  0.0006  0.1098 -0.5021
23948W        W40422  10.086   4.610  14.716 -0.0027 -0.0354  0.1128
23949W        W40423  17.701  14.661   3.588 -0.1981 -0.0815  0.2974
23950W        W40424   6.638   2.109   5.483 -0.1793  0.2118 -0.3247
23951W        W40425   9.894   9.234  11.350 -0.0292 -0.0739  0.3619
23952W        W40426  11.207  18.764  12.870 -0.0193  0.2995  0.0208
23953W        W40427   2.645   8.479  13.374  0.5715 -0.1112 -0.1892
23954W        W40428  15.026   9.312   2.154 -0.1407  0.2346 -0.2074
23955W        W40429   7.901  12.564  12.049 -0.0481 -0.3042 -0.0432
23956W        W40430  12.407   9.783  14.039  0.0087  0.1153  0.3645
23957W        W40431  13.992   0.284  13.023 -0.2496  0.2075  0.2027
23958W        W40432   2.577   1.200  14.389 -0.1909 -0.2286  0.1197
23959W        W40433  16.231  10.178  13.029 -0.1683 -0.1092 -0.1921
23960W        W40434  13.356  11.056  14.988 -0.2931 -0.2284  0.0730
23961W        W40435   7.926   0.552   0.542 -0.2134 -0.1830  0.1967
23962W        W40436   4.882  15.345  14.083  0.0938 -0.1435  0.0515
23963W        W40437  16.556  16.236   1.788 -0.0386  0.2363 -0.1118
23964W        W40438   1.363  16.524   3.457 -0.0279 -0.1281 -0.0617
23965W        W40439  10.574  12.927   1.193  0.0550 -0.0121 -0.0125
23966W        W40440  13.559   9.646   1.532 -0.0888  0.1937  0.0136
23967W        W40441  14.977  17.934   4.701  0.1405 -0.4519 -0.3000
23968W        W40442   3.288   0.976  15.004  0.0597  0.0455 -0.0302
23969W        W40443   5.472   9.837  11.846 -0.1569 -0.0145 -0.0936
23970W        W40444  10.446   9.547  12.874 -0.0625  0.3162  0.1584
23971W        W40445  11.730   6.557   1.473  0.3674  0.4906  0.1832
23972W        W40446   1.903  16.305  15.031  0.0833 -0.1234  0.0916
23973W        W40447   0.168   5.368   0.593 -0.2123 -0.1426 -0.3560
23974W        W40448   8.000  16.646  14.739  0.5556  0.2376 -0.2475
23975W        W40449  16.044   5.861  11.548  0.1979  0.0060 -0.3279
23976W        W40450   6.870   4.229  15.181  0.1552 -0.0254  0.0501
23977W        W40451   3.038  11.824  12.479 -0.0015  0.0526 -0.1616
23978W        W40452  14.275  14.438   0.082 -0.0101  0.1932 -0.2372
23979W        W40453   6.297  18.510   0.740 -0.3778 -0.0260 -0.3122
23980W        W40454  10.791  15.485   0.401 -0.1218  0.0005 -0.0322
23981W        W40455   1.594  13.691  11.839 -0.1548 -0.0657 -0.0006
23982W        W40456  13.022  10.737  13.852 -0.1234 -0.3021  0.1269
23983W        W40457   7.296   9.557   0.491 -0.0064  0.2627 -0.5021
23984W        W40458  12.154   1.142  11.353 -0.1387 -0.0700  0.2062
23985W        W40459  11.368  18.007   0.645  0.1824 -0.0170 -0.0563
23986W        W40460   6.834  11.973   3.763 -0.2432  0.2276  0.1248
23987W        W40461  10.089   5.112  12.863  0.0809  0.1918 -0.0561
23988W        W40462   1.016   3.349   3.657  0.3730 -0.0830  0.0362
23989W        W40463  16.036   5.113  14.141  0.4087  0.1293  0.1073
23990W        W40464   4.424   6.230   4.654 -0.1025  0.2473 -0.0364
23991W        W40465  17.928  12.857  13.383 -0.1051 -0.0161 -0.1633
23992W        W40466   6.933   7.636  14.362  0.0537 -0.0215 -0.0402
23993W        W40467   2.077   5.005   1.845  0.0953  0.0621  0.0285
23994W        W40468   0.446   8.503   4.747 -0.3748 -0.0803 -0.4418
23995W        W40469   7.896  12.842   4.468  0.1729 -0.0037  0.1897
23996W        W40470  16.030   1.853  14.701  0.3619  0.2007  0.0520
23997W        W40471  17.080  10.073   4.802 -0.0097 -0.2010  0.1162
23998W        W40472   2.999  14.460   4.147 -0.0621 -0.0386  0.0757
23999W        W40473  11.469   2.648   1.809  0.2099  0.1686  0.0797
24000W        W40474  18.388   5.326  12.663 -0.2034 -0.3091 -0.0481
24001W        W40475   0.469  11.762  14.534  0.2533 -0.1874  0.2160
24002W        W40476   1.090   8.438   0.372 -0.1194  0.0703  0.0527
24003W        W40477   7.976   2.790   0.370  0.1801  0.0524 -0.0845
24004W        W40478  17.856  12.288  14.910 -0.0041  0.1437 -0.1571
24005W        W40479  17.703  16.368  15.247  0.1429 -0.0641  0.1852
24006W        W40480  16.408  12.622   2.470 -0.2332 -0.0757 -0.2590
24007W        W40481  12.656  18.764   2.630 -0.1097  0.2484 -0.0419
24008W        W40482   8.547   1.126  14.048  0.1762 -0.0936  0.1712
24009W        W40483   8.677  11.106  12.875  0.3486 -0.2607 -0.2064
24010W        W40484  11.392   4.722  15.335 -0.2986 -0.0726  0.1352
24011W        W40485   2.112  16.633   3.663  0.1821 -0.1021 -0.0681
24012W        W40486   8.412  15.630  13.130  0.2405 -0.0622 -0.2631
24013W        W40487   9.765   0.256  12.296  0.2601 -0.0094  0.1667
24014W        W40488   6.344   7.846  15.469  0.1644  0.0013  0.3059
24015W        W40489   1.830   4.330  12.946  0.1703  0.3033 -0.0953
24016W        W40490   8.781  10.659  11.762 -0.0185  0.0344  0.2720
24017W        W40491   5.329  10.257  11.496 -0.2048  0.1317  0.0689
24018W        W40492   1.720   4.578  12.505  0.1890  0.2524  0.0415
24019W        W40493   8.227  14.930   3.205 -0.0708  0.2830  0.0525
24020W        W40494   4.778   7.590  11.223 -0.2986 -0.0554 -0.1417
24021W        W40495  17.908  16.123  13.553  0.1009  0.2846  0.2592
24022W        W40496  10.735  11.236   2.605 -0.2513 -0.2266  0.2787
24023W        W40497   5.350  17.807   0.312 -0.0207 -0.1600  0.5146
24024W        W40498  13.791   0.314   2.721 -0.0160  0.0375  0.1964
24025W        W40499  13.462  12.178  12.881  0.1650 -0.1729  0.1464
24026W        W40500   1.954   8.933   0.999 -0.2693  0.1052 -0.2182
24027W        W40501  14.700   6.559   0.264  0.0252  0.0189  0.2788
24028W        W40502  12.896  18.264   2.065 -0.2128 -0.2146  0.1244
24029W        W40503   9.008   7.338   5.306 -0.2137 -0.0574  0.1516
24030W        W40504   6.388   1.925  13.031  0.1821  0.0829 -0.1520
24031W        W40505  13.165   5.975   5.083  0.2837  0.1020 -0.0900
24032W        W40506  16.371   2.099   3.026  0.0906 -0.1059 -0.1742
24033W        W40507  16.863  14.441   4.483  0.1534  0.0038 -0.0533
24034W        W40508   9.842  18.106   3.383  0.0573  0.2474  0.2170
24035W        W40509   2.702   6.749  11.097 -0.1825 -0.0789  0.2553
24036W        W40510  15.676   0.485  15.212 -0.0362 -0.2284  0.1082
24037W        W40511  11.629   3.676  10.210 -0.1046 -0.1917 -0.0880
24038W        W40512  16.713   5.056   0.294  0.0756  0.3009  0.0446
24039W        W40513  12.958   5.381   0.232  0.0307  0.1766 -0.4163
24040W        W40514  14.755  12.730  14.215 -0.1632 -0.0005 -0.1252
24041W        W40515   4.238  16.143  10.364  0.3555  0.0407 -0.0328
24042W        W40516   3.372  15.611   2.635  0.1905 -0.1557 -0.1854
24043W        W40517   1.684   3.248  14.538  0.3243  0.5015  0.1402
24044W        W40518   0.706  17.224  13.915  0.0725  0.1381  0.3249
24045W        W40519  13.564   2.950   4.118 -0.0630  0.1170 -0.0496
24046W        W40520   0.725   3.465  15.154 -0.0125 -0.1348 -0.1065
24047W        W40521   0.717   4.415   1.799  0.0482  0.2798 -0.0277
24048W        W40522   0.480  16.700   3.762  0.0751  0.3163 -0.2433
24049W        W40523   3.906   7.921   0.687  0.2151 -0.0345 -0.3079
24050W        W40524   7.681  15.157   4.059 -0.0753  0.0172 -0.0384
24051W        W40525   3.930  16.863  13.560 -0.1420  0.3051 -0.0497
24052W        W40526  14.862   1.367  15.168  0.1275  0.1033  0.3540
24053W        W40527  16.693   3.597   4.582 -0.2908 -0.0099  0.0662
24054W        W40528  17.760   5.760   1.715  0.0695  0.5100 -0.0548
24055W        W40529   9.447   9.260   1.111 -0.0514 -0.0368  0.0449
24056W        W40530   2.252   7.559   2.888 -0.1239 -0.1692 -0.1581
24057W        W40531   6.038  16.271  11.885 -0.3165 -0.0301  0.0566
24058W        W40532  15.952   7.460  13.929  0.0384 -0.1809  0.1024
24059W        W40533   2.526   5.095   3.787  0.2319  0.4570  0.0170
24060W        W40534   0.215   0.230  13.403  0.2021  0.1763 -0.1559
24061W        W40535   4.959  10.883  13.027 -0.0474  0.0561 -0.3731
24062W        W40536   1.498   1.055   0.638  0.0453  0.0654  0.2775
24063W        W40537   8.163   4.609  14.976  0.0867  0.0988 -0.0743
24064W        W40538  12.574  11.247   2.345  0.0110  0.2676  0.1127
24065W        W40539   5.633   1.259   4.200 -0.0604 -0.1011  0.2273
24066W        W40540   6.874  18.022  12.952  0.3523  0.1133  0.3088
24067W        W40541  11.138  12.266  13.411 -0.1580  0.2340 -0.0481
24068W        W40542   4.929   8.034   4.825  0.1486  0.3250  0.2087
24069W        W40543   6.163   2.284  14.458  0.1781  0.0113  0.2597
24070W        W40544  16.711  16.062   0.105 -0.1242  0.0235  0.0375
24071W        W40545  13.450   7.109   4.179 -0.1319 -0.1726  0.0953
24072W        W40546   7.385  11.517  15.153 -0.1891  0.1162 -0.3931
24073W        W40547   2.136  12.872   3.823 -0.0163  0.0926  0.0931
24074W        W40548   2.964   5.323   2.967  0.1886  0.2028 -0.2804
24075W        W40549   2.553   3.363   1.047 -0.0766 -0.3497 -0.2081
24076W        W40550   6.775  13.715   5.765 -0.0750  0.2569  0.1782
24077W        W40551  13.526   2.463   5.981 -0.1490 -0.0073  0.0254
24078W        W40552  16.814   5.913  12.909 -0.2227  0.2881  0.0513
24079W        W40553  12.286  17.090   1.610  0.1840  0.1944 -0.2776
24080W        W40554  13.792  13.209  15.255  0.1026 -0.1223  0.0438
24081W        W40555  18.478  10.472  10.068 -0.1006  0.0119  0.2770
24082W        W40556   0.992  16.183  11.712 -0.3336  0.0288 -0.0257
24083W        W40557   1.406   1.757  10.481  0.0006 -0.3329 -0.1735
24084W        W40558   0.450  13.047  13.486  0.2306  0.0681  0.2110
24085W        W40559  15.476  10.594   3.089 -0.1675 -0.0303 -0.0920
24086W        W40560  18.076  13.736  14.614 -0.0179  0.0503 -0.1781
24087W        W40561   1.671  16.639   1.618  0.1165  0.0817 -0.0848
24088W        W40562  18.426   8.780   2.517  0.0510 -0.2805 -0.2693
24089W        W40563   8.535  13.940  11.566 -0.0636  0.0538 -0.2117
24090W        W40564   8.327   1.077   2.809  0.0991  0.0722  0.0345
24091W        W40565  15.810  12.174   0.777  0.0507  0.1206  0.0806
24092W        W40566  14.162   1.732   5.311 -0.0605  0.3570  0.0513
24093W        W40567  15.540  13.003  11.224 -0.2611  0.1013 -0.2795
24094W        W40568  15.440  17.751   4.049  0.0118 -0.3665  0.0602
24095W        W40569  14.883   5.188   0.710 -0.1547 -0.0516  0.3641
24096W        W40570  14.032  16.464  12.598 -0.1683 -0.1770 -0.0459
24097W        W40571  14.018   2.529  14.922 -0.2338  0.1248 -0.1662
24098W        W40572   5.814  18.660  10.761 -0.0900  0.0800 -0.0376
24099W        W40573  16.559  12.651   0.078 -0.1777  0.2677  0.1466
24100W        W40574  10.984   6.269  15.515  0.3488 -0.0799 -0.0121
24101W        W40575   3.002   9.735   0.498 -0.1606 -0.0843  0.0231
24102W        W40576   8.125  17.632   2.236 -0.1720 -0.0481  0.2619
24103W        W40577  12.639  14.540  12.463 -0.1070 -0.0769  0.4437
24104W        W40578  10.401   0.166   1.258  0.2450  0.1298  0.1193
24105W        W40579  10.902   2.431  14.904 -0.2377  0.2130  0.0851
24106W        W40580   1.142   4.447   1.974 -0.2352  0.0249  0.3979
24107W        W40581  10.673  16.259   4.412 -0.1867  0.4733 -0.2843
24108W        W40582   1.797   6.308  13.933  0.1744  0.0981 -0.0243
24109W        W40583   6.879  10.891  13.086  0.0212 -0.0946 -0.0585
24110W        W40584   5.612  15.889   0.993 -0.0964 -0.0915  0.1738
24111W        W40585  18.354  15.830  14.353 -0.1460  0.1793 -0.2111
24112W        W40586  18.514  11.861   0.272 -0.2771 -0.5281 -0.0001
24113W        W40587   8.711  15.690   0.592  0.0385  0.3421 -0.2119
24114W        W40588   4.992  17.014  12.273  0.1051 -0.0963  0.2868
24115W        W40589   5.405   1.181  13.910  0.0215  0.1458 -0.1182
24116W        W40590  13.527  14.759   4.647 -0.1365 -0.0635  0.0923
24117W        W40591   7.842   0.666  10.978  0.1907  0.2431  0.1170
24118W        W40592   0.856  15.687   3.250 -0.3406 -0.0648  0.0747
24119W        W40593   7.062   1.297   3.176 -0.2509  0.0171  0.1170
24120W        W40594   9.904  11.392  13.001 -0.3395  0.4202  0.2725
24121W        W40595  18.432  16.481   1.581  0.1694  0.0428 -0.1744
24122W        W40596  10.252   9.592  11.406  0.2259 -0.0304  0.3350
24123W        W40597  16.987   0.384  13.637 -0.3855  0.0273 -0.3562
24124W        W40598  18.755  13.920  13.448 -0.0035  0.0296 -0.2321
24125W        W40599   4.802   9.273   4.292 -0.1744 -0.4259  0.2268
24126W        W40600  13.844  15.275   2.493  0.0445 -0.0588  0.1680
24127W        W40601  11.374   7.750   2.584  0.0470 -0.1176  0.2434
24128W        W40602   3.705   5.721   0.970  0.0208  0.1682 -0.0507
24129W        W40603  13.689  15.149   0.410 -0.0544  0.0228  0.1583
24130W        W40604   0.957  11.674  12.169 -0.0122 -0.0488 -0.0284
24131W        W40605  16.461  18.418  12.219  0.2016 -0.0561 -0.1178
24132W        W40606  18.266  11.680   5.038  0.1149 -0.1271 -0.2887
24133W        W40607  11.957  11.340   0.351 -0.1217 -0.1290  0.2370
24134W        W40608   9.238  18.319  11.850  0.0350  0.0475 -0.2123
24135W        W40609   9.829   7.193  15.384  0.1160  0.1505  0.0288
24136W        W40610   7.933  13.869  14.643 -0.0495  0.2746 -0.3693
24137W        W40611   2.584  10.925   2.806 -0.0982 -0.2913 -0.1560
24138W        W40612   7.918   5.872  10.555 -0.1003  0.2834 -0.0847
24139W        W40613  11.802  13.273   0.059 -0.1882 -0.1223 -0.1254
24140W        W40614  10.177   7.448   0.021 -0.1581 -0.1320  0.3025
24141W        W40615   1.887  12.805   1.355  0.1027 -0.1535 -0.0693
24142W        W40616  18.234  15.419  12.535 -0.1081 -0.1654  0.0152
24143W        W40617  12.071   2.186   4.994  0.0198  0.0752 -0.2304
24144W        W40618  10.406   2.316  11.112 -0.0517  0.0786  0.2193
24145W        W40619   9.229   5.207   3.832  0.2305 -0.5393 -0.3577
24146W        W40620   6.675  10.709  14.463 -0.1022 -0.0646 -0.2411
24147W        W40621  14.722  13.643  14.791 -0.1540 -0.4623 -0.1372
24148W        W40622   9.011   3.091   3.272 -0.2177 -0.2636  0.1766
24149W        W40623   2.507  15.221   1.834  0.2755  0.2559  0.1062
24150W        W40624  11.180  12.006   0.906  0.1294  0.0233 -0.2974
24151W        W40625  14.058   0.519   2.105  0.2381  0.1905 -0.0232
24152W        W40626  16.476  13.991   5.487 -0.0594  0.0537  0.0143
24153W        W40627   3.952  18.747   4.170 -0.2623  0.1959 -0.1253
24154W        W40628  10.780  16.750   0.306 -0.3327  0.0208 -0.1176
24155W        W40629   0.365   5.242  13.040  0.1466  0.0825 -0.0442
24156W        W40630   9.610  15.706   4.689  0.0101 -0.2606  0.3065
24157W        W40631   6.214  15.637  11.080 -0.1455  0.0677  0.0996
24158W        W40632   9.850  17.560   0.128 -0.0329  0.1058  0.1189
24159W        W40633  10.404   9.087   1.253 -0.0887  0.2495  0.1569
24160W        W40634   6.186  14.955  12.658  0.3173 -0.2691 -0.0030
24161W        W40635  15.277   9.968   4.801 -0.0964  0.2731 -0.0215
24162W        W40636   4.900  17.188  10.891 -0.0144  0.2089  0.1070
24163W        W40637  15.622   1.171   0.358  0.0637 -0.1447 -0.0935
24164W        W40638   9.394  12.298   2.857  0.0312 -0.2203 -0.3106
24165W        W40639  14.167   7.792   3.251 -0.3418 -0.1884  0.3340
24166W        W40640   3.506  16.052  12.652 -0.1422 -0.2061 -0.1965
24167W        W40641   4.821   8.608  10.299 -0.4599 -0.0514 -0.0301
24168W        W40642   3.725   7.354   1.325 -0.1583  0.0177  0.2404
24169W        W40643   6.372  18.244  12.822 -0.1315  0.0611  0.4678
24170W        W40644   4.162   8.628   0.050 -0.0813  0.0483  0.2267
24171W        W40645   6.322  11.838   4.654 -0.1473  0.2930 -0.1804
24172W        W40646  12.996   5.597   3.307  0.1473 -0.1124 -0.1367
24173W        W40647  17.341   8.838  11.424  0.0679  0.1665 -0.0277
24174W        W40648   3.219  16.489  10.454 -0.0923 -0.0611  0.1488
24175W        W40649  15.392   3.188  11.691 -0.4568  0.2187  0.0498
24176W        W40650   0.923   3.971  12.107 -0.4513  0.0236 -0.0208
24177W        W40651   1.857  16.418  11.637 -0.4160 -0.0479  0.0226
24178W        W40652   0.825  11.829   3.735  0.3124  0.3432 -0.2831
24179W        W40653   3.637   5.418   1.333 -0.2770  0.3414 -0.0518
24180W        W40654  16.302  10.657  11.363  0.0326  0.1497  0.0517
24181W        W40655   1.638  12.346   0.428  0.0893 -0.2160 -0.1758
24182W        W40656   2.149   1.562  14.498  0.0287 -0.1651 -0.0846
24183W        W40657  17.854   4.411  11.153  0.0387 -0.0748 -0.1807
24184W        W40658  16.285  16.761   1.760 -0.2288 -0.1871  0.0217
24185W        W40659  13.170   1.973   3.387  0.0610  0.1558  0.1049
24186W        W40660  10.523  15.981  14.801 -0.1340  0.0066 -0.1060
24187W        W40661  13.829   2.832  10.930 -0.2821  0.1471 -0.0255
24188W        W40662   7.844   2.052  14.572 -0.2673 -0.1010 -0.2971
24189W        W40663  13.599  10.011   2.727  0.1667 -0.0786 -0.3638
24190W        W40664  10.491  17.831   1.671 -0.0406  0.1903  0.2558
24191W        W40665  10.630  16.467  15.507  0.1499  0.0831  0.0864
24192W        W40666   9.461   7.157   1.676 -0.1599  0.0125 -0.2540
24193W        W40667  12.487   8.590  10.061 -0.1557 -0.1083 -0.0036
24194W        W40668   7.861  14.350  13.549 -0.2897 -0.1374  0.2364
24195W        W40669  12.886  17.101  13.029  0.0106 -0.1968  0.0997
24196W        W40670  11.333  15.014  10.836 -0.2243 -0.0258  0.1677
24197W        W40671   8.154   1.910   1.844 -0.1957 -0.1729  0.1046
24198W        W40672  18.717   7.250  12.396 -0.1348  0.0661 -0.0490
24199W        W40673   1.352   2.843  15.400 -0.2344 -0.1733  0.3122
24200W        W40674   1.957  16.566  15.422 -0.1236  0.2071  0.0586
24201W        W40675  13.893  12.425   0.311  0.1267 -0.2147  0.4485
24202W        W40676   0.384   6.494   0.789  0.5469 -0.0864 -0.0821
24203W        W40677  18.605  15.767  13.877  0.1401 -0.0882 -0.1230
24204W        W40678   5.685   9.443   3.267  0.1574  0.1294  0.1423
24205W        W40679  16.260  10.563   2.656  0.3314  0.3915  0.1244
24206W        W40680  12.042  10.340   0.430  0.0355  0.1454 -0.0339
24207W        W40681   3.896  13.575   1.024  0.1882  0.0955  0.1652
24208W        W40682   2.546   8.627   3.497  0.0060 -0.0368  0.1191
24209W        W40683  11.612  12.523  13.163 -0.0366  0.0827 -0.1694
24210W        W40684   5.020   3.558   4.729  0.1442 -0.2585  0.2013
24211W        W40685   3.941  17.649   3.957 -0.1487 -0.0389 -0.0064
24212W        W40686   4.006  15.264  11.698  0.2284 -0.0610 -0.2783
24213W        W40687   6.299  18.463   3.670  0.2656  0.2008  0.0603
24214W        W40688  16.701  14.435   4.042  0.1504 -0.0167  0.1982
24215W        W40689   2.193   8.940  13.166  0.0347  0.0839 -0.1570
24216W        W40690   0.167   5.853  11.788 -0.2289 -0.0231 -0.2980
24217W        W40691  16.719   8.756   2.918  0.2193  0.1237 -0.0975
24218W        W40692  12.521   0.907  13.985 -0.1059 -0.0109  0.1581
24219W        W40693   0.367   7.217   1.254  0.1880 -0.2042 -0.0404
24220W        W40694   4.493  10.354   5.151  0.0320 -0.2402 -0.0490
24221W        W40695  11.881   0.366  11.278 -0.0233  0.0931  0.0844
24222W        W40696   5.547   5.200   3.095  0.0389  0.2455  0.0555
24223W        W40697  10.370  16.095  14.339 -0.2425  0.1616 -0.0043
24224W        W40698  10.037   3.737   1.814  0.6043  0.2831  0.2490
24225W        W40699  15.198  17.653   1.660  0.0120  0.1488  0.1980
24226W        W40700   2.188   6.121   1.870  0.2906 -0.0605 -0.0965
24227W        W40701  10.538  13.659   0.096  0.1999  0.2278  0.1091
24228W        W40702  13.964   9.585   5.159  0.1120 -0.3047  0.4623
24229W        W40703  16.901   3.828   2.318 -0.2537  0.0595  0.0370
24230W        W40704  13.971  11.063   4.305 -0.1401  0.3490  0.1087
24231W        W40705  15.912  15.466  11.225 -0.0866 -0.1862 -0.2674
24232W        W40706   8.718   5.108   2.163  0.0661  0.3298  0.0427
24233W        W40707   5.507   7.345  12.531  0.0070 -0.3275 -0.1309
24234W        W40708   9.703  14.897  13.531  0.1780 -0.0580 -0.1388
24235W        W40709  18.004   1.525   5.171  0.2273 -0.2327  0.0724
24236W        W40710  15.226   1.239  14.266  0.2605  0.2620  0.3766
24237W        W40711  17.948  11.840   0.227 -0.2173  0.1539 -0.2520
24238W        W40712  10.227   3.158  14.264  0.0865  0.1438  0.0653
24239W        W40713   3.814   9.930   2.693  0.3100  0.3794 -0.0793
24240W        W40714   5.567  15.455  15.374 -0.1105  0.1088 -0.0566
24241W        W40715   6.005   5.186   3.307  0.1239 -0.0755  0.0445
24242W        W40716  11.815   8.760  12.565 -0.1208 -0.0696 -0.4664
24243W        W40717  18.690  15.949  12.808  0.0569 -0.1194  0.0708
24244W        W40718  11.466   7.783  15.514 -0.1041 -0.1526  0.1018
24245W        W40719  15.175  12.340   0.198  0.1376  0.1319  0.0460
24246W        W40720  14.760   8.416  12.235  0.0865  0.0330  0.0720
24247W        W40721  18.671  11.228  14.976 -0.0443 -0.2906  0.1961
24248W        W40722  10.445  18.163   1.342  0.0051 -0.2500  0.3500
24249W        W40723  12.751  16.815   2.857  0.4113 -0.0906 -0.2770
24250W        W40724  18.213   7.362   4.212 -0.3304 -0.2041  0.1602
24251W        W40725   0.868  13.310  11.455  0.1996  0.2832  0.0526
24252W        W40726   4.405  11.622  12.938 -0.1896 -0.1567  0.0224
24253W        W40727   5.958  13.297   2.061 -0.0043  0.1102 -0.1194
24254W        W40728   0.036   7.378  15.013  0.1088  0.0908  0.1580
24255W        W40729  16.824   0.343   3.008  0.0299 -0.2439  0.3591
24256W        W40730   3.744  17.487  12.095 -0.1158 -0.1740  0.2204
24257W        W40731   0.239   0.328  11.011 -0.2473  0.1318  0.2565
24258W        W40732   7.697  14.279   4.372 -0.1175  0.1217  0.0415
24259W        W40733   9.507  16.503  15.441 -0.2847 -0.2094 -0.0851
24260W        W40734   5.940   3.840  13.691  0.0054  0.0425 -0.2659
24261W        W40735   1.203  15.842  13.055  0.1390 -0.1469  0.0950
24262W        W40736   0.661  11.876  11.663 -0.0077  0.1855  0.1032
24263W        W40737  11.519   3.345   4.360 -0.2242 -0.0219 -0.0763
24264W        W40738  16.979  10.963  13.792 -0.0141  0.4273  0.1162
24265W        W40739   2.084   1.840  12.869  0.0648 -0.1155 -0.2548
24266W        W40740  14.762   7.378  11.208  0.0575  0.0114  0.3281
24267W        W40741  11.323  14.773   5.668 -0.2638 -0.0729 -0.2391
24268W        W40742  17.147  11.455   0.907 -0.0102 -0.1374 -0.2278
24269W        W40743   2.856  14.552  11.705  0.0717 -0.1312  0.1862
24270W        W40744   9.971   8.112   2.664  0.0187  0.1250 -0.0236
24271W        W40745   0.565  15.328   2.939 -0.3538  0.0180  0.1870
24272W        W40746   4.311   8.813   0.529 -0.0186  0.0218 -0.3201
24273W        W40747  11.714   2.112   3.264 -0.2293 -0.2547  0.1446
24274W        W40748  17.599  16.338   0.267  0.1135 -0.0624 -0.0056
24275W        W40749   5.867   7.440   2.905 -0.3039  0.2046  0.1673
24276W        W40750  10.469   2.318   0.227 -0.0512  0.0655 -0.1474
24277W        W40751   2.853  17.847  11.195  0.0717  0.2023 -0.0102
24278W        W40752   4.372  15.550   2.199  0.0138 -0.0617  0.1388
24279W        W40753  12.854  12.197   0.925  0.3328 -0.2113  0.3967
24280W        W40754   6.046  12.421   4.129 -0.1664 -0.2070 -0.0968
24281W        W40755  11.050  11.719  15.223  0.0941  0.2723  0.4015
24282W        W40756  18.625   9.799  12.076  0.0639  0.3540  0.1773
24283W        W40757   3.188   6.568  11.667 -0.2790  0.1297 -0.0776
24284W        W40758  14.216  17.181  13.231  0.1031  0.3142 -0.0740
24285W        W40759   8.290   1.907  12.662 -0.2731 -0.3533  0.2258
24286W        W40760   7.997  10.983   3.681 -0.2456  0.0942 -0.0414
24287W        W40761   5.994  18.325  10.331 -0.1441  0.0355 -0.5303
24288W        W40762   4.411   9.685   4.078 -0.1070  0.0813  0.4128
24289W        W40763   9.384   1.194  11.272  0.1855 -0.2884  0.1722
24290W        W40764  16.472  14.866  12.208 -0.0412 -0.1038 -0.0120
24291W        W40765   5.208  18.789   3.766 -0.1303 -0.2356  0.0051
24292W        W40766  14.729  15.342  12.362 -0.1402  0.0336  0.0685
24293W        W40767  11.007   1.685  14.921 -0.1165 -0.5244  0.1178
24294W        W40768  14.716  15.466  14.437  0.0449 -0.0258  0.1303
24295W        W40769  10.831   0.937   4.712  0.0195  0.1550  0.1160
24296W        W40770  13.954   6.320  15.377  0.4078 -0.1518  0.0894
24297W        W40771  17.090   0.804  12.302 -0.1984 -0.0635 -0.1725
24298W        W40772  17.899   9.177   4.776  0.1412 -0.0005  0.1249
24299W        W40773   4.781   5.626  12.338  0.1210 -0.1240  0.1636
24300W        W40774  12.578  13.707  10.906 -0.1425  0.0720 -0.1801
24301W        W40775   9.671  17.237  11.827  0.1054  0.1129  0.0676
24302W        W40776   3.321  11.026  11.662 -0.1554 -0.3330 -0.2176
24303W        W40777   3.089  13.787   4.199  0.0449  0.1505  0.2042
24304W        W40778  15.590   1.342  13.728  0.2142  0.1873  0.1305
24305W        W40779  13.322  11.151   1.591 -0.0875 -0.0267 -0.0761
24306W        W40780   3.006   3.498   5.417 -0.2018  0.1010 -0.5559
24307W        W40781   4.547   4.089   3.125  0.0011  0.0332  0.2090
24308W        W40782  17.819  12.081   4.737  0.1754 -0.1062  0.1001
24309W        W40783   4.683  15.963  11.629 -0.1826 -0.0539 -0.0240
24310W        W40784   9.942  13.069   5.622 -0.3178  0.0065  0.0185
24311W        W40785   2.004  13.211   4.149  0.0103 -0.0442  0.0726
24312W        W40786  15.731   9.637  15.537  0.0773  0.0055  0.1796
24313W        W40787   7.637  17.457   3.135 -0.0687 -0.0525 -0.2453
24314W        W40788  18.419  13.716  13.763 -0.0226  0.4892  0.2833
24315W        W40789   3.842   2.147  13.966 -0.2439  0.0545  0.0118
24316W        W40790  11.771   9.922  11.201 -0.1922 -0.0143  0.0238
24317W        W40791  17.281   2.624   3.166 -0.1634  0.0033 -0.0486
24318W        W40792   0.683  14.980   3.296 -0.4066  0.1262  0.4765
24319W        W40793  15.582   3.586  14.279 -0.0882 -0.0517 -0.0116
24320W        W40794   8.615  15.049   2.861  0.1604 -0.2117  0.0322
24321W        W40795   4.148   3.830   3.905  0.0821  0.4288  0.1936
24322W        W40796  16.897  14.945  15.527 -0.2413  0.0662  0.0083
24323W        W40797   8.642   7.625   4.708 -0.1531 -0.0719  0.0811
24324W        W40798  17.658  14.056  11.174 -0.0620  0.0420  0.0233
24325W        W40799   8.885  15.732   2.203  0.0666  0.2895 -0.0735
24326W        W40800   7.429   6.595   2.725  0.0171 -0.0480 -0.2348
24327W        W40801  18.435   9.737  14.331  0.0263 -0.1480 -0.0170
24328W        W40802   3.547   7.322  13.545 -0.3609 -0.2597  0.2058
24329W        W40803   1.568  13.787  13.836  0.0876 -0.1026  0.2468
24330W        W40804  13.415   5.828   3.924 -0.0594 -0.2626  0.2519
24331W        W40805  13.725  18.021  11.588  0.0330  0.1553 -0.0725
24332W        W40806  14.658   0.006   0.858  0.1253  0.2231 -0.0402
24333W        W40807  17.084  11.342  11.486 -0.1184  0.0883 -0.1033
24334W        W40808   4.705   1.795   3.356 -0.0360  0.3407  0.2075
24335W        W40809   2.217   8.265   0.166  0.0762 -0.1374  0.2943
24336W        W40810   3.273  16.526   9.308  0.0977  0.2037 -0.0099
24337W        W40811   4.948  12.213   1.547  0.0322 -0.0544  0.3046
24338W        W40812   5.213  13.347   3.891  0.1394  0.1357  0.1603
24339W        W40813  17.383   9.406   3.032  0.1689 -0.0425 -0.2877
24340W        W40814   4.514  10.557  12.134  0.0040 -0.0439 -0.1485
24341W        W40815   3.982   5.030   1.389  0.3604  0.1330  0.0950
24342W        W40816  17.641  14.492  14.863 -0.1272 -0.0520 -0.3377
24343W        W40817   6.688  15.909   5.239 -0.0684  0.1373 -0.0874
24344W        W40818  10.807   6.777  11.259  0.1357  0.2316 -0.2751
24345W        W40819   4.540  16.198   0.708  0.2771  0.1982  0.0393
24346W        W40820   2.370  17.069   3.460 -0.0308  0.3345 -0.1316
24347W        W40821  17.109  16.697   3.889 -0.3062  0.2949  0.1120
24348W        W40822  17.616   2.132  13.263 -0.1986  0.1808 -0.2805
24349W        W40823  10.894  10.309   0.310 -0.1666 -0.0640  0.2285
24350W        W40824   4.744  10.108  13.875  0.0641 -0.4515 -0.0867
24351W        W40825   4.167  11.844  10.805 -0.1652 -0.1028 -0.2184
24352W        W40826  12.406   2.114   2.684 -0.1971  0.0595 -0.2923
24353W        W40827  15.017   4.329  12.103  0.2142  0.3414  0.0796
24354W        W40828  10.258   0.867   2.290  0.0609  0.0262  0.0609
24355W        W40829   0.726   0.941  12.764 -0.0719 -0.0101 -0.1992
24356W        W40830  10.433   1.983   4.036 -0.0430 -0.0535 -0.1891
24357W        W40831   7.736   0.310   1.873 -0.3565  0.2167 -0.2233
24358W        W40832   9.661  13.616   3.472  0.0958  0.0386 -0.0403
24359W        W40833   4.251  13.628   2.815  0.1402  0.2119 -0.0718
24360W        W40834   9.771   3.152  14.463 -0.1893 -0.4241 -0.1867
24361W        W40835   7.840  11.035   3.165  0.0054 -0.1247 -0.1999
24362W        W40836  16.827  17.948   1.620  0.1519 -0.2734 -0.1320
24363W        W40837  12.573   1.531  12.885  0.0817 -0.1012 -0.1445
24364W        W40838   0.372   9.849  13.617  0.3379  0.1335 -0.3175
24365W        W40839   4.211  17.303   2.053  0.2543  0.0708  0.0529
24366W        W40840  11.909   3.765   0.368  0.2278  0.1511  0.0112
24367W        W40841   0.729   5.757  11.712 -0.0150 -0.0773  0.5025
24368W        W40842  12.416  12.618   3.706 -0.1588  0.1197  0.4580
24369W        W40843   2.945  15.177  11.106  0.0682  0.2820  0.3583
24370W        W40844   3.891   2.284  11.711  0.3325  0.3292 -0.0017
24371W        W40845   0.248  18.479  12.953  0.1447  0.0242  0.1828
24372W        W40846  13.667   0.696   0.214 -0.0062 -0.1516 -0.0782
24373W        W40847   9.848   7.932   0.095 -0.1586 -0.0394 -0.1459
24374W        W40848   6.760  13.399  14.522  0.1781 -0.1301  0.1150
24375W        W40849   2.289  11.481   3.353 -0.1823  0.1351  0.4405
24376W        W40850   4.162   9.968   3.131  0.2322 -0.0502  0.0720
24377W        W40851  12.613   5.261   1.450 -0.2516  0.2834 -0.0522
24378W        W40852  15.074   8.166  14.471 -0.0523  0.0410  0.0292
24379W        W40853   8.466   3.771   2.552 -0.1651  0.0193 -0.1091
24380W        W40854   0.042   9.282  14.472  0.0893 -0.0629 -0.0201
24381W        W40855  15.075   9.118   1.387 -0.0339 -0.2154  0.1853
24382W        W40856  14.167  16.509   5.606  0.0804  0.2902  0.1880
24383W        W40857  10.845   7.425  10.548 -0.0468 -0.0762 -0.1124
24384W        W40858  12.394  14.130   2.730  0.2963 -0.3270 -0.0812
24385W        W40859  16.169  16.349   0.774 -0.0149  0.2464 -0.1008
24386W        W40860  14.121   4.040   4.818 -0.3658  0.0730 -0.0278
24387W        W40861   6.641   6.334  13.404  0.0657 -0.0827 -0.1771
24388W        W40862  17.644   2.146   2.479  0.2068  0.1810  0.2048
24389W        W40863  10.977   0.382  12.856  0.0565  0.2062 -0.2180
24390W        W40864   9.963  18.174   1.154  0.2356 -0.1338 -0.2880
24391W        W40865  16.241   9.752   5.290 -0.1224  0.3005 -0.1861
24392W        W40866   8.579  17.975   2.563  0.3347 -0.2268 -0.1775
24393W        W40867   5.449   2.989  11.125  0.0159 -0.2076  0.4155
24394W        W40868   1.556  11.897   1.168 -0.2189  0.3305  0.0670
24395W        W40869  13.993   7.310   3.104 -0.3666  0.1027  0.0282
24396W        W40870   2.614  17.621   3.210  0.3927 -0.2972 -0.2697
24397W        W40871   1.860  12.170   2.782 -0.1598  0.2631 -0.1205
24398W        W40872  17.083  10.125   5.313 -0.2712 -0.1362 -0.0179
24399W        W40873  12.254   1.387   3.679 -0.0343  0.0465  0.3100
24400W        W40874   4.693   4.392   2.795 -0.0092  0.0150  0.1827
24401W        W40875  12.777   2.910   3.625 -0.2009 -0.1640  0.0833
24402W        W40876   8.269   9.766   1.260  0.1259  0.2423 -0.0928
24403W        W40877   4.027  16.448  11.046 -0.2582 -0.0208 -0.3514
24404W        W40878  17.913   5.110  13.497 -0.3727  0.2916  0.0907
24405W        W40879   6.893   5.872  14.393  0.0779  0.4473  0.1328
24406W        W40880  15.723   2.210   2.830 -0.0058  0.1334 -0.1127
24407W        W40881  13.934  16.959   5.725  0.0510  0.0321 -0.1228
24408W        W40882  15.899   7.516   0.624  0.0928 -0.0239 -0.0786
24409W        W40883  13.210  10.067  15.524  0.1115  0.2493  0.1128
24410W        W40884  11.546   1.731   3.973 -0.0885 -0.0694 -0.1684
24411W        W40885  15.072  16.501   5.965  0.1463  0.1054 -0.0706
24412W        W40886   4.424  14.716  14.264  0.0079 -0.1158 -0.0407
24413W        W40887  13.907  17.575  14.656  0.3641 -0.0694 -0.3545
24414W        W40888  12.972  11.648   2.202 -0.0710  0.0984 -0.1069
24415W        W40889   1.378   9.192   4.488  0.3019  0.0149 -0.1830
24416W        W40890   3.145   7.892   4.740  0.0556  0.0103 -0.1710
24417W        W40891   2.797   4.356   4.126 -0.1721 -0.2030  0.3214
24418W        W40892   8.840   9.089   0.835  0.2794 -0.0695  0.0685
24419W        W40893   0.468  18.718   3.337 -0.2204 -0.3810 -0.1405
24420W        W40894   9.344   5.624   0.765 -0.0569  0.1005 -0.3948
24421W        W40895   6.842   0.917   4.161 -0.1064  0.1263 -0.0526
24422W        W40896   4.442  16.314  12.541 -0.1755 -0.0628 -0.0639
24423W        W40897  12.946  12.084  15.192 -0.2102  0.1651 -0.1295
24424W        W40898   3.319   3.656   0.587 -0.1512 -0.0828 -0.2852
24425W        W40899  12.932   5.515   4.995 -0.0613  0.1691 -0.2144
24426W        W40900  13.823   0.596  11.917  0.1000 -0.3598 -0.0024
24427W        W40901  11.821   0.089  13.421 -0.1019 -0.0238 -0.1171
24428W        W40902  12.509   0.243   1.660 -0.2910  0.0975 -0.0955
24429W        W40903  17.110   5.152  15.122 -0.0104 -0.0626  0.2335
24430W        W40904   8.280   7.268  12.463 -0.1191  0.1249 -0.2078
24431W        W40905  11.898  13.554   1.259 -0.3691 -0.1672 -0.1352
24432W        W40906   5.083   3.207   2.745 -0.0943 -0.2077 -0.1746
24433W        W40907   2.255  13.665   3.124  0.2356  0.4855 -0.2416
24434W        W40908  17.912  17.974  12.443  0.1143  0.1337  0.3275
24435W        W40909  16.005  14.863  15.417 -0.1337  0.1816  0.1995
24436W        W40910  12.642  13.822   2.013  0.1802  0.0086 -0.1390
24437W        W40911  13.651  17.011  11.826 -0.0453 -0.3095  0.3778
24438W        W40912  11.969  12.166  13.213 -0.1692 -0.0651  0.1505
24439W        W40913   2.779  17.470   4.903 -0.1520 -0.0366  0.0774
24440W        W40914  15.934   0.527   1.109 -0.3643  0.0051  0.1460
24441W        W40915  16.368   5.553  10.080 -0.1680 -0.1029 -0.0056
24442W        W40916  15.053  12.086   3.932 -0.0368 -0.1591  0.0513
24443W        W40917  12.446   5.324   0.991 -0.0722  0.2120  0.0505
24444W        W40918  16.820   2.666  10.099 -0.1438 -0.1926  0.0649
24445W        W40919   8.258  15.707   2.250  0.0274  0.1511 -0.0386
24446W        W40920  14.952   1.241  10.867  0.1212 -0.1292  0.0499
24447W        W40921  18.558   0.888  14.638  0.0429 -0.0715 -0.4938
24448W        W40922  13.427  16.760  14.702  0.1774  0.2272 -0.0143
24449W        W40923   3.414  12.450   4.898 -0.2840  0.1083  0.0363
24450W        W40924   1.132   8.859  11.277 -0.2597  0.1533  0.0317
24451W        W40925  12.586   9.288   3.169  0.5111 -0.2123 -0.0782
24452W        W40926  14.010  11.599  14.573 -0.0154  0.1148  0.0859
24453W        W40927   3.958   1.310  14.480  0.1084 -0.1481  0.0516
24454W        W40928   2.373  17.864  13.613 -0.1953  0.0810  0.0419
24455W        W40929  13.386   5.543   5.940 -0.1659 -0.1394  0.0791
24456W        W40930   7.677   7.490  11.598 -0.5313  0.0335  0.0346
24457W        W40931  18.238  16.391   2.178  0.0322 -0.1113  0.2832
24458W        W40932   7.224   3.959  13.612 -0.2309  0.1557  0.1244
24459W        W40933   5.104   5.069  14.688  0.3078 -0.1875 -0.2732
24460W        W40934  10.634  15.248  11.591 -0.0216  0.0609 -0.2458
24461W        W40935  18.117  17.187  10.472 -0.0964  0.0235  0.0824
24462W        W40936   0.421  16.736   2.098 -0.1735 -0.0631 -0.0179
24463W        W40937  10.945   1.086   0.863  0.2015  0.2426 -0.0985
24464W        W40938   0.599  14.209   1.809  0.1779  0.0624 -0.0309
24465W        W40939   9.592  15.995   2.575  0.0307 -0.0328  0.5594
24466W        W40940  15.848  14.518  11.176  0.0967 -0.2576 -0.1104
24467W        W40941   0.228  18.033  14.861  0.3959 -0.4122  0.2310
24468W        W40942   2.583   1.988  14.519  0.2446 -0.1246 -0.1338
24469W        W40943  13.225  13.506   4.140  0.1543 -0.1787  0.2579
24470W        W40944   3.895   9.743   1.819 -0.0486 -0.2166  0.1468
24471W        W40945   0.323   2.187   2.186  0.1452 -0.2399 -0.1755
24472W        W40946   2.703  17.578  14.969 -0.0227  0.5036  0.0579
24473W        W40947   9.682   8.221   3.869  0.0620  0.1888  0.1234
24474W        W40948   2.119   5.337  11.313  0.0744  0.1933 -0.1268
24475W        W40949  18.638  10.600  11.083  0.0142  0.3525 -0.1466
24476W        W40950   8.672   3.416  13.790 -0.4206  0.0906 -0.0342
24477W        W40951   6.556   1.968   0.660 -0.2719 -0.1678  0.1003
24478W        W40952   0.361   5.486  12.606  0.1292 -0.2470  0.1380
24479W        W40953   2.011   6.750  13.240  0.1427  0.1004 -0.3012
24480W        W40954  18.426   7.754   0.251  0.0364 -0.2557  0.1015
24481W        W40955   7.952   2.727  15.356  0.0881  0.0848 -0.2614
24482W        W40956   1.942  18.036  11.012 -0.1073  0.0894 -0.1204
24483W        W40957   2.194   0.544  11.789 -0.1180  0.5012  0.0868
24484W        W40958   4.760  17.109  14.460 -0.0736  0.3717  0.0473
24485W        W40959   3.641  18.703   1.200 -0.1931  0.0932 -0.1804
24486W        W40960   5.030   9.016  15.237  0.2472  0.0816 -0.0904
24487W        W40961   2.944   0.705   2.779 -0.0200  0.1174  0.5589
24488W        W40962  18.479   6.641   3.830 -0.1078 -0.1380 -0.0589
24489W        W40963  11.033   2.748   5.319 -0.2154  0.0338 -0.1381
24490W        W40964  18.531  11.427   4.692  0.2701  0.3577  0.2229
24491W        W40965  15.035   6.262  11.213  0.0143  0.0972 -0.1530
24492W        W40966  14.596   2.626   5.923  0.3207  0.1426 -0.1509
24493W        W40967  15.132  10.404   5.408  0.0619  0.0811 -0.2744
24494W        W40968  17.993   8.724   2.155 -0.2087  0.1917 -0.1540
24495W        W40969   3.890  11.060   0.320  0.1434 -0.2653 -0.0410
24496W        W40970   0.346  16.378   5.046  0.1911  0.1197  0.0654
24497W        W40971   8.336   4.702   0.502 -0.0004 -0.0266  0.1274
24498W        W40972  14.097   1.483   3.450 -0.0293  0.0664 -0.0342
24499W        W40973   9.483  13.307   2.892  0.1770  0.1197  0.6190
24500W        W40974   8.082   0.343  13.312 -0.0027  0.0612  0.0522
24501W        W40975  17.865  11.314  12.791  0.4866  0.2027 -0.0215
24502W        W40976   6.360   7.803   3.767  0.1317 -0.0094 -0.0112
24503W        W40977   6.443  15.147   0.117  0.2407  0.1567 -0.0157
24504W        W40978  11.191  12.722   3.686  0.1189 -0.1158 -0.3892
24505W        W40979  14.530   9.229  12.721  0.0228  0.2506 -0.3960
24506W        W40980  13.490  11.365  11.704  0.2093  0.3893  0.2526
24507W        W40981  15.084  12.239  12.487  0.1845 -0.0671 -0.1632
24508W        W40982   7.580  13.926   0.242  0.1366 -0.1218 -0.0772
24509W        W40983  16.637   7.217   1.922  0.0126  0.0196 -0.1544
24510W        W40984  15.872  10.835   4.996 -0.1742 -0.1031  0.1481
24511W        W40985   9.465  17.965   3.115 -0.1029 -0.1664  0.1484
24512W        W40986   8.300   6.362   2.425 -0.1169 -0.1042 -0.0542
24513W        W40987   2.761   1.598   0.644 -0.1014 -0.0079  0.1907
24514W        W40988  18.156   6.902   3.101  0.1532  0.0664  0.0121
24515W        W40989   4.691  14.211  11.615 -0.1166 -0.2279 -0.1100
24516W        W40990   0.268  17.614  14.462 -0.2859  0.2533  0.0033
24517W        W40991  15.788  15.806   4.207  0.0181  0.1435 -0.0460
24518W        W40992  11.544  15.419   2.211 -0.0705 -0.3051  0.0029
24519W        W40993  11.874  16.091   3.294  0.0826  0.1606  0.1214
24520W        W40994  11.336   2.583   1.339  0.0139  0.3062 -0.4402
24521W        W40995   7.366   0.659   5.086  0.0276 -0.1521  0.0339
24522W        W40996   8.998  11.836   4.639 -0.4188  0.2999 -0.1047
24523W        W40997   3.817  18.241  12.849  0.1868 -0.1034 -0.3614
24524W        W40998  18.086   5.468   3.379 -0.2792  0.2518 -0.0651
24525W        W40999   9.154   7.653   4.795  0.4376 -0.0515  0.2964
24526W        W41000   6.205  14.399   5.530  0.2190 -0.0242  0.0945
24527W        W41001  16.721  10.965  13.346  0.1594 -0.1745 -0.1245
24528W        W41002   6.580   1.172  13.966 -0.1343 -0.4177 -0.0869
24529W        W41003  12.111   9.608   0.693 -0.2856  0.0410 -0.0380
24530W        W41004  17.653  14.276   2.014  0.0436  0.1049 -0.1861
24531W        W41005   3.443   2.434   1.328  0.0193  0.2323  0.1193
24532W        W41006  16.576   6.429   2.358  0.3992 -0.2794 -0.0687
24533W        W41007   2.943   9.003   5.420  0.1195 -0.0218 -0.1722
24534W        W41008  16.501   5.317   1.807 -0.1434  0.0578  0.0123
24535W        W41009  17.347  14.314   1.015  0.0516  0.1027 -0.2031
24536W        W41010   1.082  13.482   2.532 -0.0760 -0.1243  0.0711
24537W        W41011  12.314   4.028  11.121  0.0927 -0.0473 -0.0579
24538W        W41012   6.708   3.529   2.483 -0.1261  0.1789 -0.1329
24539W        W41013  15.097  17.635   0.230  0.2137 -0.2325 -0.1271
24540W        W41014   4.799  18.011  13.228 -0.2573 -0.0372  0.1508
24541W        W41015   2.472  11.975  14.219  0.3550 -0.0312  0.2669
24542W        W41016   1.131  12.430   3.108  0.1669 -0.0847 -0.2316
24543W        W41017   0.320   8.238  14.568  0.0516  0.0218 -0.1874
24544W        W41018   6.712   6.466  12.249 -0.3441 -0.0772 -0.0472
24545W        W41019   7.881   3.166  12.378 -0.0570  0.2125 -0.2287
24546W        W41020  15.431   6.069  12.269  0.2418 -0.3243  0.1777
24547W        W41021   7.675   9.956  15.233  0.3120  0.0911  0.1080
24548W        W41022  17.117   2.061   0.824 -0.0102 -0.1664 -0.0099
24549W        W41023   1.932   2.312  13.196 -0.0354  0.0863  0.1251
24550W        W41024   2.227   1.344   3.624 -0.2312 -0.0238  0.1431
24551W        W41025  11.575   3.062   1.474  0.1627 -0.1497 -0.1042
24552W        W41026   0.988  14.947   1.584 -0.2259 -0.5719  0.0527
24553W        W41027  14.632   1.130  13.664 -0.2995  0.0272  0.1046
24554W        W41028   7.426  17.009   2.057 -0.0714  0.0517 -0.1375
24555W        W41029   6.867   2.944   2.287  0.2136 -0.2163 -0.0777
24556W        W41030   4.426  16.143  15.281 -0.2351 -0.1499  0.0658
24557W        W41031   5.596   7.756   1.085  0.0249  0.1995 -0.1940
24558W        W41032   2.738   1.311  11.824 -0.3529 -0.1375 -0.5877
24559W        W41033   7.757  11.503  14.249  0.2599  0.2560  0.2697
24560W        W41034  18.328  10.354  12.396 -0.0356 -0.0226  0.0889
24561W        W41035   5.149  16.431   0.088  0.1650  0.2807 -0.2153
24562W        W41036  18.073   6.299   3.874  0.1930 -0.0186  0.0712
24563W        W41037  18.538  17.248   1.918 -0.0338  0.0953 -0.0595
24564W        W41038  16.679   9.120   2.568 -0.1386 -0.1003  0.0827
24565W        W41039  14.643   4.793  13.821  0.0043 -0.1330 -0.0541
24566W        W41040  15.962  13.698  13.275 -0.0160 -0.0173 -0.1238
24567W        W41041   1.130   4.352  10.425 -0.1108 -0.1398  0.1071
24568W        W41042   3.912  18.462   2.610  0.0434 -0.1343 -0.2106
24569W        W41043   6.191  16.560  13.907  0.0173  0.1389 -0.1704
24570W        W41044   2.617   9.940   3.452 -0.1262  0.1277  0.3985
24571W        W41045   6.861  11.296  12.711  0.2221 -0.2124 -0.1597
24572W        W41046   2.846   3.628   1.412 -0.1430  0.1736 -0.1243
24573W        W41047  18.500  12.896  14.344 -0.0012  0.1643 -0.0873
24574W        W41048  18.022   1.272  14.062  0.0344 -0.0519 -0.1469
24575W        W41049   5.267  12.840   5.470  0.1990  0.0331 -0.1721
24576W        W41050  12.340  16.544   2.821  0.3319 -0.0222  0.0356
24577W        W41051   7.252   7.726  14.732  0.1034 -0.1435  0.0125
24578W        W41052  12.773  16.050   3.678 -0.3003  0.2142  0.2505
24579W        W41053   5.113  11.427   3.092 -0.0024  0.0182  0.4408
24580W        W41054   8.953   6.370  12.612  0.1615 -0.2321 -0.1416
24581W        W41055   4.528  10.170  10.210 -0.1857 -0.1965 -0.0671
24582W        W41056   2.856   8.725   1.487 -0.0517  0.2052  0.0704
24583W        W41057   9.713   9.617   0.752 -0.1832 -0.1969 -0.1206
24584W        W41058   2.063   5.039   1.059  0.3054  0.0028 -0.3504
24585W        W41059   6.911  18.112   3.308 -0.1207  0.0341 -0.0190
24586W        W41060   1.425   0.813  10.172  0.0953  0.2027  0.1618
24587W        W41061  15.837   6.047   1.741 -0.0514 -0.1386  0.0662
24588W        W41062   2.166  11.622  13.694 -0.1702  0.0532  0.1205
24589W        W41063   7.402   2.128   1.471  0.2251 -0.0609 -0.0841
24590W        W41064  16.090   4.533   0.974 -0.3959  0.0171 -0.1711
24591W        W41065  18.348  16.573   4.259 -0.0504  0.0174  0.0845
24592W        W41066  17.113  11.915  14.189 -0.0743 -0.1526  0.1387
24593W        W41067  12.828  16.175  13.237  0.1047 -0.0726 -0.2065
24594W        W41068   7.417   5.810   4.842  0.2205 -0.0305  0.0837
24595W        W41069   2.466  15.589   0.128 -0.1075 -0.2226  0.0614
24596W        W41070   4.771   8.124  14.849  0.0460 -0.2595 -0.0089
24597W        W41071  16.014   8.758  12.196  0.1533  0.2807  0.0059
24598W        W41072  11.413  18.429   3.260  0.1385  0.0213 -0.2489
24599W        W41073  11.148  15.358   3.294  0.0928 -0.1719  0.0423
24600W        W41074   4.956  17.599  14.440  0.2423  0.1679 -0.0170
24601W        W41075  15.549   2.807  12.004 -0.3914 -0.0879 -0.4000
24602W        W41076  10.054   7.095   1.370  0.0215  0.3846  0.1706
24603W        W41077  18.201  14.773   3.856 -0.0535  0.4730  0.1082
24604W        W41078   0.441  10.539  11.525 -0.1394 -0.1123 -0.1018
24605W        W41079   1.615   2.664  14.425 -0.0054  0.2646  0.5096
24606W        W41080   3.102   8.433  13.491  0.0190  0.0653  0.0932
24607W        W41081   5.237   0.764  14.234 -0.0654 -0.1795 -0.2178
24608W        W41082  16.019  16.378   1.987  0.1681  0.0072  0.0371
24609W        W41083  15.741   8.664   0.820 -0.0248 -0.2863  0.1459
24610W        W41084  15.513  17.048  11.808 -0.0202  0.2350  0.0914
24611W        W41085   4.936   3.311  10.408 -0.2402 -0.0654  0.1482
24612W        W41086  10.053  15.661   2.613  0.1882 -0.0299  0.0542
24613W        W41087   6.063   4.503  15.439 -0.1866 -0.0985  0.1145
24614W        W41088   4.193   9.263   0.206 -0.2851  0.1510  0.0897
24615W        W41089  18.096  10.109   1.843  0.1069  0.0857 -0.3772
24616W        W41090  10.685   6.744  15.142 -0.0201  0.0386  0.0071
24617W        W41091   1.280  13.393   2.984  0.1892 -0.0244 -0.1950
24618W        W41092  12.867   9.007   3.617  0.0675 -0.3110  0.2005
24619W        W41093   3.408   3.819   4.608 -0.0134 -0.2365  0.2382
24620W        W41094   9.384   2.353  14.684 -0.0479 -0.1709 -0.2045
24621W        W41095   4.517  13.103  11.072 -0.1409 -0.0626 -0.0261
24622W        W41096  15.748  16.597  15.057  0.0876  0.1805  0.1404
24623W        W41097   2.605   2.410   9.815 -0.0012  0.0578  0.1927
24624W        W41098   9.560  10.660  11.276  0.0715 -0.0661  0.0853
24625W        W41099   8.175   7.039   1.712 -0.0385  0.2193 -0.0677
24626W        W41100  17.246   1.466  12.876 -0.3292 -0.0232  0.4203
24627W        W41101   3.533   6.790   1.345  0.0417 -0.2084 -0.2592
24628W        W41102   0.410  16.278  14.202 -0.0137 -0.2108 -0.0755
24629W        W41103   3.348  10.149  10.563 -0.1209 -0.1842 -0.0708
24630W        W41104  13.584   8.317   3.949  0.3304  0.3351 -0.1143
24631W        W41105  14.374   8.623  10.983  0.0845 -0.2125  0.0164
24632W        W41106   2.651   6.968  10.639  0.3992 -0.1004  0.2438
24633W        W41107  15.814  12.514   3.895 -0.0305  0.0200 -0.0738
24634W        W41108  15.178   8.885   3.639 -0.0541  0.0493 -0.3978
24635W        W41109  11.617   6.178   0.563 -0.0214  0.0970  0.5071
24636W        W41110   3.338   7.886  12.202 -0.0823  0.0965  0.1455
24637W        W41111   6.633   9.671   0.875 -0.0762 -0.2044 -0.2068
24638W        W41112  13.709   3.752   0.954 -0.3204 -0.1863  0.0646
24639W        W41113  12.039   2.757   0.585  0.1048  0.0370 -0.1200
24640W        W41114   5.600  12.215  11.453 -0.0691 -0.1793  0.0789
24641W        W41115   3.764   5.172   4.739  0.0635 -0.0454  0.2181
24642W        W41116  18.492   8.941   2.040 -0.0705  0.0467 -0.0182
24643W        W41117   1.007  16.654  13.071 -0.1437  0.1982  0.0817
24644W        W41118   9.927   1.046   0.422  0.0720  0.2418 -0.0242
24645W        W41119   2.821  12.901  11.850 -0.0389  0.0544  0.0123
24646W        W41120  16.508  11.176   5.834  0.2717  0.3552 -0.2982
24647W        W41121  10.311  10.948   1.944 -0.0942 -0.0148 -0.0576
24648W        W41122   4.177  12.359  10.703  0.0603 -0.0027  0.3492
24649W        W41123  12.970  17.420  14.496  0.2426 -0.0840 -0.1483
24650W        W41124   2.833  14.309  12.919  0.2397 -0.1072  0.3431
24651W        W41125   2.908  17.178   0.150 -0.0714 -0.0841 -0.2406
24652W        W41126  18.250  13.528   2.312  0.1206  0.0132  0.0945
24653W        W41127   5.300  11.366   1.055 -0.1807  0.2252 -0.2044
24654W        W41128   6.197   5.343   9.924  0.1057 -0.0811 -0.1599
24655W        W41129   6.972  11.101   5.718 -0.2974 -0.2262 -0.1163
24656W        W41130  11.894  17.830   4.120  0.2246  0.1631  0.4303
24657W        W41131  11.333  12.811   5.154 -0.2830  0.2392  0.1238
24658W        W41132   2.555   0.955   3.191 -0.2059  0.0062  0.0589
24659W        W41133  14.354   8.807   4.028  0.1521 -0.1412 -0.0229
24660W        W41134  15.975   8.982   1.059  0.0738  0.1239  0.0637
24661W        W41135  10.616   3.066  12.796  0.0539 -0.2789 -0.1603
24662W        W41136   4.731  12.500  11.572  0.1822  0.0062 -0.0752
24663W        W41137   3.611   2.442  15.525 -0.1529  0.2141  0.0075
24664W        W41138  15.713  16.223   0.196 -0.0131 -0.1739  0.0027
24665W        W41139  15.363   5.153   4.281 -0.2051  0.0025  0.0564
24666W        W41140   5.494   0.921   3.587  0.1458  0.3306  0.2368
24667W        W41141   6.401   8.322  14.550  0.2128 -0.1017  0.0078
24668W        W41142   1.050   9.628   2.365 -0.2806 -0.0574 -0.0454
24669W        W41143  16.353   2.021  13.912  0.3598  0.0577 -0.2669
24670W        W41144  13.556  14.536  13.651  0.0341 -0.0376 -0.2190
24671W        W41145   6.569  10.412   3.271 -0.0392  0.0556 -0.1161
24672W        W41146   2.684   6.788  14.870 -0.1202  0.2065 -0.3234
24673W        W41147   8.816  16.548  11.456 -0.3640  0.0798  0.0039
24674W        W41148   3.447  15.117  14.966  0.0795 -0.2048 -0.0587
24675W        W41149  15.018   2.803   2.295  0.0206 -0.0433  0.0400
24676W        W41150  17.650   7.055   0.283 -0.0951  0.0358 -0.0065
24677W        W41151   4.963   9.298  11.341  0.1574 -0.0055 -0.1296
24678W        W41152   5.951  16.802  13.547 -0.0544 -0.0573 -0.3159
24679W        W41153  12.201  18.472  11.992  0.0840  0.0398  0.1169
24680W        W41154   7.736   6.647   4.635  0.2455  0.2393 -0.2812
24681W        W41155   4.847   8.077  12.503  0.0934  0.0544 -0.4794
24682W        W41156  13.087  17.919   3.831  0.0723  0.1270 -0.1746
24683W        W41157   2.836   8.715  13.879  0.2619 -0.0090 -0.2587
24684W        W41158  18.179   0.442  15.190 -0.1323 -0.1854 -0.0729
24685W        W41159   4.467   8.918  15.307  0.0739 -0.0510 -0.0535
24686W        W41160  11.886   0.608   3.228  0.0435 -0.3580  0.3432
24687W        W41161   2.146   3.498  11.497  0.2030 -0.1416  0.1946
24688W        W41162   5.157   6.706  13.516  0.3785 -0.0781 -0.4394
24689W        W41163  12.062   2.482   5.389  0.1051 -0.1193 -0.0277
24690W        W41164  16.751   4.816  11.362 -0.1613  0.0099  0.0244
24691W        W41165  13.187   9.624  12.831  0.2485 -0.0564  0.1534
24692W        W41166   3.843   8.190   4.981 -0.4016  0.3911 -0.2251
24693W        W41167  10.553  16.278   2.547  0.0361 -0.0972 -0.0658
24694W        W41168  16.556  12.389  13.551  0.0357 -0.0455 -0.1211
24695W        W41169   7.462  12.404  13.249 -0.3261 -0.0092  0.0538
24696W        W41170   7.820   8.788   4.327  0.1442  0.2179 -0.0397
24697W        W41171  17.015   3.989  14.100  0.0559  0.0745  0.0908
24698W        W41172   1.946  16.047  13.486  0.0118 -0.1316  0.1175
24699W        W41173  18.422   1.417   1.593 -0.2302  0.0195 -0.0317
24700W        W41174   1.861  18.759  12.555 -0.0520 -0.3079 -0.0770
24701W        W41175  12.314  10.050  14.564  0.2427 -0.0215  0.0462
24702W        W41176  15.010  10.692   3.836 -0.0207  0.2170 -0.3538
24703W        W41177  14.544  10.362  14.996  0.1238 -0.0325  0.1039
24704W        W41178   3.069   5.214   3.984 -0.0055 -0.1705 -0.1056
24705W        W41179   7.602   9.640  11.637 -0.0968  0.1021 -0.0810
24706W        W41180   2.631   9.064  15.500  0.0890 -0.1238  0.1004
24707W        W41181  14.550  17.145   2.827  0.3252  0.2700 -0.2979
24708W        W41182   5.993  14.463  13.343 -0.1793  0.2356  0.2647
24709W        W41183  16.244   4.830  13.712  0.1537  0.2761  0.1803
24710W        W41184   5.613   7.586   9.723 -0.0000  0.1137  0.4440
24711W        W41185   1.742   2.824  12.042 -0.0508 -0.3771 -0.0528
24712W        W41186   7.885  16.401  15.185 -0.1841  0.0272  0.1543
24713W        W41187  17.822   6.134  13.614  0.1401 -0.0625  0.2736
24714W        W41188  12.133   2.976  13.304 -0.0128  0.1883 -0.0632
24715W        W41189  15.393  12.596   3.135  0.1362 -0.0209  0.2919
24716W        W41190   0.932   3.180   5.112 -0.1782 -0.0185 -0.3002
24717W        W41191  14.132   2.935  14.642 -0.1288  0.3126 -0.1095
24718W        W41192   7.780   3.272  13.397  0.4471  0.3285  0.0446
24719W        W41193  11.204   6.064  13.192  0.0156  0.1669  0.0353
24720W        W41194  14.534  10.502   3.709 -0.3861  0.1441 -0.0815
24721W        W41195  11.892   0.874   2.172 -0.2878  0.1735 -0.0069
24722W        W41196  13.301   0.522  13.948  0.0444  0.1711 -0.0328
24723W        W41197  10.549  14.716  13.322  0.1560 -0.0364  0.1822
24724W        W41198   1.356  13.710   3.389 -0.1526 -0.1383  0.0203
24725W        W41199  11.234   2.590  14.510  0.0026 -0.1332  0.0171
24726W        W41200  13.818   1.178   0.441 -0.0661 -0.2015  0.0224
24727W        W41201  17.522  13.563  11.871 -0.1380  0.0203  0.1196
24728W        W41202  10.914   2.632  12.772 -0.1261  0.2120 -0.1624
24729W        W41203  12.661  15.779   5.366  0.1637 -0.0944  0.0060
24730W        W41204  17.345   6.387  12.435 -0.3644  0.1527  0.0258
24731W        W41205  17.939   8.308  11.568 -0.0282  0.1764 -0.1199
24732W        W41206  16.813   2.010  14.210  0.1999 -0.1947  0.3588
24733W        W41207  15.361  16.652   4.039  0.0640 -0.0792  0.0977
24734W        W41208  15.772  12.362  15.159  0.0651  0.0221  0.1341
24735W        W41209   7.778  14.631   3.458 -0.0395 -0.3115 -0.0559
24736W        W41210   5.514   9.738  15.041 -0.0034 -0.0971 -0.3123
24737W        W41211   9.936   0.565  14.441  0.0095  0.1907 -0.1017
24738W        W41212   5.390  12.507  12.403  0.1590 -0.2395  0.0211
24739W        W41213  16.382   0.893  14.767 -0.0995  0.1592  0.0732
24740W        W41214  14.229   2.367   4.680  0.4914  0.4049  0.2269
24741W        W41215   9.621  18.689  11.580 -0.0177 -0.2225  0.0676
24742W        W41216   1.576  16.979  14.444  0.0444 -0.1409 -0.3247
24743W        W41217   4.663   1.491   0.366  0.1740 -0.1912 -0.0503
24744W        W41218  12.911  12.065   2.534  0.0981 -0.0639  0.1677
24745W        W41219   2.977  10.559  10.589 -0.0562  0.1046  0.2110
24746W        W41220  16.029   2.377   5.477  0.3550  0.0457  0.0556
24747W        W41221  14.892   4.572   0.836 -0.2853 -0.0330  0.0194
24748W        W41222   1.826   5.998  14.667  0.0266 -0.0496 -0.2358
24749W        W41223  10.686  12.752  15.030 -0.2381  0.2569 -0.2402
24750W        W41224   3.255   5.690  13.347  0.1122 -0.2001  0.4663
24751W        W41225   4.670   6.851   2.537  0.0365  0.0588  0.1996
24752W        W41226   4.542  18.586  10.964 -0.3363  0.4135  0.0795
24753W        W41227  17.582   3.299  11.448  0.0120  0.2515  0.3438
24754W        W41228   1.338   2.422  13.866  0.0210 -0.1537  0.0880
24755W        W41229   6.585  13.219   1.696 -0.2069 -0.2850 -0.1141
24756W        W41230  18.214  16.792  14.331  0.1743 -0.0351  0.0931
24757W        W41231  17.238   1.802   2.638 -0.3003  0.1059 -0.1714
24758W        W41232   9.373  13.495  11.891  0.2748  0.1091 -0.2119
24759W        W41233   5.020   4.990  13.649  0.0537  0.1968 -0.0352
24760W        W41234   6.843   9.128  11.954 -0.1060  0.0915 -0.0822
24761W        W41235  11.005  13.746  12.263  0.2872  0.0843  0.1476
24762W        W41236  13.499   5.667   0.347 -0.0018 -0.0818  0.1179
24763W        W41237  14.317  11.003  12.349  0.2177  0.3236 -0.1191
24764W        W41238   9.745   8.702  15.429  0.1431 -0.1597 -0.3099
24765W        W41239   0.940  13.856   1.611  0.2338  0.2625 -0.0602
24766W        W41240   1.188  12.104  12.897  0.1538 -0.1314 -0.0122
24767W        W41241  14.428   9.233   0.552  0.2187 -0.1775  0.1305
24768W        W41242   9.655  11.005   5.836  0.0542 -0.0915  0.2837
24769W        W41243   3.904  12.088  11.845  0.0688 -0.1812 -0.2414
24770W        W41244  17.580   9.485   3.509  0.2172  0.1454  0.1733
24771W        W41245   8.533  10.095   2.463 -0.0463 -0.2880 -0.1526
24772W        W41246  14.445  15.814   2.874  0.1498 -0.2632 -0.1258
24773W        W41247   1.377   6.529   1.971  0.0075 -0.0032  0.2916
24774W        W41248  11.313  12.473  12.349  0.0337 -0.0254  0.2022
24775W        W41249   1.047  10.372   5.102 -0.2816 -0.0074 -0.0944
24776W        W41250   1.824   9.380   1.879 -0.0492  0.0394 -0.0626
24777W        W41251   1.860   7.279  11.430 -0.2525  0.0451 -0.2816
24778W        W41252   3.743  14.959   3.990  0.0003 -0.2064 -0.1024
24779W        W41253   2.944  17.166   1.926  0.1562  0.1533  0.0600
24780W        W41254  11.030   0.712  13.975 -0.1508  0.0248  0.1588
24781W        W41255   7.505  11.427   0.892  0.0677 -0.1946  0.0833
24782W        W41256  15.520  13.536   0.683  0.1254 -0.1648 -0.1595
24783W        W41257  12.854   1.565  14.656  0.2553 -0.1289 -0.0649
24784W        W41258  18.589   2.098   3.509  0.1131 -0.1400 -0.1558
24785W        W41259   1.436   9.415   2.798  0.0496 -0.0935 -0.1411
24786W        W41260   5.756   9.957   3.653  0.1963  0.2082 -0.0405
24787W        W41261  10.133   3.651   2.756 -0.0383 -0.1112 -0.0442
24788W        W41262   8.934  13.997   4.634  0.0045  0.2083 -0.0946
24789W        W41263  13.263   5.507  12.184  0.1168 -0.1960 -0.1076
24790W        W41264   4.890   0.952   4.863  0.1364 -0.1356 -0.0025
24791W        W41265   7.694   5.898   4.429 -0.3244  0.2161  0.1172
24792W        W41266   2.083  17.801  14.044  0.2062  0.3032 -0.2316
24793W        W41267  13.040  14.889  12.845 -0.0638 -0.0014  0.1448
24794W        W41268   8.006  16.796   1.868  0.0260 -0.1056  0.3113
24795W        W41269   2.160  15.089  14.411  0.2765 -0.2067 -0.0135
24796W        W41270  13.923   0.100   3.170  0.1088  0.1112  0.1403
24797W        W41271   2.294   0.234   2.489 -0.0248 -0.1293  0.1807
24798W        W41272  16.172  16.155  13.306  0.1425  0.5409  0.1251
24799W        W41273  17.074   3.417   0.969 -0.1288  0.0155 -0.2415
24800W        W41274   8.160  16.158   1.337  0.2119  0.0373 -0.0750
24801W        W41275   1.514   2.590   4.146 -0.3971  0.1378  0.1623
24802W        W41276   5.559   6.246   4.278 -0.2281 -0.1739 -0.0358
24803W        W41277  14.355  12.361  14.095  0.2761  0.0504  0.0974
24804W        W41278  18.662  12.324  11.845 -0.0019  0.2244  0.0324
24805W        W41279   4.493   5.900  10.319  0.0016  0.0395 -0.1503
24806W        W41280  14.206  15.902   1.984  0.1502 -0.0818 -0.2097
24807W        W41281  17.198   7.696   3.300  0.2862  0.0476  0.1553
24808W        W41282   1.234  13.458   0.463  0.1213  0.1631  0.0078
24809W        W41283   0.246   6.468  11.381  0.1422 -0.2222 -0.0426
24810W        W41284   4.184   8.981   4.108 -0.1218 -0.0059 -0.0356
24811W        W41285   3.529  11.727  13.338 -0.1619 -0.0854 -0.1309
24812W        W41286   9.049  16.421  13.367 -0.1141 -0.1752  0.1763
24813W        W41287  11.142   5.256   4.580 -0.1713 -0.0180  0.2203
24814W        W41288  16.845  15.103   3.868  0.3706  0.0008  0.0668
24815W        W41289   5.958   7.538  10.054 -0.0678  0.1425  0.0789
24816W        W41290   2.810   7.952   3.907 -0.1857  0.0603  0.3746
24817W        W41291   7.745  10.672  14.521 -0.3285  0.1051  0.1010
24818W        W41292  17.442   3.379   2.746 -0.0239 -0.2697  0.2874
24819W        W41293  12.993   6.178   4.129  0.1448  0.1352 -0.1407
24820W        W41294  15.769   7.548   0.035  0.4269  0.0942  0.0307
24821W        W41295   2.526  18.652  15.307 -0.1781  0.0028  0.0194
24822W        W41296   4.227  14.351  12.866  0.1513  0.2098 -0.1039
24823W        W41297  17.896   3.893  13.574  0.0648  0.1073  0.0824
24824W        W41298  13.124   1.453  15.061  0.2303  0.0957  0.0550
24825W        W41299   8.207   8.812  14.578 -0.1770  0.2455  0.0401
24826W        W41300   5.519  16.995  11.357  0.0918 -0.1495 -0.1276
24827W        W41301  15.377   1.853   2.602  0.2432  0.3407  0.0803
24828W        W41302  17.829  12.708   2.504 -0.0668  0.3607  0.0508
24829W        W41303  17.541   6.933   5.144 -0.1164  0.1928  0.0401
24830W        W41304  17.010   2.544  15.082  0.2656 -0.0259  0.2233
24831W        W41305  17.536   0.029  11.438  0.1239 -0.0330 -0.3132
24832W        W41306   3.668   3.837  10.489 -0.1514 -0.1751 -0.1973
24833W        W41307   7.391   1.477  10.669 -0.0586  0.1647  0.0368
24834W        W41308  10.980   3.652  12.176  0.1554  0.0680 -0.0265
24835W        W41309   2.539  14.565  15.430 -0.2035  0.1942 -0.2853
24836W        W41310   9.331   7.298   0.013  0.1127 -0.0184 -0.0727
24837W        W41311  15.569   8.926  15.334 -0.1775  0.0462 -0.2632
24838W        W41312  11.733   3.461   5.310 -0.1134  0.0047 -0.2840
24839W        W41313   0.352   4.043  10.953  0.0593 -0.0773 -0.0057
24840W        W41314   3.385   7.337  11.262  0.0182 -0.0475 -0.0869
24841W        W41315   1.726   3.197  13.581 -0.0951  0.1036 -0.0862
24842W        W41316  13.900   5.738  15.480 -0.1398  0.2255  0.3823
24843W        W41317   8.908   6.318   1.901 -0.0919 -0.2746  0.2895
24844W        W41318  13.746  18.579  10.802  0.0425 -0.1249  0.2725
24845W        W41319  17.500  11.117   4.046 -0.1162  0.0791  0.2737
24846W        W41320  14.217   9.673  14.826 -0.0606  0.0779 -0.0135
24847W        W41321  15.198   1.924  15.466 -0.0271 -0.1498 -0.1384
24848W        W41322  12.529  14.609  13.799  0.0541 -0.2596  0.4452
24849W        W41323   2.176   4.952  14.038 -0.0638  0.0301 -0.0891
24850W        W41324   6.975  15.549  12.810  0.0361 -0.0905 -0.1391
24851W        W41325  15.521   5.383   1.949  0.2275 -0.3765  0.2411
24852W        W41326   8.738   8.816  12.301  0.1002  0.0527  0.0219
24853W        W41327   2.421  15.405  11.922  0.1312 -0.1527  0.2831
24854W        W41328  10.473  15.690   3.565  0.1415  0.1998  0.1005
24855W        W41329  17.267  14.604  11.400 -0.0791 -0.0314 -0.0009
24856W        W41330   9.069   4.309   4.961 -0.1732 -0.2696 -0.3901
24857W        W41331  10.722   4.127  11.831 -0.0659 -0.0518 -0.3337
24858W        W41332   5.762   7.735   3.949 -0.3639 -0.5846 -0.1670
24859W        W41333  15.124   8.123   1.109  0.1590 -0.1293 -0.0765
24860W        W41334  12.603  15.522  15.381  0.2744 -0.2462 -0.1916
24861W        W41335  15.549   2.972  13.460 -0.2365  0.0644 -0.2148
24862W        W41336  11.394  14.109   2.624 -0.2082  0.1585  0.3776
24863W        W41337  12.594  16.647  14.808  0.0106  0.2391 -0.0611
24864W        W41338  11.979   1.053   0.574  0.0760 -0.3627 -0.0302
24865W        W41339  17.500   9.732  15.444 -0.0569 -0.2776 -0.0207
24866W        W41340   6.216   6.068   5.009  0.1727 -0.2190 -0.0699
24867W        W41341  10.421  11.534  12.277  0.1111  0.2446 -0.0519
24868W        W41342   2.272  12.104   2.524  0.0340  0.1327 -0.0725
24869W        W41343   2.848   3.107   2.985  0.1256  0.2306 -0.0038
24870W        W41344   1.196   7.741  10.613  0.0035  0.1044  0.0988
24871W        W41345  18.140  10.378   4.304 -0.4308  0.0390  0.2335
24872W        W41346  10.839   3.199   2.909  0.1140 -0.0108 -0.2430
24873W        W41347   8.411  14.761  12.300  0.0962  0.0533 -0.0970
24874W        W41348  18.272  17.371   3.865  0.0393  0.4466  0.0001
24875W        W41349   3.342  15.589  15.361 -0.2853 -0.2598 -0.2605
24876W        W41350  18.728   5.576  12.262  0.1346  0.2416 -0.3478
24877W        W41351   5.242  16.435  12.248 -0.1542 -0.1341  0.0465
24878W        W41352   8.422   3.554  14.939  0.1232  0.0356  0.3547
24879W        W41353  11.604  16.584  14.352 -0.1205  0.1971  0.1995
24880W        W41354   5.722  15.562   3.904 -0.1527 -0.0868  0.0439
24881W        W41355   8.159  14.166   3.918 -0.1291 -0.1280 -0.2666
24882W        W41356   4.627   5.332  11.974 -0.1647 -0.2327  0.2315
24883W        W41357  12.271  13.637  13.022  0.1469  0.2790  0.2048
24884W        W41358  10.945   9.620  15.163 -0.0506  0.1661  0.0852
24885W        W41359  16.559  12.162  12.560 -0.2762  0.0186 -0.1890
24886W        W41360   8.896   4.369  11.687  0.2728  0.2356 -0.4134
24887W        W41361  15.933   0.836  11.335  0.1863 -0.0944  0.2431
24888W        W41362   2.418   0.674   0.711 -0.0900  0.0064 -0.3393
24889W        W41363  17.489  11.786   1.093 -0.0131 -0.1247  0.2145
24890W        W41364   7.738  18.492  12.951  0.0722 -0.1551 -0.0550
24891W        W41365   1.635   9.871   2.070 -0.1359  0.2404 -0.1662
24892W        W41366   9.292  17.646  14.993 -0.2433  0.1308  0.2270
24893W        W41367   6.791   3.400  11.458 -0.1612 -0.0895  0.0551
24894W        W41368  18.582  12.393   4.442 -0.0291  0.1131  0.1038
24895W        W41369   6.716   7.009  10.662  0.0144  0.2868 -0.0412
24896W        W41370  13.905   3.220   3.821 -0.2568 -0.0945  0.1719
24897W        W41371   2.144   4.258   1.886  0.1287  0.4231  0.3063
24898W        W41372   7.606  13.578   1.925 -0.1313  0.0827 -0.0728
24899W        W41373  16.757   7.482  14.219 -0.0298 -0.2154 -0.1435
24900W        W41374   2.885   2.511  13.025  0.1386 -0.2964  0.1654
24901W        W41375   1.916   1.223  15.219 -0.1242  0.1119 -0.3924
24902W        W41376   7.865   6.190   0.758 -0.0013 -0.0903 -0.2236
24903W        W41377   1.729   3.654  13.739  0.1012 -0.0820  0.3439
24904W        W41378   1.053   4.994   3.468  0.0725  0.0394  0.0093
24905W        W41379   1.098  15.682  15.143 -0.1343 -0.3048  0.0265
24906W        W41380  18.241  13.007   2.364 -0.0470 -0.0190  0.1944
24907W        W41381   2.788  14.688  12.184  0.0746 -0.2201  0.1014
24908W        W41382   4.931  11.619   4.660 -0.2053  0.0199 -0.0876
24909W        W41383   4.718  17.443  12.229  0.2187  0.1810 -0.1146
24910W        W41384   0.283   1.941   4.369 -0.0436 -0.1932  0.3141
24911W        W41385  12.893  13.374   1.785 -0.2662 -0.0128 -0.2048
24912W        W41386   1.313  10.875   3.161  0.0524 -0.0254 -0.1241
24913W        W41387   0.494  17.278   1.187  0.1370  0.0033 -0.2118
24914W        W41388   0.447   0.255  11.520  0.2927  0.3384 -0.1673
24915W        W41389  10.447   7.750   2.949  0.1004  0.1888  0.2640
24916W        W41390  10.512   9.875   3.334 -0.1618  0.0203 -0.2829
24917W        W41391   3.351   8.611   2.424  0.0017  0.2704  0.0642
24918W        W41392  16.192   0.015   0.762 -0.3667 -0.2711 -0.0695
24919W        W41393  16.417   4.776   4.368  0.3476 -0.3071  0.3422
24920W        W41394  15.439  10.298  11.298 -0.0959  0.2342  0.1196
24921W        W41395   0.013   6.271  14.576  0.1436  0.2934  0.0804
24922W        W41396   0.091   3.962  13.142  0.0817 -0.0977 -0.0100
24923W        W41397   1.875  16.808  12.582  0.1203  0.3689 -0.1464
24924W        W41398   3.003  18.617  13.869  0.2221 -0.2924  0.1178
24925W        W41399   8.818  12.040  12.646  0.1207 -0.0224 -0.0147
24926W        W41400  13.760  12.167   0.747 -0.0989 -0.2775 -0.0512
24927W        W41401   2.112  18.625  12.066 -0.0197 -0.1505 -0.1607
24928W        W41402  13.936   3.229   1.230 -0.2770  0.0739  0.0706
24929W        W41403   1.927  13.548   5.668  0.0225  0.1233  0.1534
24930W        W41404   2.942  15.667  11.231 -0.1516  0.0504  0.1055
24931W        W41405   5.766   9.687   0.770 -0.0071  0.1423  0.1011
24932W        W41406   7.668  17.099   4.692 -0.0333 -0.0308  0.2218
24933W        W41407  11.331  11.322   5.248  0.1543  0.0480 -0.1715
24934W        W41408   3.652   0.818   1.831  0.0874  0.0057  0.0939
24935W        W41409   3.513   1.434   2.555 -0.1332 -0.4491 -0.0761
24936W        W41410  12.541   0.233  15.231  0.2266 -0.1021  0.0371
24937W        W41411   4.306   7.621  15.322 -0.2319 -0.0518  0.2962
24938W        W41412  13.875   6.359   0.696 -0.1934  0.1365 -0.1600
24939W        W41413   6.446   7.216   1.223 -0.1596  0.1817  0.0487
24940W        W41414   3.032  18.119  12.209 -0.2466 -0.0774 -0.1060
24941W        W41415  10.028   8.837   5.845 -0.1401 -0.2241  0.3341
24942W        W41416  18.400   5.874  11.145  0.1116  0.0738 -0.1526
24943W        W41417   1.152   6.493  11.178 -0.0266  0.1596  0.3680
24944W        W41418   7.955   6.518  11.846  0.1717  0.2578 -0.0897
24945W        W41419  10.105   8.818  10.668  0.0811  0.0960 -0.0773
24946W        W41420  12.647   2.837  12.148 -0.3394 -0.0752  0.2201
24947W        W41421  15.252  17.658   5.379  0.0612  0.0073 -0.2147
24948W        W41422  18.199  11.973   2.425  0.0343 -0.2400 -0.0285
24949W        W41423   2.099  11.596  14.178  0.0984  0.1753  0.5448
24950W        W41424   7.896  13.113   1.899 -0.0221 -0.1260  0.2343
24951W        W41425  13.311  15.821  10.986  0.1464  0.0362  0.2143
24952W        W41426  15.124   0.720   1.949  0.1606  0.0434  0.0598
24953W        W41427  16.354   3.084   1.182 -0.0885  0.1775  0.2028
24954W        W41428   9.188  18.690   3.503  0.1281 -0.2927 -0.3255
24955W        W41429   5.736  10.605  15.571 -0.0953 -0.4491 -0.0854
24956W        W41430  13.560   2.409   3.108  0.0817  0.2072  0.1996
24957W        W41431  18.506   7.168  14.155 -0.0631  0.0817 -0.1374
24958W        W41432   1.593  15.755   1.873  0.2069 -0.0346 -0.1699
24959W        W41433  16.088  18.143   2.879 -0.2694  0.1582 -0.0673
24960W        W41434   6.373   9.646  11.545  0.0705 -0.1254  0.2319
24961W        W41435  10.700  14.411   3.336 -0.1037  0.2891 -0.1849
24962W        W41436  18.362  11.663   1.195  0.2500 -0.0448 -0.3420
24963W        W41437  17.095  11.722  13.106  0.1988 -0.4935  0.0516
24964W        W41438  12.262  11.189  13.683 -0.0622 -0.0397  0.0527
24965W        W41439   0.411  15.692   2.590 -0.1317 -0.1048  0.2732
24966W        W41440  18.331  10.971  11.318  0.1713 -0.1914 -0.1437
24967W        W41441  12.396   3.339  12.171 -0.0310 -0.2316  0.0610
24968W        W41442   4.055  13.109   2.736  0.3332 -0.0984 -0.2652
24969W        W41443   3.622  14.438   0.444 -0.2070  0.0498  0.1624
24970W        W41444   9.732  13.094   0.880 -0.1932  0.0526 -0.4495
24971W        W41445   8.034  14.749   1.045  0.0734 -0.2317 -0.0996
24972W        W41446   1.712  12.001  14.935 -0.1330 -0.3150  0.1989
24973W        W41447  14.717   2.818   3.948 -0.0599 -0.0453  0.0017
24974W        W41448  13.788   3.011  13.613 -0.1165 -0.0683 -0.1379
24975W        W41449  17.513  18.089  12.924  0.1482  0.1009  0.0295
24976W        W41450   6.815   0.796  12.657 -0.4073 -0.2354  0.0016
24977W        W41451  15.034  12.284   5.490 -0.3246  0.1274 -0.0954
24978W        W41452   1.663  13.887  14.819  0.0534 -0.1261 -0.1702
24979W        W41453   2.902  13.128  11.387  0.0582  0.0200  0.4255
24980W        W41454   1.969  15.596   0.020  0.0953 -0.0406  0.0232
24981W        W41455   7.579  14.769  12.168  0.1037 -0.0362  0.0738
24982W        W41456  14.017   9.176  12.228 -0.1213  0.0778  0.2080
24983W        W41457  11.010  10.166  12.936 -0.0469 -0.1203 -0.1612
24984W        W41458   7.972  14.530  15.184 -0.1359 -0.2266 -0.0205
24985W        W41459  17.016   3.815  15.119  0.0557  0.1643 -0.0492
24986W        W41460   0.748  15.402  12.152 -0.0141  0.5216 -0.0521
24987W        W41461  15.559   6.012   3.974  0.0561  0.0756 -0.4497
24988W        W41462  10.748   7.443   4.734  0.0327 -0.0774  0.2664
24989W        W41463  11.150  13.967   0.980  0.0122 -0.0908 -0.1923
24990W        W41464  12.001   8.190   5.746 -0.3536 -0.2021 -0.0864
24991W        W41465  16.763   9.928   0.544 -0.1576 -0.0385  0.0177
24992W        W41466   0.663  11.288  11.414 -0.0261 -0.0460 -0.1989
24993W        W41467   6.984  16.298  11.266  0.5805 -0.0271 -0.2343
24994W        W41468   0.519   6.343  14.117 -0.0256  0.1083  0.0115
24995W        W41469   2.977   6.578   4.157  0.2670  0.1806 -0.0462
24996W        W41470  13.094  14.537   2.303  0.2574 -0.1420  0.1477
24997W        W41471   7.270  12.150  11.002 -0.0783 -0.3086  0.1248
24998W        W41472  14.874  13.060   3.783  0.0454 -0.0352 -0.0910
24999W        W41473   2.082   2.180  14.997 -0.0460  0.0571  0.0813
25000W        W41474   0.604  13.558   0.775 -0.1515  0.3275  0.0198
25001W        W41475   3.071   1.528   2.308 -0.0810  0.1025 -0.2035
25002W        W41476  12.519   4.331  14.825 -0.1612 -0.0054 -0.1329
25003W        W41477  12.194   1.862   3.095  0.0427  0.0437  0.1577
25004W        W41478   9.998   9.142   3.718 -0.1560  0.0058 -0.0039
25005W        W41479  15.134   7.674   1.741 -0.1172 -0.1560 -0.1884
25006W        W41480  13.351   7.357  10.874  0.0051  0.1603 -0.0004
25007W        W41481   1.380   9.886  15.284  0.0989 -0.1601  0.1424
25008W        W41482   8.142   0.023   4.933 -0.1035  0.1683  0.0425
25009W        W41483   0.486  14.465  10.975  0.2292  0.2725  0.4013
25010W        W41484  13.162  17.494   1.593  0.2982  0.3623  0.1693
25011W        W41485  14.499  16.340  13.225  0.0167 -0.1015 -0.0618
25012W        W41486  11.220  13.555   4.904  0.1094 -0.0050 -0.0511
25013W        W41487   6.457   5.857  13.327 -0.1902  0.1869  0.0208
25014W        W41488   8.817   6.982   5.766  0.1818  0.1812 -0.6568
25015W        W41489  11.261  16.152   3.841 -0.1662 -0.0263  0.0651
25016W        W41490  15.243   3.652   0.156 -0.0249 -0.1599  0.0428
25017W        W41491  10.204  12.878  15.193 -0.1222  0.0763  0.0431
25018W        W41492  13.361  14.360  12.916  0.0802  0.0075  0.0924
25019W        W41493   0.185   0.697  12.678  0.0329  0.1850  0.0227
25020W        W41494  17.135  14.971  13.677  0.1270 -0.1556  0.2402
25021W        W41495  16.328   4.152   4.188  0.0128 -0.2107 -0.1013
25022W        W41496   2.755   3.402   5.001 -0.1260  0.0835 -0.2431
25023W        W41497  15.419  17.977  11.612  0.0846  0.0355 -0.1069
25024W        W41498   1.867   1.293   4.164  0.4754 -0.2005  0.1725
25025W        W41499  13.538  16.560  12.747 -0.1330  0.0787  0.1835
25026W        W41500   7.406  13.165  11.822  0.1114  0.0916 -0.0607
25027W        W41501  16.453  16.952   4.334 -0.1138 -0.0110 -0.2107
25028W        W41502  15.498   2.404   3.274 -0.0510 -0.2100 -0.1571
25029W        W41503  10.077   2.046   0.406 -0.2652 -0.3522 -0.0808
25030W        W41504  11.690   1.843   4.895  0.1283 -0.0162  0.0287
25031W        W41505  16.056  17.423  11.855  0.0446  0.2032  0.1265
25032W        W41506   6.497   5.559   3.907  0.3733  0.0162 -0.1043
25033W        W41507  18.528  18.446  14.233 -0.2104 -0.0181  0.2617
25034W        W41508  15.719   6.842  14.827  0.0879  0.3153 -0.2793
25035W        W41509  14.172   6.105  13.158  0.2898 -0.1044  0.0406
25036W        W41510   7.829  15.146   0.223 -0.2010 -0.1129  0.1759
25037W        W41511  12.628   8.420   5.217 -0.0007 -0.0440  0.0651
25038W        W41512  10.250  14.919  12.051 -0.2499 -0.0403 -0.2550
25039W        W41513  16.347   9.726   2.173 -0.0309 -0.0930 -0.1125
25040W        W41514   3.973  12.917   0.231  0.2420  0.3229  0.0266
25041W        W41515   9.593  16.265   4.566  0.2045 -0.3026  0.0430
25042W        W41516   1.325   8.806  13.938 -0.0922  0.1417  0.0177
25043W        W41517  15.605   8.594  12.015 -0.0781 -0.2709  0.1087
25044W        W41518  13.783  17.285  15.452 -0.4189 -0.2483  0.2300
25045W        W41519   0.638  12.986  14.021 -0.2739  0.0042 -0.1215
25046W        W41520   1.114  17.221  13.086  0.0989  0.2389 -0.1899
25047W        W41521   0.346  14.686  13.999  0.2405  0.0889 -0.1716
25048W        W41522   8.431   0.391   0.534 -0.0913 -0.0483 -0.1386
25049W        W41523  18.563   4.253   0.591  0.1969  0.0637 -0.0094
25050W        W41524  16.354  14.178   4.482  0.1252 -0.1316 -0.0819
25051W        W41525  14.977  11.816   5.311  0.0019 -0.4234 -0.1813
25052W        W41526   1.853   5.691   2.625  0.2247 -0.2685 -0.0005
25053W        W41527   6.638   2.197   4.280 -0.0419  0.0657  0.1218
25054W        W41528   1.901   4.526   3.161 -0.2002 -0.1429 -0.1066
25055W        W41529   7.636   3.765  14.645 -0.2296 -0.1671  0.0658
25056W        W41530   1.078   7.506   5.235  0.0248  0.4681 -0.1650
25057W        W41531   4.789   3.047   3.768 -0.0834  0.0497 -0.1072
25058W        W41532  17.484  11.926   3.181 -0.1297  0.4545  0.0634
25059W        W41533   9.864  14.527   5.692  0.0081  0.2445 -0.1676
25060W        W41534   1.028   7.905  14.404  0.0908 -0.1986 -0.0918
25061W        W41535   6.823  16.791   1.447 -0.0385 -0.1095 -0.1706
25062W        W41536   7.636   9.604   1.916 -0.1277  0.0306 -0.1746
25063W        W41537  16.099   7.022  15.571  0.3307 -0.0392  0.1558
25064W        W41538   6.301   8.208  10.886 -0.1039 -0.2478  0.0193
25065W        W41539  14.465  10.611   4.772 -0.0001  0.0061 -0.2906
25066W        W41540   7.082   8.787  13.754  0.0529 -0.3125 -0.1021
25067W        W41541  15.141  11.858  11.638  0.2096 -0.2687 -0.0578
25068W        W41542  17.739  14.694   4.088 -0.0665  0.0554  0.0263
25069W        W41543   1.660   9.558  14.843  0.3371 -0.0897 -0.1071
25070W        W41544   5.777   0.053   1.602  0.1244 -0.0121  0.1836
25071W        W41545  10.733   1.531   0.978 -0.0092 -0.3721 -0.5546
25072W        W41546  13.790  10.366   4.880  0.1870  0.1717  0.2470
25073W        W41547   1.719   8.826   4.509 -0.3587 -0.0599  0.2219
25074W        W41548   9.261   4.321   2.104  0.3647  0.3858 -0.3175
25075W        W41549  15.103  18.019   3.491  0.1012 -0.0129 -0.2204
25076W        W41550  16.367  12.475  14.336 -0.2232  0.1932  0.3837
25077W        W41551   4.462  15.202   0.638  0.1105  0.1884 -0.0318
25078W        W41552   2.933   1.818   2.740  0.2134 -0.3085 -0.2866
25079W        W41553   1.924   7.880   0.401 -0.2127 -0.2539  0.0447
25080W        W41554  14.846  14.935  14.395 -0.0144 -0.1306  0.0672
25081W        W41555   9.678   2.590   2.091  0.0414 -0.0607 -0.0732
25082W        W41556   3.890   1.909  12.473  0.0842  0.1345 -0.0887
25083W        W41557   9.655   0.572  15.236 -0.0198  0.1223  0.5793
25084W        W41558   1.363   4.778  15.067 -0.0803  0.1947 -0.2469
25085W        W41559  16.571  15.706   3.238 -0.0122  0.0913  0.0192
25086W        W41560  12.634   8.985  13.336  0.1906  0.2023 -0.1895
25087W        W41561  17.709  12.440  13.675 -0.0190  0.0426 -0.1326
25088W        W41562  12.847  16.216   1.558  0.2115 -0.0892  0.1482
25089W        W41563   4.072   2.668   1.657  0.0274 -0.1252 -0.1144
25090W        W41564   1.090  12.440  12.541 -0.1209 -0.3455  0.3123
25091W        W41565  10.687  15.246   3.661 -0.0247  0.1679  0.0653
25092W        W41566   9.159  13.024   2.576 -0.0925 -0.0957 -0.0307
25093W        W41567  11.572   1.472   2.551  0.0864 -0.0410  0.1406
25094W        W41568  12.545  10.747   1.348  0.3500  0.1502 -0.3273
25095W        W41569   3.864   6.624  14.422 -0.4562  0.0226 -0.2386
25096W        W41570  16.922   9.084   5.228  0.5158 -0.1852  0.1880
25097W        W41571   4.625   7.542  12.932 -0.2243 -0.2519  0.0863
25098W        W41572  10.712  15.653  15.120 -0.2353 -0.3168 -0.0949
25099W        W41573  10.126   6.859   4.626  0.0092 -0.2803 -0.0708
25100W        W41574  14.847  10.087  11.718  0.0961 -0.0827  0.0858
25101W        W41575   6.880   1.124  11.702 -0.0448 -0.0730  0.1128
25102W        W41576  10.736  17.952  12.725 -0.1326  0.2187 -0.1462
25103W        W41577   7.733  18.441   0.883 -0.5724  0.1519  0.0135
25104W        W41578  18.427   2.985   4.514 -0.1384  0.1095 -0.0477
25105W        W41579   6.415   5.342   0.157  0.2089 -0.1565  0.3148
25106W        W41580   6.788  10.908  10.972 -0.1914  0.0585 -0.1958
25107W        W41581  14.011   1.983  14.361 -0.3161 -0.5344  0.0007
25108W        W41582  11.615   1.620  12.955  0.1582 -0.2885 -0.1518
25109W        W41583   7.777  11.651  14.919 -0.1517 -0.0549  0.0870
25110W        W41584   7.985  11.319  12.824 -0.1314  0.1359  0.2193
25111W        W41585   6.854  18.766   1.459  0.0590  0.0030  0.2268
25112W        W41586   6.121  17.412   2.345  0.1343 -0.1637 -0.2088
25113W        W41587  17.143   6.879   1.042  0.2757 -0.0540 -0.0346
25114W        W41588  15.040  15.706  12.226  0.0374 -0.1217  0.0623
25115W        W41589  17.275  16.011   1.054 -0.1772 -0.0742  0.1643
25116W        W41590   2.632   3.390  14.984  0.0554 -0.4112 -0.0057
25117W        W41591  15.720  17.766  11.934  0.0262  0.0859  0.1374
25118W        W41592   1.267  14.468   4.926 -0.0299 -0.0610  0.2001
25119W        W41593   9.825  14.356   4.298 -0.1623 -0.1322 -0.1084
25120W        W41594  16.870  18.644   5.447 -0.1061 -0.0574  0.2034
25121W        W41595   6.866   5.300   4.785 -0.4252  0.0231  0.2585
25122W        W41596  15.383  18.095  13.101 -0.0555 -0.0443  0.1565
25123W        W41597   2.057   2.090   4.269 -0.0170 -0.0604 -0.3453
25124W        W41598   0.145  11.073   2.921 -0.4260 -0.1568 -0.2491
25125W        W41599   0.440  17.406   1.939 -0.1357  0.4376  0.0012
25126W        W41600  11.670  13.563  14.715  0.0505  0.1279  0.6798
25127W        W41601  16.164  11.012  13.284  0.2366 -0.3427  0.0288
25128W        W41602   4.969   7.088   0.524 -0.0559  0.1005  0.0951
25129W        W41603  14.296   0.679  13.029  0.0166  0.1534 -0.5220
25130W        W41604   4.052  12.943   5.025  0.1283  0.0679  0.1596
25131W        W41605   3.879   0.216   0.622  0.1577 -0.2114  0.1191
25132W        W41606   3.429  16.183  14.298  0.1866  0.1167  0.1704
25133W        W41607   5.357   4.330   3.403  0.3622  0.1693  0.2360
25134W        W41608   4.633   5.181   2.626  0.0290 -0.1541  0.1268
25135W        W41609   9.942   0.716   4.670 -0.0660  0.0920  0.1997
25136W        W41610  15.978   0.086   3.377 -0.0328  0.0553 -0.3480
25137W        W41611  11.739   5.787   2.628  0.0469 -0.0875  0.0576
25138W        W41612   9.378  12.487  13.326  0.3316  0.0825 -0.0074
25139W        W41613   1.141   0.803  13.127  0.2195  0.0925 -0.0106
25140W        W41614   4.898   6.269   3.082  0.2413  0.1405  0.3057
25141W        W41615  17.144  13.340  12.600 -0.0663 -0.1822 -0.1332
25142W        W41616   5.421  10.664  11.692 -0.1938  0.1204  0.0872
25143W        W41617   2.355  12.575   0.499 -0.0016 -0.0761  0.0543
25144W        W41618   4.595   0.766   2.158  0.0789 -0.3640 -0.0629
25145W        W41619   7.727   9.026  14.729 -0.0768 -0.4227 -0.0860
25146W        W41620   4.615   9.321  15.507 -0.0790  0.1576  0.2965
25147W        W41621   2.167  18.451  10.771 -0.0717  0.1771 -0.3252
25148W        W41622  13.851  18.687   0.123 -0.0482  0.4023 -0.2674
25149W        W41623  13.250  14.299  12.036  0.1574 -0.0497 -0.2530
25150W        W41624   7.254   9.555  13.930 -0.3691  0.0310 -0.2993
25151W        W41625   2.793  17.274   1.479  0.2729  0.2165 -0.3959
25152W        W41626  18.478  13.218   3.703  0.1858  0.0757  0.1617
25153W        W41627   8.127  13.207   4.047 -0.1683 -0.2488 -0.0799
25154W        W41628  15.849   4.326   4.610  0.2361 -0.0308  0.0663
25155W        W41629  18.437  18.362   3.906  0.1218  0.0168 -0.0992
25156W        W41630   8.512  14.399  11.953  0.0106 -0.1349 -0.1956
25157W        W41631  12.407   4.216   3.655 -0.1749  0.2318  0.0218
25158W        W41632   1.213  18.097  12.186  0.3490  0.1035  0.1081
25159W        W41633   2.864  12.541   3.378 -0.1794 -0.1433 -0.2103
25160W        W41634   1.238  12.709  10.337 -0.0293  0.1402 -0.1478
25161W        W41635   0.890  18.633   2.418  0.0997 -0.0762  0.1331
25162W        W41636   9.581  15.211   4.598 -0.2584  0.1835 -0.1756
25163W        W41637  14.246  12.398  13.560  0.3431  0.2876 -0.1730
25164W        W41638   7.552   3.656   1.028  0.2373  0.1754  0.1912
25165W        W41639  18.472   9.947  13.297 -0.0370  0.1718  0.1227
25166W        W41640   4.640   4.000  15.483  0.0322 -0.1561  0.2942
25167W        W41641  12.152  10.862  13.357 -0.0052 -0.0164 -0.0074
25168W        W41642   1.747  13.934   0.291 -0.0390  0.0461 -0.3143
25169W        W41643   0.260   3.736  15.321  0.1296 -0.1565  0.0167
25170W        W41644  13.090   4.453   4.341 -0.0387 -0.3032 -0.1528
25171W        W41645   3.968  16.102   3.808 -0.1030 -0.0926  0.0403
25172W        W41646   9.966   3.267   1.776  0.3370 -0.1755 -0.0501
25173W        W41647   5.778   4.961   0.829  0.2225  0.3900  0.0155
25174W        W41648   4.252  18.292   1.242  0.0557  0.0366  0.0179
25175W        W41649  17.849   1.106   4.695  0.0007  0.1494 -0.0432
25176W        W41650  18.563  10.301   3.679 -0.2888  0.2770 -0.1492
25177W        W41651  12.504   1.718   1.694  0.4819  0.0718 -0.2947
25178W        W41652   6.331  15.664   0.268 -0.2990  0.3255  0.0639
25179W        W41653   4.996  17.335  15.279 -0.0946  0.2736 -0.1026
25180W        W41654   6.194   7.817   3.219  0.3772 -0.0621 -0.2238
25181W        W41655  13.820  15.497   3.489  0.1844 -0.1158  0.0263
25182W        W41656  18.369  16.384  11.461 -0.3217  0.0302  0.1460
25183W        W41657   1.693  15.714   5.261 -0.3150  0.1673 -0.0393
25184W        W41658   9.497   1.746  13.470 -0.1241  0.1215  0.2976
25185W        W41659   7.017  16.301  15.445  0.2746  0.0791  0.1235
25186W        W41660   4.626  11.263   3.237  0.1040 -0.4272 -0.3184
25187W        W41661   7.312   3.488   4.735 -0.0667  0.0514 -0.0964
25188W        W41662  14.285   1.990   0.370  0.1036  0.2146  0.0298
25189W        W41663  14.675   1.858   5.310 -0.1237 -0.2491  0.0500
25190W        W41664   0.350  17.010   1.631 -0.1664  0.1986  0.0297
25191W        W41665  11.499  18.205  15.261  0.0967 -0.0137 -0.3236
25192W        W41666   0.313   9.315   9.996  0.0448  0.2029  0.0110
25193W        W41667  10.384   7.812   3.474 -0.3221  0.0237 -0.0504
25194W        W41668   0.641   7.783   9.761  0.2516 -0.1248  0.0359
25195W        W41669   0.817  12.187  14.582  0.2203  0.0256  0.1411
25196W        W41670  11.000   9.801   0.276 -0.1043  0.0880 -0.1891
25197W        W41671   3.000   9.805  10.877 -0.0376 -0.0231 -0.1688
25198W        W41672   7.334  10.694  12.838 -0.0765  0.0952  0.1943
25199W        W41673  10.300  13.169   3.733  0.4342  0.3856  0.1042
25200W        W41674   2.774  18.592   4.202  0.0169 -0.2393 -0.1128
25201W        W41675  18.255   5.646   1.864  0.2139 -0.3537  0.0324
25202W        W41676  16.302   4.481  13.011 -0.0324  0.0052 -0.1244
25203W        W41677   3.689   8.892  11.038 -0.2151  0.1608 -0.0542
25204W        W41678   6.505  14.066  14.909  0.2736 -0.0674  0.1925
25205W        W41679  16.304  16.886  14.112  0.0464 -0.1029 -0.2375
25206W        W41680  15.130  13.030  14.189 -0.2580 -0.0335  0.1326
25207W        W41681  10.524  16.497   5.600 -0.1751  0.1485 -0.0531
25208W        W41682  14.157  14.269   3.996  0.3326 -0.0366  0.0146
25209W        W41683   1.742   2.598  11.545  0.0585 -0.2510 -0.1208
25210W        W41684  18.332  14.844  13.700 -0.1787 -0.0195  0.1073
25211W        W41685   6.129  16.877   9.804  0.1433  0.4069 -0.0959
25212W        W41686  12.108  16.980   2.833 -0.1417  0.0824  0.0289
25213W        W41687  16.160   3.785   4.458 -0.4311  0.2471  0.0833
25214W        W41688   5.986  18.127   0.654 -0.1054  0.0348  0.1916
25215W        W41689  15.005  10.317  12.137  0.1642 -0.0606 -0.1467
25216W        W41690   8.349  10.070  12.816  0.0456  0.1748  0.1493
25217W        W41691   5.346  15.221  12.876 -0.1664 -0.3086  0.0423
25218W        W41692   2.915   2.450   1.296 -0.1711 -0.1101 -0.0293
25219W        W41693   6.182  14.355  15.102 -0.1258 -0.2506 -0.1536
25220W        W41694   3.277   1.969   3.123 -0.4204 -0.0196  0.0549
25221W        W41695   8.150  10.217   3.763  0.1776 -0.1083 -0.1203
25222W        W41696  14.687  14.131   5.183 -0.1270  0.1139  0.2969
25223W        W41697   7.807  12.138  13.009 -0.1144 -0.1676  0.2614
25224W        W41698   2.337   5.973   2.890 -0.0346  0.1640  0.2309
25225W        W41699   9.022   8.321   0.869  0.0373 -0.0393  0.0629
25226W        W41700  16.204   0.545  10.999 -0.3200 -0.1117  0.0943
25227W        W41701   5.303   6.347  10.133  0.1866 -0.2208 -0.1893
25228W        W41702  17.319  11.454   3.549  0.0397  0.2512  0.1542
25229W        W41703   6.989  17.950   5.303 -0.1052 -0.1350  0.1078
25230W        W41704  11.659  18.315   0.289  0.1224 -0.4242  0.0320
25231W        W41705   2.375   2.845   3.065 -0.0335  0.0797 -0.3273
25232W        W41706  10.693   1.409   2.595  0.0487 -0.2813 -0.1658
25233W        W41707  13.895   9.870  13.111 -0.2119  0.1683 -0.2080
25234W        W41708   4.427   1.852  10.416 -0.1567  0.2494  0.0791
25235W        W41709  12.738   6.823  11.812 -0.2711  0.1557 -0.1627
25236W        W41710   0.037  13.626  10.905 -0.2033 -0.0731 -0.0080
25237W        W41711   4.737  16.738  14.042  0.2423  0.1957  0.1548
25238W        W41712  16.144  18.020   0.192 -0.0457 -0.1563  0.1516
25239W        W41713  10.427   2.743  14.983 -0.0004 -0.2334 -0.1071
25240W        W41714  12.349   4.918   2.573  0.1197  0.1391  0.3375
25241W        W41715  17.368  10.967   4.786 -0.3263 -0.0444  0.1113
25242W        W41716  17.578  10.304  11.220  0.1808 -0.1925  0.0472
25243W        W41717  12.765  17.499  10.906  0.0628  0.1392  0.1811
25244W        W41718   6.283   6.305  12.494 -0.2794  0.1400 -0.1688
25245W        W41719   8.323  11.748   2.280  0.1838  0.0818 -0.3514
25246W        W41720  11.951  14.732   5.669  0.3800 -0.3069  0.0006
25247W        W41721   8.707   2.434   1.420 -0.2272  0.0567  0.0820
25248W        W41722   8.148  10.338   4.970  0.1050 -0.0129  0.1340
25249W        W41723  17.855  10.745  11.461  0.3766  0.0263  0.0633
25250W        W41724  16.179  12.352  14.806 -0.0264  0.1397 -0.2312
25251W        W41725   0.105   2.920   0.623 -0.0431  0.1316  0.3028
25252W        W41726   6.277   1.591   4.796  0.1896  0.2763 -0.3115
25253W        W41727  14.052   4.991   2.814 -0.1397 -0.0670  0.0685
25254W        W41728  13.851  12.975  12.040 -0.0081 -0.0675 -0.0186
25255W        W41729  10.168   5.274   3.523 -0.0897 -0.2460 -0.0372
25256W        W41730   0.339  13.887   1.065  0.1063 -0.0449 -0.0246
25257W        W41731   0.239   2.785  14.181 -0.0936  0.0229  0.0867
25258W        W41732  17.030  16.444  13.459 -0.1527  0.1185 -0.1965
25259W        W41733  13.545   5.147  14.180 -0.1667 -0.2215  0.0155
25260W        W41734   8.947  16.746  12.971 -0.2123  0.1939 -0.0918
25261W        W41735   9.689   1.317  12.599 -0.2478 -0.2120 -0.1425
25262W        W41736  14.068  16.964   4.244  0.0258 -0.2154  0.1190
25263W        W41737   8.423  14.950   5.641 -0.0150 -0.2347  0.1449
25264W        W41738   9.016  14.338   4.244  0.0981  0.1905 -0.0632
25265W        W41739   5.846   6.064  14.481 -0.1843  0.0861 -0.0926
25266W        W41740   6.452  15.015   2.968 -0.1642 -0.0452  0.3779
25267W        W41741  18.740  18.608  13.381  0.1454  0.1398  0.0989
25268W        W41742  16.179  11.807  12.564  0.0752  0.2223  0.0685
25269W        W41743   7.889   6.680   0.943 -0.0442 -0.1251  0.3227
25270W        W41744   1.770  15.011  11.614  0.4182  0.0683 -0.2238
25271W        W41745   2.526  16.619  10.850  0.2639 -0.0564  0.0226
25272W        W41746   5.411  15.579  11.471  0.3849  0.0940 -0.1443
25273W        W41747  16.329  17.262  13.101  0.0823 -0.0930 -0.0331
25274W        W41748  10.017   4.143  12.320  0.0382 -0.0211 -0.0441
25275W        W41749   2.848   3.332   2.207  0.0988  0.2685 -0.0108
25276W        W41750   1.810   7.629  13.311  0.0513  0.0602  0.1541
25277W        W41751   4.535  10.575   0.102  0.2262  0.1045  0.1251
25278W        W41752   0.174  16.455  12.064  0.0808  0.0317  0.1952
25279W        W41753   1.379  18.552   2.239  0.2587 -0.1016 -0.0421
25280W        W41754  14.766  14.141  11.970  0.1353  0.1325 -0.2210
25281W        W41755  13.417   9.330  15.505 -0.0271  0.0967 -0.0234
25282W        W41756   8.818   1.635  12.265 -0.2683  0.0982  0.0420
25283W        W41757   7.611   2.093   1.030 -0.0290 -0.0979 -0.1189
25284W        W41758   6.046  17.901   3.065 -0.2341  0.0270 -0.3555
25285W        W41759   2.438  11.102   0.615 -0.2237 -0.2603  0.2835
25286W        W41760  12.831   7.668  14.934  0.2123 -0.0644 -0.1191
25287W        W41761  11.685   7.912  11.362  0.1970 -0.0249 -0.1096
25288W        W41762   6.021  14.675   4.675  0.1367 -0.2273  0.1849
25289W        W41763   3.772   3.903  15.047  0.1850 -0.0757 -0.2488
25290W        W41764   0.954   9.824   5.017 -0.0450 -0.3269  0.1720
25291W        W41765   8.610   8.757  13.304 -0.1482 -0.0454 -0.0174
25292W        W41766  11.953  10.155  11.601 -0.0153 -0.1348  0.0364
25293W        W41767   4.434  17.633  13.232  0.2031  0.1877 -0.0261
25294W        W41768   6.023   4.272  10.605 -0.1031 -0.1151 -0.3117
25295W        W41769   3.090   8.434  15.456 -0.0275 -0.2369 -0.2508
25296W        W41770  13.752  10.435   2.506 -0.0740 -0.5110 -0.2740
25297W        W41771   8.212  17.216   2.578 -0.1592  0.0857  0.1140
25298W        W41772  17.755   5.793  14.855  0.0752  0.0234  0.0032
25299W        W41773   4.153   0.369   4.901 -0.4085 -0.0017  0.0021
25300W        W41774   5.617   1.088  11.425  0.0673  0.0506  0.0949
25301W        W41775   3.117   9.457   3.904 -0.3542  0.1560  0.2653
25302W        W41776  12.842  14.747  15.077  0.2301 -0.1934 -0.0461
25303W        W41777  15.796  18.379  13.162  0.0996  0.1006  0.0236
25304W        W41778  11.114   2.764  13.327 -0.1469 -0.1067 -0.1372
25305W        W41779   5.049   9.796  13.062  0.1446 -0.1705  0.1310
25306W        W41780   4.251   8.973  11.992  0.4777  0.0535 -0.0265
25307W        W41781   5.795  18.689   0.036  0.0007  0.1585  0.0769
25308W        W41782   7.520  16.664  14.917 -0.2085  0.0509  0.0915
25309W        W41783   7.575  15.223  12.031 -0.0793  0.0624  0.0070
25310W        W41784  16.822   5.940   3.722 -0.3211 -0.0716 -0.0361
25311W        W41785   5.731  16.314  10.916 -0.1744 -0.0643 -0.2769
25312W        W41786  15.560  16.740  12.229 -0.0409 -0.0870 -0.0411
25313W        W41787  15.297   8.755  13.399 -0.0824  0.3002  0.0293
25314W        W41788   6.209   2.065   4.604  0.0120 -0.2200 -0.0127
25315W        W41789  16.706   3.692  11.382  0.0015 -0.0557 -0.0975
25316W        W41790   7.301   6.889  12.751 -0.1544 -0.4174  0.2710
25317W        W41791   9.080   8.752  10.532  0.0080  0.2343  0.0933
25318W        W41792  17.000   6.032   2.096  0.0403  0.0428 -0.0761
25319W        W41793   5.289   7.647  11.261 -0.0247  0.0410  0.2133
25320W        W41794   9.786  16.704  14.367  0.0603  0.1026  0.3028
25321W        W41795  18.042   2.947  11.177  0.2275  0.2604  0.3113
25322W        W41796   1.801  16.294  11.186 -0.1280 -0.0254  0.0661
25323W        W41797   4.732  18.421  14.860 -0.2419 -0.0913 -0.1599
25324W        W41798  16.526   0.533   2.626  0.0560 -0.0014  0.1531
25325W        W41799   9.906   1.414  13.442 -0.0073  0.2925  0.3292
25326W        W41800  17.929  12.890  14.866  0.1253  0.3517 -0.1469
25327W        W41801   8.081   8.264   1.664  0.1742 -0.4960  0.0888
25328W        W41802  15.940   1.020  12.444 -0.0991  0.1444  0.3544
25329W        W41803   5.308   9.742  10.403  0.1754  0.3958  0.1709
25330W        W41804   6.536   9.823   4.136 -0.1639 -0.0808  0.0500
25331W        W41805  13.810  10.338  10.125 -0.3726  0.0100  0.3251
25332W        W41806  10.696   1.457   4.605  0.0307 -0.1974 -0.0807
25333W        W41807   5.770  10.273  13.272  0.1986  0.0324  0.0470
25334W        W41808   1.126   5.869   3.189  0.1994  0.0068  0.2083
25335W        W41809  14.876   4.466  15.161 -0.2037  0.0793 -0.2945
25336W        W41810   6.389  10.216   1.095 -0.1699  0.1139  0.0358
25337W        W41811  18.377  18.383  13.083  0.0008  0.0611  0.1220
25338W        W41812  12.136   3.269  11.685  0.2697  0.0252 -0.1329
25339W        W41813  14.226  17.204   4.696 -0.1865  0.2529 -0.0111
25340W        W41814  10.393   7.008   5.102 -0.1799  0.1501  0.2990
25341W        W41815   9.925   5.948   2.937 -0.0095  0.0362  0.3762
25342W        W41816   7.036   1.721   2.914  0.0612  0.3135  0.3918
25343W        W41817  15.690   2.164  12.611 -0.0152 -0.3330 -0.0877
25344W        W41818  18.388   3.273  13.107 -0.0477 -0.2046  0.4665
25345W        W41819   3.611  16.999  12.020 -0.1468  0.4108  0.1145
25346W        W41820  12.290  14.250   2.060  0.0852  0.3866 -0.0082
25347W        W41821   5.988   7.446  10.732 -0.1555  0.3283 -0.1431
25348W        W41822   5.296  13.556  11.219  0.1281  0.2630  0.0143
25349W        W41823   0.628   7.598   3.046  0.2377 -0.0637  0.0067
25350W        W41824   4.449   2.222   3.294  0.0248 -0.2162  0.0584
25351W        W41825  13.147  16.451   1.186 -0.0070 -0.2908 -0.0789
25352W        W41826   2.949   7.015  11.814  0.1397  0.3487 -0.2419
25353W        W41827   4.391   8.246   3.597  0.0046  0.0476 -0.0453
25354W        W41828   5.787  12.311  12.578  0.1921  0.0163  0.0363
25355W        W41829  11.940  15.254   2.421  0.1879  0.0940  0.0551
25356W        W41830  13.041  10.474   3.807  0.1296  0.0817 -0.2162
25357W        W41831   2.990   5.419   9.848  0.0200 -0.0106  0.0910
25358W        W41832   3.466  13.207   0.796  0.1363 -0.1246 -0.1605
25359W        W41833   6.411   6.622  13.062 -0.2685 -0.3999 -0.1887
25360W        W41834   3.799  16.543  11.908  0.0048 -0.1224  0.1256
25361W        W41835  10.326  15.405  14.061 -0.0638  0.2232 -0.0283
25362W        W41836   3.635   7.822   1.131  0.0024  0.4489 -0.0095
25363W        W41837   1.136   8.444  10.852  0.0155 -0.1362  0.1147
25364W        W41838  17.155  14.796   1.666 -0.1633  0.1161  0.1169
25365W        W41839   8.126  17.267   3.221 -0.2235  0.0288 -0.1452
25366W        W41840   5.627  14.514   0.448 -0.0376  0.0627 -0.0388
25367W        W41841  11.944   6.060   2.220  0.0905  0.0207  0.2216
25368W        W41842   8.242   7.319   4.992 -0.0394 -0.1425 -0.0932
25369W        W41843  11.220   3.106  10.902  0.2758 -0.0139 -0.0727
25370W        W41844   9.349   3.816   2.236 -0.1000  0.2885  0.2040
25371W        W41845   1.587  17.222  14.043 -0.2162 -0.0280  0.0749
25372W        W41846   2.622   1.600   3.950 -0.0492  0.3069 -0.1110
25373W        W41847   5.697  15.574  11.961  0.0141  0.0136  0.3299
25374W        W41848   7.201  13.095   1.113  0.3053  0.1241 -0.1111
25375W        W41849  14.075  15.059  14.760  0.1065  0.1350  0.0100
25376W        W41850  12.556   8.279  10.958  0.0161 -0.1228 -0.1268
25377W        W41851   0.140   8.788   4.461 -0.1877  0.1980  0.1623
25378W        W41852  10.216   8.167   3.156 -0.0619 -0.2204 -0.0464
25379W        W41853   1.381   0.600   3.955  0.0017 -0.0911 -0.6108
25380W        W41854   1.867   1.759   1.856 -0.2927  0.1899 -0.1963
25381W        W41855   7.039  16.839   0.303 -0.1459  0.3112  0.2676
25382W        W41856  15.638   6.389  10.988 -0.2812  0.1098 -0.0442
25383W        W41857  18.615  13.235   3.113 -0.2164 -0.0160 -0.3829
25384W        W41858  13.958   2.861   1.579 -0.0071 -0.3858  0.2357
25385W        W41859   0.955   1.194  14.327  0.3562  0.1690  0.1354
25386W        W41860  10.826   0.404   4.809 -0.0431  0.1732 -0.0567
25387W        W41861   8.585  11.749   4.916  0.0694  0.0756  0.1709
25388W        W41862   9.784  13.343  11.697  0.1831 -0.3012 -0.1982
25389W        W41863   8.659  15.920  15.002  0.2224  0.0414 -0.2576
25390W        W41864  17.027  18.219  12.460  0.2721  0.1731 -0.0553
25391W        W41865   5.054  13.352   1.519 -0.1526  0.1603 -0.0678
25392W        W41866   2.729  14.937   4.066  0.1365  0.3622 -0.0590
25393W        W41867   4.392   2.884   5.590  0.3722 -0.1483  0.1806
25394W        W41868   5.321   4.918  12.951 -0.2365  0.3607 -0.0808
25395W        W41869   6.069  12.958   3.670  0.2259 -0.1848 -0.1174
25396W        W41870   6.323  10.126   4.798 -0.1467 -0.3168  0.0202
25397W        W41871  13.146  17.802   5.221 -0.0721  0.0059 -0.1891
25398W        W41872  11.578  17.956   3.401 -0.1252 -0.0996  0.3032
25399W        W41873   7.053  18.493  11.094 -0.1605 -0.1621 -0.0335
25400W        W41874  16.484   6.915  11.804  0.0215  0.0191 -0.1841
25401W        W41875  10.786   9.880   1.559 -0.1987 -0.1187  0.1029
25402W        W41876   6.127   3.119  14.387 -0.0210  0.1188  0.1549
25403W        W41877   1.846  12.056  10.964  0.0867  0.0979 -0.1277
25404W        W41878  15.974   1.791   2.568  0.1825 -0.2521  0.1050
25405W        W41879  10.554  18.068  11.250 -0.0505 -0.1352 -0.0653
25406W        W41880  12.656  16.612  15.335  0.1392 -0.0965 -0.0466
25407W        W41881  14.956   5.800   0.999  0.0072 -0.0552 -0.2183
25408W        W41882  17.714   4.746   5.018 -0.1768 -0.1035  0.1731
25409W        W41883   2.992   7.901  14.219 -0.1579  0.0871  0.0483
25410W        W41884  11.443   0.397   5.378  0.0965  0.1284 -0.0362
25411W        W41885   9.234  11.849  11.476 -0.0855  0.0112 -0.0212
25412W        W41886  13.077   2.176   1.675 -0.0273 -0.0877 -0.0660
25413W        W41887   3.716   1.691   3.965 -0.1630 -0.1648  0.3732
25414W        W41888   0.602  14.143   3.746  0.0447 -0.0918  0.0173
25415W        W41889   7.669  15.955   3.452  0.0754  0.0019  0.0694
25416W        W41890   7.445  12.732  12.166 -0.2325  0.4243  0.2087
25417W        W41891   1.088  11.360  15.157 -0.0442  0.1668  0.0610
25418W        W41892  13.762  17.854  15.419 -0.1490 -0.0756  0.1669
25419W        W41893   4.959   6.800  10.916  0.1407  0.1700  0.1820
25420W        W41894  16.110   0.978  15.462  0.0012 -0.0938 -0.3746
25421W        W41895  16.882   4.757  14.264 -0.0665 -0.2580 -0.2265
25422W        W41896  15.968   2.481  11.785 -0.0664  0.2366 -0.1893
25423W        W41897   8.875   5.444   3.477  0.2078 -0.1352 -0.0309
25424W        W41898  15.361  18.675   2.836 -0.4541  0.1669 -0.0882
25425W        W41899  15.204  16.218  13.868  0.1769  0.0273 -0.6859
25426W        W41900  17.049  11.127  14.339 -0.0358  0.2466 -0.0892
25427W        W41901  11.076  12.834   0.363 -0.0388  0.1262  0.0667
25428W        W41902  13.485  10.358  13.920  0.1052 -0.0459 -0.2105
25429W        W41903   1.732   9.834  14.415 -0.0309  0.1865  0.1862
25430W        W41904   3.426   6.143  11.506  0.0905  0.2409 -0.0665
25431W        W41905  15.806   8.992   2.469  0.1740  0.0724 -0.0102
25432W        W41906   5.194  12.490   3.263 -0.0201  0.2277 -0.3041
25433W        W41907   5.883   5.357   4.340  0.2381  0.1506 -0.1619
25434W        W41908  14.239   5.344   2.386 -0.0465  0.0773 -0.2092
25435W        W41909   7.932   4.792   3.318  0.1976 -0.2407  0.0370
25436W        W41910  11.469   9.337   3.964 -0.1611 -0.0274  0.0437
25437W        W41911   4.220   9.795  13.126 -0.1110  0.0492 -0.3403
25438W        W41912  11.816   9.703   3.111 -0.0051  0.0571  0.0837
25439W        W41913  12.577   5.528   4.642 -0.1152  0.0436  0.2572
25440W        W41914  16.270  17.024   6.219 -0.1133 -0.1300  0.0950
25441W        W41915  10.507  10.792   3.343 -0.0853 -0.1035  0.2748
25442W        W41916   7.323   1.080  15.372 -0.1696 -0.0123 -0.2424
25443W        W41917  18.694  18.648   2.505 -0.0678 -0.0691 -0.1578
25444W        W41918   0.681   9.443   1.988 -0.0832  0.2540  0.2673
25445W        W41919   5.902   1.007  15.330 -0.1547  0.2264  0.3068
25446W        W41920   6.499  11.374  13.836  0.1123 -0.1575  0.0775
25447W        W41921  16.776   9.155   1.602 -0.1803  0.2565  0.1114
25448W        W41922  16.675   8.926   2.062  0.2242 -0.1460 -0.1820
25449W        W41923   0.940   9.237   0.383 -0.2333 -0.1279 -0.2940
25450W        W41924   5.482  17.331   0.370 -0.1073  0.0407 -0.1943
25451W        W41925  10.581  10.636  12.160  0.0637 -0.0935  0.0382
25452W        W41926   0.697   1.895   2.405  0.1923 -0.1428 -0.0429
25453W        W41927  16.058  10.280   1.366 -0.2304  0.1273 -0.1426
25454W        W41928  15.541   8.750   4.096 -0.1305 -0.3251 -0.0118
25455W        W41929   0.672   5.669   3.279 -0.0826  0.1150  0.0032
25456W        W41930  11.415  12.798   5.634  0.0777 -0.0733  0.1292
25457W        W41931   9.869   2.624  11.615  0.1813  0.0044  0.1802
25458W        W41932  14.165  11.778  15.238 -0.0762  0.0140 -0.1296
25459W        W41933  10.494   8.421   5.361 -0.0154 -0.1612  0.0764
25460W        W41934   8.244  15.664   1.464  0.0939  0.1294 -0.1476
25461W        W41935   0.519   1.177  12.254 -0.2386 -0.0114 -0.0985
25462W        W41936   2.431   4.718   2.569  0.3501 -0.0303  0.1701
25463W        W41937  18.446  12.671  12.506  0.0556 -0.0712  0.1986
25464W        W41938   3.972  16.675  12.372  0.4589 -0.1067  0.0812
25465W        W41939   6.686   3.358   1.457  0.1004 -0.2659 -0.1518
25466W        W41940   6.552  12.233   4.118  0.0225  0.2744 -0.1668
25467W        W41941  12.524  13.419   5.187  0.1420 -0.0245  0.0250
25468W        W41942   1.185  10.829   2.265 -0.0764 -0.3700 -0.0079
25469W        W41943  17.295   0.382  14.131  0.1190 -0.0755 -0.4629
25470W        W41944   9.859  17.865   0.774 -0.1827  0.2264  0.1976
25471W        W41945   1.409  10.039   5.154  0.1773  0.0526  0.0048
25472W        W41946   0.416  12.129   0.548  0.1828 -0.0502  0.0486
25473W        W41947  17.704   4.428  14.645 -0.1595 -0.1756  0.0405
25474W        W41948  11.462  14.469   1.244 -0.3008  0.1461 -0.0077
25475W        W41949  16.481  12.118   1.238  0.1514  0.2897  0.2139
25476W        W41950   0.151  13.730   4.419 -0.1645  0.3129 -0.0584
25477W        W41951  17.026   1.196  15.253  0.3385  0.1497 -0.2811
25478W        W41952   5.295  13.191  13.632 -0.1544  0.3240 -0.0823
25479W        W41953   5.769  16.682   5.158  0.5306  0.3064 -0.2251
25480W        W41954  16.149   3.543   1.271 -0.1120  0.3763  0.2109
25481W        W41955  15.022  12.311  11.897 -0.2202 -0.0210 -0.0527
25482W        W41956   4.261   1.525   2.550 -0.1470 -0.1057  0.2979
25483W        W41957   4.753   4.047  14.930  0.0245 -0.0899 -0.1434
25484W        W41958   2.242   4.245   3.426 -0.2022 -0.2103  0.0598
25485W        W41959  14.976   8.605   3.303  0.0901  0.0664  0.0010
25486W        W41960  10.422  12.383  14.267  0.1193 -0.5616 -0.0248
25487W        W41961  13.410   2.388   1.119  0.3500  0.0414  0.1647
25488W        W41962   2.706  11.842  13.712  0.0999  0.1107 -0.2330
25489W        W41963  16.591   8.014  12.625 -0.0713  0.1833 -0.2708
25490W        W41964  13.832  16.785   2.390  0.0279  0.1283  0.0015
25491W        W41965   5.267   1.661  10.817  0.2189  0.3197  0.4580
25492W        W41966  10.636   5.230  15.112  0.0513  0.0184  0.0528
25493W        W41967  14.988  11.803  14.807  0.3943  0.3667  0.1439
25494W        W41968   2.417  15.915   0.981 -0.3464  0.1075  0.2353
25495W        W41969   9.696   7.314   3.415  0.0788 -0.5546 -0.0617
25496W        W41970   3.040  13.512  12.267  0.2527  0.1430  0.0694
25497W        W41971  17.510   4.244  13.069 -0.0864  0.0200  0.3988
25498W        W41972  16.044   4.361   3.185 -0.2582  0.1955 -0.0791
25499W        W41973   2.091   1.578   1.197  0.1918 -0.2411 -0.2048
25500W        W41974  18.278   9.960   6.192  0.2451  0.0881 -0.2736
25501W        W41975   5.863   3.106  14.808  0.0065 -0.1032 -0.0502
25502W        W41976  16.193   7.322   5.213  0.0239  0.1164 -0.0324
25503W        W41977   1.304   1.027  14.666 -0.1827  0.0612 -0.2267
25504W        W41978  13.437  15.701   3.229 -0.0604 -0.1972  0.1822
25505W        W41979   7.116   3.394  11.016  0.2044  0.1740 -0.1228
25506W        W41980  17.804  17.199   3.619 -0.3475  0.3137  0.3980
25507W        W41981  14.338  17.904  14.552  0.0986 -0.1498  0.0853
25508W        W41982  17.003   2.575  12.643 -0.4681  0.1949 -0.3176
25509W        W41983   4.444   1.528   1.599 -0.0288  0.0658 -0.1708
25510W        W41984  17.442  12.110   0.545  0.0495  0.2414  0.0149
25511W        W41985  16.540   3.708  12.102  0.2643  0.0133  0.1814
25512W        W41986  16.113  15.379   6.490 -0.0086 -0.0823 -0.0374
25513W        W41987  17.645   9.127   2.161  0.1230 -0.0402 -0.1083
25514W        W41988  18.518  15.489  13.049  0.0343  0.0780 -0.0421
25515W        W41989   4.374  16.233  11.406  0.0256 -0.0162  0.1376
25516W        W41990   0.245   0.112  14.954  0.0144  0.4155  0.0594
25517W        W41991  12.558  12.506   1.823 -0.2028  0.1510  0.0708
25518W        W41992   6.464   2.647   2.398 -0.2028  0.0671  0.3417
25519W        W41993   3.485  11.046  12.861  0.1575  0.0633  0.0246
25520W        W41994   4.722  15.640  11.996  0.1846  0.0911 -0.3158
25521W        W41995   3.273  17.965  15.192  0.0552  0.2665  0.1098
25522W        W41996   9.545  15.560   2.728  0.0227 -0.0673 -0.1153
25523W        W41997   6.730  12.614  13.708 -0.0964 -0.2291 -0.1033
25524W        W41998   2.926   1.956   1.070 -0.0995 -0.1446  0.0115
25525W        W41999   5.725   4.715  12.664 -0.2905 -0.0022  0.0091
25526W        W42000  12.097   6.405   4.009  0.0220  0.0527  0.1000
25527W        W42001  17.619   1.671   2.971  0.0902  0.0504 -0.1002
25528W        W42002  11.014   0.701   2.872 -0.0444  0.3336 -0.4575
25529W        W42003  10.717   9.369   0.402  0.0279 -0.1420  0.1072
25530W        W42004   5.454   7.729   0.542 -0.3086 -0.0400 -0.0586
25531W        W42005  12.130  10.581   2.748 -0.3613 -0.1708 -0.1954
25532W        W42006   0.232   7.058  15.430  0.0671 -0.2396 -0.0576
25533W        W42007  14.666  16.294   5.631  0.0493 -0.0327  0.3056
25534W        W42008  16.035   1.195   0.779 -0.3567 -0.3012 -0.3164
25535W        W42009   8.167  13.423  13.230  0.2532  0.5034 -0.1033
25536W        W42010   8.101  17.372   4.744 -0.0051  0.0187 -0.1472
25537W        W42011  13.979   5.574   0.481  0.1558  0.1217  0.0951
25538W        W42012   6.335  17.885   0.965  0.3146  0.0841  0.1246
25539W        W42013   1.868  14.549  11.807  0.0248  0.0765  0.1269
25540W        W42014   2.532   4.712  15.465 -0.3568 -0.1619 -0.1442
25541W        W42015   5.601  13.383   9.681  0.2305 -0.0350  0.1942
25542W        W42016  14.674  18.029   2.183  0.1078 -0.2474 -0.0069
25543W        W42017   5.145   2.323  10.171  0.1851  0.1120  0.1759
25544W        W42018   8.241  15.831  15.262  0.1975 -0.0771 -0.4091
25545W        W42019   0.076  12.835   1.815  0.0703  0.0146  0.1891
25546W        W42020  11.289  10.510   3.008  0.0825 -0.0292 -0.0478
25547W        W42021  17.559  17.845   4.828 -0.1183 -0.0327  0.0854
25548W        W42022   6.437   9.108   1.899  0.2320  0.2903  0.0839
25549W        W42023  13.750   0.447   3.938  0.1631 -0.2187  0.1704
25550W        W42024  10.264   7.369  15.105  0.2580  0.0431 -0.0895
25551W        W42025   1.353   8.438   1.817 -0.0034 -0.2521  0.0004
25552W        W42026   4.200  14.643   4.390 -0.0564  0.1602  0.0605
25553W        W42027  11.797   4.438  15.473 -0.3369 -0.1533 -0.0364
25554W        W42028  12.590  10.272  13.595  0.0658  0.1428 -0.2114
25555W        W42029   4.337   1.082   0.370  0.0193  0.0461 -0.0774
25556W        W42030  10.445   1.475  15.312  0.4974 -0.1114  0.1935
25557W        W42031  17.137  12.385   3.171  0.0141  0.1093 -0.4865
25558W        W42032   9.794   3.015  13.883 -0.1530  0.1137  0.0935
25559W        W42033  15.345   4.490   1.047  0.0464 -0.1841 -0.3646
25560W        W42034   0.006  14.073   3.112 -0.3367  0.0645 -0.1863
25561W        W42035   2.812   7.488   4.717 -0.0100  0.2075 -0.3580
25562W        W42036  15.515  11.509  14.175 -0.0751  0.2684  0.1160
25563W        W42037   4.670  17.898   3.124  0.3387 -0.3530  0.3582
25564W        W42038  11.130   7.336   1.098  0.1445 -0.1731  0.1254
25565W        W42039   9.303   0.553  14.899 -0.3092 -0.0606 -0.2328
25566W        W42040  10.362  18.080   0.770 -0.1919 -0.0688 -0.0100
25567W        W42041  11.183   0.567   0.949  0.0344 -0.0282 -0.0654
25568W        W42042   9.931   9.204  11.879 -0.1643  0.0297  0.1868
25569W        W42043  15.633   0.853   2.918  0.3569 -0.0799  0.0203
25570W        W42044   3.865  17.391   3.554  0.0426 -0.1111 -0.1016
25571W        W42045   6.576   0.732  11.150 -0.0375  0.0145  0.2456
25572W        W42046  13.891   9.241   6.216 -0.0027 -0.1835  0.1504
25573W        W42047  11.177  11.192  13.600  0.3640 -0.1857 -0.0468
25574W        W42048   7.388  12.389  11.442 -0.3045 -0.1329  0.3222
25575W        W42049  16.722   5.543   2.780  0.0117  0.1159  0.1729
25576W        W42050  16.602  15.647   5.665  0.0427 -0.4582 -0.0002
25577W        W42051   6.214  18.632   4.455  0.1999 -0.0304 -0.0103
25578W        W42052   8.377   0.433   4.753 -0.1814  0.0825  0.1271
25579W        W42053  11.399  13.860  15.076 -0.0597  0.2303  0.2282
25580W        W42054   3.337  11.461   2.013  0.0637  0.1420  0.1102
25581W        W42055   8.293  12.822   1.215  0.1269 -0.1662  0.1004
25582W        W42056   4.467   1.998   4.326  0.1140 -0.0868 -0.1654
25583W        W42057   5.604  10.060   1.688  0.0887  0.1906 -0.1824
25584W        W42058   5.843   6.888   3.422  0.3376  0.0682  0.0224
25585W        W42059   1.451   5.260   0.308  0.0587 -0.1935  0.0779
25586W        W42060   8.919   9.411  14.153  0.0371  0.1836  0.1403
25587W        W42061  12.411  11.960  11.906 -0.2405 -0.1036 -0.1467
25588W        W42062  15.481   5.548  11.664 -0.1091 -0.2499 -0.1011
25589W        W42063   7.443   5.143   1.703 -0.1200  0.2664 -0.0854
25590W        W42064   2.082   1.506  12.478  0.0552  0.2005  0.3501
25591W        W42065   8.640  11.644   2.775 -0.1592  0.1639 -0.2491
25592W        W42066   4.500  12.767   0.990 -0.2886 -0.1291 -0.1272
25593W        W42067  17.599  15.881  11.255 -0.0531  0.4285 -0.4150
25594W        W42068  14.102  13.234  12.397  0.1686 -0.0775  0.0226
25595W        W42069  13.794   9.603  14.116  0.0334 -0.0627 -0.0160
25596W        W42070  13.796   8.912  13.336  0.0437  0.2356  0.1886
25597W        W42071   0.919   9.917   2.012 -0.2639 -0.2851 -0.0531
25598W        W42072   9.781  11.027   0.234 -0.0831  0.0576  0.0839
25599W        W42073  17.253   9.443   1.904 -0.1276 -0.3244 -0.0099
25600W        W42074  17.092  12.410   1.820  0.1193 -0.3345 -0.1476
25601W        W42075  12.061   8.493   5.318 -0.3085 -0.1437  0.1407
25602W        W42076  13.653  17.190  11.370 -0.0853 -0.0071 -0.3640
25603W        W42077  17.621  10.076   1.909  0.3801 -0.0232  0.1860
25604W        W42078   5.115   0.673  12.212  0.1301 -0.0624 -0.1388
25605W        W42079  12.778  15.835  14.465  0.0230 -0.2670 -0.3401
25606W        W42080  10.243  10.566  11.738 -0.2052  0.1465  0.1287
25607W        W42081  16.740   9.163  11.989  0.5127  0.0035  0.0221
25608W        W42082  12.342  13.196  12.679  0.2120 -0.1053 -0.3560
25609W        W42083  12.408   1.291   2.591  0.0643 -0.0177  0.1069
25610W        W42084   1.289  14.772   3.554 -0.0540  0.2646 -0.0166
25611W        W42085   0.396  17.532   2.407  0.0385  0.0288  0.4564
25612W        W42086  10.509   1.098   1.754  0.0525  0.3417  0.4663
25613W        W42087   7.157   7.554   3.342  0.0043 -0.1673 -0.1195
25614W        W42088   0.560  18.130   3.789  0.0276  0.0044 -0.0059
25615W        W42089   3.486   2.754   2.574  0.1538  0.3283  0.0667
25616W        W42090   6.758   8.241   0.668 -0.3065 -0.0762  0.0430
25617W        W42091  14.715   7.731  13.756 -0.1247  0.1355  0.3191
25618W        W42092  14.723   7.176  11.682 -0.3365  0.1365  0.0737
25619W        W42093   5.337  13.753  14.416 -0.0704  0.1772  0.4541
25620W        W42094  15.425  12.495  12.821 -0.0889  0.0599  0.0237
25621W        W42095  16.732   4.467  11.813  0.1176  0.0685 -0.2829
25622W        W42096   7.625  16.601   0.963 -0.0303 -0.1111  0.0230
25623W        W42097  15.366   6.923   5.146 -0.1566  0.1002 -0.2570
25624W        W42098  11.435  12.345  11.253 -0.0857  0.2360 -0.0746
25625W        W42099  13.773   7.409   4.523  0.1345  0.1406  0.2444
25626W        W42100  10.089   2.132   2.900  0.0343 -0.2669  0.2032
25627W        W42101   4.407  18.403  14.064 -0.3964  0.1565  0.1963
25628W        W42102  10.107   2.841   2.076 -0.2499  0.0406 -0.0877
25629W        W42103   1.469   2.260  13.372 -0.0517 -0.3445 -0.0696
25630W        W42104  11.789   6.146  12.613 -0.1276 -0.0410 -0.2023
25631W        W42105   3.580  17.307  11.194 -0.1143 -0.1790  0.2130
25632W        W42106   6.826   7.231   2.858 -0.1051  0.1014  0.1973
25633W        W42107  10.839  17.118   4.985  0.1284 -0.1437  0.1138
25634W        W42108  17.532  16.781   1.290  0.3676  0.0178  0.1402
25635W        W42109  16.261  18.023   3.847 -0.0763  0.0007  0.2241
25636W        W42110  17.301   3.842   2.609 -0.1409 -0.1657  0.2036
25637W        W42111   1.646   8.129  14.154  0.2261  0.3445  0.0139
25638W        W42112   1.184  16.619   1.393  0.0875 -0.2640  0.0951
25639W        W42113  13.253   3.563   1.798  0.1490  0.0992 -0.3273
25640W        W42114  14.856   7.261   1.662  0.0554 -0.0582  0.1850
25641W        W42115   1.470  12.915  10.903  0.4656  0.0967 -0.1720
25642W        W42116  14.195   0.122   3.961  0.0387 -0.2526  0.2147
25643W        W42117  16.194   2.923   4.945  0.3116 -0.0514 -0.0019
25644W        W42118  17.254   6.047  12.086 -0.1225  0.1502 -0.1389
25645W        W42119  16.485  15.994   1.061  0.2159  0.0820 -0.3507
25646W        W42120  18.637  12.880   0.603 -0.2515  0.2373 -0.1488
25647W        W42121  11.682   2.662   0.047 -0.0756  0.1237  0.0748
25648W        W42122  16.198  14.950   5.658 -0.3675 -0.1906 -0.2179
25649W        W42123  15.155   3.258   4.924 -0.7473  0.0160  0.0599
25650W        W42124  17.060  14.662   2.534  0.2979  0.0612 -0.1909
25651W        W42125  15.053  16.255   1.723 -0.0467  0.2192  0.1696
25652W        W42126   2.339   8.239   0.670  0.1754 -0.0127 -0.0703
25653W        W42127   4.749  10.495   3.883  0.3435  0.0735  0.2790
25654W        W42128   9.846  15.605   3.219 -0.1500  0.0328  0.0401
25655W        W42129  12.739   5.282   2.505  0.2574  0.0381 -0.1205
25656W        W42130  10.032   8.135  12.651  0.1881  0.1980  0.0789
25657W        W42131  12.249   0.896   3.490 -0.1208 -0.2970 -0.2643
25658W        W42132   5.592   6.729   2.110 -0.2397 -0.0529  0.2579
25659W        W42133  18.650   9.983   3.305 -0.1772 -0.1084  0.2645
25660W        W42134  12.697  11.943   0.523  0.2354 -0.1446 -0.0710
25661W        W42135  10.903  17.936  13.219 -0.7447  0.1153  0.2007
25662W        W42136  16.959  17.294   3.778  0.0245 -0.1814  0.1883
25663W        W42137   3.795  15.044  10.789 -0.0888  0.3946  0.0564
25664W        W42138   7.373  16.424   1.362  0.1210  0.0908 -0.0156
25665W        W42139   6.819  14.334   4.850  0.1521  0.2263  0.2006
25666W        W42140   0.691   3.461  14.146  0.1282 -0.1880 -0.2695
25667W        W42141  16.889   3.727   2.880  0.0114  0.0795 -0.2136
25668W        W42142   1.692   3.532   0.600  0.2133 -0.0942 -0.0889
25669W        W42143   1.299  13.777  15.157 -0.2497 -0.2603  0.2043
25670W        W42144  12.243   7.962   5.384  0.1619 -0.1849  0.1302
25671W        W42145  17.919   8.943   2.599  0.0687 -0.0399 -0.2066
25672W        W42146  15.157   1.884  11.422 -0.1832  0.0715 -0.1841
25673W        W42147   3.296   8.825   5.740  0.0695  0.0508  0.3410
25674W        W42148  13.267  16.552  12.248  0.2269 -0.0870  0.0154
25675W        W42149   9.149  13.515   3.266  0.1987 -0.2741 -0.2125
25676W        W42150  11.637   9.617   0.547  0.2862 -0.0579  0.4791
25677W        W42151   8.489   5.657  13.107  0.0225  0.1375 -0.0807
25678W        W42152   7.913   7.747   5.919  0.2249 -0.1708  0.1047
25679W        W42153  18.471   7.061  11.095  0.0552  0.3456 -0.0851
25680W        W42154   7.432  12.173   0.355 -0.0705  0.0723  0.1724
25681W        W42155  10.569   7.595  13.686  0.0500  0.1040  0.4482
25682W        W42156  15.205   3.137   1.858  0.2519 -0.1718  0.0801
25683W        W42157   6.533   2.693   9.653  0.0758  0.1167 -0.0276
25684W        W42158  15.553   6.700   0.978 -0.2183 -0.0038 -0.2696
25685W        W42159   9.492   5.751   4.391  0.1133 -0.1618  0.1705
25686W        W42160   0.025   5.142  14.441  0.0662 -0.0545  0.1254
25687W        W42161   8.456   1.219   1.099 -0.0657  0.1056  0.0091
25688W        W42162   4.813  15.530   3.507  0.0905 -0.0699 -0.1203
25689W        W42163   4.800   0.184   1.469  0.1936  0.2481  0.0330
25690W        W42164   0.737  12.239   2.827 -0.3108 -0.1829  0.1650
25691W        W42165  10.228  10.491   4.182  0.3003 -0.1466  0.0773
25692W        W42166  16.258  14.381  14.842  0.1761 -0.0837 -0.2448
25693W        W42167   6.431   2.206   3.784 -0.2436 -0.0498 -0.2154
25694W        W42168   6.595  17.398   1.987  0.1079  0.0570  0.0706
25695W        W42169  17.824   6.491   5.193 -0.0404 -0.0871 -0.1902
25696W        W42170  17.931  18.228  13.309 -0.1916  0.0353  0.1463
25697W        W42171   0.600   2.559   1.819 -0.0823  0.1022  0.0020
25698W        W42172   9.830   8.391  10.828 -0.3327 -0.0252  0.2004
25699W        W42173  14.661  17.227  13.242 -0.0961  0.0049 -0.2003
25700W        W42174   2.945  12.770   0.624  0.2660 -0.0836 -0.2016
25701W        W42175  15.971   6.509  14.187  0.0446  0.1994  0.0976
25702W        W42176   5.201   2.832  15.487 -0.0679  0.1509 -0.1916
25703W        W42177  17.752   1.124   0.550 -0.1505  0.1591 -0.2737
25704W        W42178  18.052  10.633   2.558  0.2358 -0.0423 -0.2162
25705W        W42179   2.088   6.885  14.169 -0.1477  0.1488  0.0470
25706W        W42180   3.479   9.913  10.967 -0.1874  0.2139  0.0633
25707W        W42181   3.740   6.046   3.202 -0.3912 -0.0262 -0.2879
25708W        W42182  13.298  16.992   1.476 -0.0172 -0.1710  0.1511
25709W        W42183  18.348  15.356   3.881 -0.0214  0.1193  0.2308
25710W        W42184  13.314   6.404  13.971  0.2194 -0.2066 -0.3099
25711W        W42185   4.763  10.386  15.223  0.0961  0.6807  0.0556
25712W        W42186   6.954   6.315   9.887  0.0718  0.0294 -0.0391
25713W        W42187   1.487  18.729  11.048 -0.2025  0.1626 -0.0286
25714W        W42188   8.739  10.916   2.997  0.2213 -0.3592 -0.0390
25715W        W42189  17.194   7.328   1.264  0.2691  0.3530  0.2422
25716W        W42190  12.944  11.665   0.884  0.1468  0.0919 -0.0855
25717W        W42191   1.655   3.538   9.927  0.1961  0.1458  0.1363
25718W        W42192   5.396   7.462   3.822  0.0820 -0.0748 -0.1340
25719W        W42193   9.463  18.542   1.111 -0.1921  0.3155 -0.0968
25720W        W42194   4.787  18.280   1.534 -0.0669  0.1246  0.1077
25721W        W42195   0.227   7.646   4.712  0.3904  0.2160 -0.1220
25722W        W42196   9.993   0.883   3.166  0.1631  0.3409 -0.0209
25723W        W42197  14.252   3.057  10.429  0.4918  0.2296  0.0039
25724W        W42198  14.352   1.064   2.390  0.4102  0.1076 -0.2450
25725W        W42199  17.353   4.236   1.298  0.3022 -0.0441  0.1190
25726W        W42200   0.386   7.748  11.081  0.2729 -0.0340 -0.1466
25727W        W42201   8.271   0.343   3.715 -0.3109 -0.1412 -0.0624
25728W        W42202   5.669   6.726  15.191  0.5423  0.0811 -0.4483
25729W        W42203  18.166   1.411   0.518 -0.3665 -0.1046 -0.1744
25730W        W42204   8.517   1.028   1.729  0.0161  0.2425 -0.1979
25731W        W42205   6.420   7.644  14.640  0.0226  0.1600 -0.4539
25732W        W42206   7.316  16.902  11.420  0.0563  0.1064  0.2957
25733W        W42207   1.100   2.699  14.799 -0.1515  0.0296 -0.1557
25734W        W42208   7.663   2.504   2.307  0.0737 -0.0690 -0.1329
25735W        W42209  13.676   1.361   3.753  0.1061 -0.1331 -0.1598
25736W        W42210  12.200  16.640  12.131  0.1339 -0.1606 -0.2259
25737W        W42211   3.693  14.024  11.213  0.4277 -0.2794 -0.1476
25738W        W42212   1.929   0.020   2.224  0.1417  0.0504  0.2216
25739W        W42213  13.523  14.335   2.763  0.1384 -0.1184 -0.3135
25740W        W42214  13.008   7.644   2.927  0.2203 -0.1414 -0.1040
25741W        W42215  11.679  18.549  10.376  0.1497 -0.0873  0.1505
25742W        W42216   6.515   6.081  15.225 -0.0242  0.1285 -0.1145
25743W        W42217   6.538   6.686   5.521 -0.0250 -0.1703 -0.2910
25744W        W42218   4.317  10.613   0.616  0.1505 -0.0574 -0.1381
25745W        W42219  13.860  15.595  14.781  0.0893 -0.2639 -0.0637
25746W        W42220  16.003  18.330  14.686  0.2171  0.2471 -0.0389
25747W        W42221  16.062   9.213  14.174  0.3488 -0.1159  0.5313
25748W        W42222  18.434   1.738  13.195 -0.1294 -0.0485 -0.4634
25749W        W42223  13.075   3.720  11.875 -0.1839 -0.0217  0.1101
25750W        W42224   6.523  17.427   0.534 -0.1849  0.0348  0.0847
25751W        W42225   0.714  12.379  15.403  0.1425  0.0993 -0.2396
25752W        W42226  15.806  17.220   1.230  0.4416  0.1899  0.0547
25753W        W42227   8.240   4.931   3.764  0.0529  0.1444 -0.1240
25754W        W42228   8.209  18.659  11.269 -0.0025 -0.0574  0.2510
25755W        W42229   4.004  12.889  14.227  0.1508  0.0114 -0.2115
25756W        W42230   0.280   4.483  12.315 -0.5510  0.0954  0.0019
25757W        W42231  17.465   0.437   6.027  0.5278  0.0604  0.1444
25758W        W42232   9.046  15.076  14.536  0.1605 -0.2697 -0.0197
25759W        W42233  18.431   2.330   0.015 -0.0823 -0.3135  0.2294
25760W        W42234   0.846   4.838  15.125 -0.1103 -0.1456 -0.0965
25761W        W42235   6.559  12.220  11.068 -0.0029 -0.0244 -0.0778
25762W        W42236  18.399   6.002  14.703  0.0884  0.4225 -0.0249
25763W        W42237  14.831  18.537   0.369 -0.0416 -0.1275  0.4695
25764W        W42238  10.502  12.195  11.461  0.0710  0.0764  0.0287
25765W        W42239   0.015  14.980  12.638  0.1539  0.1670 -0.1984
25766W        W42240  14.416   6.638   4.861 -0.1268  0.0593  0.1052
25767W        W42241   6.840  13.081  14.924 -0.1473 -0.0371  0.0999
25768W        W42242  13.779   4.147   6.093 -0.1446  0.0835  0.2202
25769W        W42243  12.211   4.500   1.638  0.6801  0.0953  0.1042
25770W        W42244   9.956   8.117   4.228 -0.4152 -0.0156 -0.1305
25771W        W42245  14.766   8.686   2.873  0.0247 -0.0212  0.2371
25772W        W42246  10.427  11.253  14.195  0.0613  0.1906 -0.0727
25773W        W42247  12.203   0.561  15.072  0.1890 -0.0349  0.2054
25774W        W42248  12.553   3.405  15.023 -0.2355  0.1349 -0.0144
25775W        W42249  14.275   7.182   5.642  0.1214  0.0241  0.0806
25776W        W42250   0.295   5.940   2.982 -0.2562  0.2519  0.1488
25777W        W42251  12.063  12.316  13.936 -0.0896  0.3034 -0.0594
25778W        W42252   2.287  11.526   4.299 -0.0725 -0.2299 -0.0488
25779W        W42253  15.654   3.350  11.126 -0.0201  0.1967 -0.0115
25780W        W42254   5.967   3.697   2.241  0.4412  0.2492 -0.0921
25781W        W42255  10.509   8.464  11.946 -0.0591  0.0431  0.2430
25782W        W42256  18.558  10.025   9.879 -0.2030 -0.0029  0.0034
25783W        W42257   8.742   6.516  10.635  0.0198  0.0417 -0.2757
25784W        W42258   0.294   7.158   4.768  0.2020  0.2204 -0.2737
25785W        W42259  12.137  10.239   6.014 -0.1025 -0.0669 -0.0850
25786W        W42260  12.255   8.620   4.856  0.3057 -0.1938  0.0498
25787W        W42261  13.576  16.339  11.402  0.2031 -0.0454 -0.1805
25788W        W42262   0.045  17.906   3.866 -0.1624 -0.2016  0.0911
25789W        W42263  18.221  14.122   0.906  0.0338 -0.2766  0.4081
25790W        W42264   0.755   4.840   1.428 -0.2031 -0.1749 -0.2433
25791W        W42265   3.259  11.156  14.812  0.0195  0.0314  0.0973
25792W        W42266  14.713  10.664  15.404 -0.1587 -0.2262 -0.2358
25793W        W42267   0.959  15.678  12.606  0.1897  0.0962  0.0812
25794W        W42268   9.140   4.941   0.190 -0.5253  0.2253 -0.0781
25795W        W42269  17.675  12.951   1.139 -0.2313 -0.2717 -0.0456
25796W        W42270  11.322   0.183   4.940  0.1934  0.0157 -0.1774
25797W        W42271  13.909  17.048   1.976  0.1473 -0.0740 -0.1315
25798W        W42272  15.623  13.654   4.938  0.1512 -0.2681 -0.0458
25799W        W42273  16.877  13.620   2.868 -0.0847  0.0784  0.1645
25800W        W42274  11.459  17.682  12.059  0.0393  0.0491  0.0961
25801W        W42275   6.465   7.150   0.338  0.0726  0.0928  0.0652
25802W        W42276   3.726   6.128   0.400 -0.2528  0.4866 -0.0087
25803W        W42277   7.076  10.196   5.696 -0.3752 -0.3662  0.1033
25804W        W42278   8.150  14.649  12.763 -0.2510 -0.0287 -0.0644
25805W        W42279   9.075  17.447   5.525  0.1195 -0.2496 -0.0163
25806W        W42280   8.679  17.051   4.881 -0.1549  0.2871 -0.3363
25807W        W42281   6.606   6.243   3.160 -0.0613 -0.0927  0.1737
25808W        W42282   6.682   1.347   1.583 -0.0434 -0.0017  0.0486
25809W        W42283   0.395   1.930  14.693  0.2521  0.0561  0.0436
25810W        W42284  13.324   9.961   1.913  0.2105  0.1716 -0.3095
25811W        W42285  17.863   7.945   1.146 -0.0714  0.0383 -0.2653
25812W        W42286  17.135   1.300   2.864 -0.0898  0.1610 -0.1841
25813W        W42287   6.502   3.092   2.029  0.0061  0.0482  0.1677
25814W        W42288  15.544   1.900   1.135  0.0585 -0.0917  0.2244
25815W        W42289  16.280   0.562   1.521  0.3401 -0.0257  0.3429
25816W        W42290   4.009   6.939   3.927 -0.2169 -0.2457  0.1378
25817W        W42291  10.579  18.276   4.696 -0.0172  0.0646 -0.0785
25818W        W42292   6.118  18.018   2.161 -0.0062 -0.0546 -0.0905
25819W        W42293  11.935   9.217  14.690 -0.1597 -0.0931  0.3027
25820W        W42294   6.702  17.896   1.897 -0.2422  0.2006 -0.3802
25821W        W42295  14.656  15.601  11.572  0.1243  0.0430 -0.1326
25822W        W42296  12.782  14.050  12.350 -0.3162  0.0674 -0.0372
25823W        W42297  17.073   5.705  15.153 -0.0941 -0.2390  0.0559
25824W        W42298   4.808   5.813  14.935 -0.0813  0.0546 -0.2751
25825W        W42299   8.448  18.139   3.102 -0.1133  0.0889  0.1266
25826W        W42300  11.203   0.888  13.120 -0.1859 -0.0325 -0.2303
25827W        W42301   4.146  17.912   3.186 -0.0209 -0.4027  0.0883
25828W        W42302   5.781   4.154  14.647 -0.1920 -0.2013  0.0608
25829W        W42303  16.105   6.839   4.524 -0.0814  0.0923 -0.1194
25830W        W42304  14.772   5.952   2.949 -0.1225  0.2593  0.0614
25831W        W42305   6.175   1.804  10.287  0.4508 -0.0548  0.0909
25832W        W42306  16.431   9.043  11.493 -0.2667 -0.0869 -0.0620
25833W        W42307   3.958  12.576  11.470 -0.3385  0.1495 -0.3270
25834W        W42308   6.990   9.011   1.751  0.0868 -0.1364 -0.1428
25835W        W42309   8.977  11.677   5.192  0.3470 -0.1958  0.0953
25836W        W42310  11.361  15.170  12.090  0.0223 -0.1511  0.2409
25837W        W42311  10.623  11.524  15.458  0.2759  0.2799 -0.3425
25838W        W42312  14.372   5.762   4.809  0.0799  0.1408 -0.1665
25839W        W42313   9.998   1.555   0.535 -0.0910  0.0313  0.2582
25840W        W42314   7.132   6.170  10.340  0.0271 -0.2609 -0.0367
25841W        W42315   3.684  18.718  14.465 -0.2991 -0.1766 -0.0028
25842W        W42316   2.325  17.769  11.736  0.1174 -0.2416 -0.0049
25843W        W42317  16.208   3.396  14.851  0.0695  0.3831 -0.0263
25844W        W42318  11.507   5.360   0.300 -0.2714  0.2375 -0.0443
25845W        W42319  15.530  15.222  14.227 -0.3475  0.0006 -0.0827
25846W        W42320  13.484   7.900  13.385 -0.1786 -0.1769 -0.1584
25847W        W42321   6.205  18.577  12.015  0.2714 -0.2099 -0.3546
25848W        W42322   2.584  10.153  13.491 -0.1142  0.1123  0.0480
25849W        W42323  16.329   0.613   3.217  0.0785  0.0554  0.0867
25850W        W42324   3.210   8.396   1.830  0.1381  0.1416  0.1350
25851W        W42325   1.260   3.705  11.785  0.0319 -0.2215 -0.1403
25852W        W42326   5.395   0.202   3.353 -0.0497  0.2869 -0.2961
25853W        W42327   5.766  15.813   5.619 -0.1653 -0.1724 -0.3701
25854W        W42328  18.589   5.682  15.409  0.1860 -0.1625  0.1355
25855W        W42329   1.766  14.443   4.689  0.1906  0.1331  0.0501
25856W        W42330   8.811  11.912  13.652  0.1862  0.1362  0.1928
25857W        W42331   4.192   3.441  12.282  0.0115 -0.1147 -0.2241
25858W        W42332   1.451  18.100  14.835  0.1712 -0.1083  0.0530
25859W        W42333  17.430  14.859   0.833 -0.4933  0.0198 -0.2837
25860W        W42334   1.563  13.910   4.785  0.1093 -0.2894  0.2202
25861W        W42335  10.815  11.416  14.929  0.0041  0.3348  0.2449
25862W        W42336   7.875   5.548   2.536 -0.0742  0.1953  0.4841
25863W        W42337   7.223   4.831   0.315  0.3417  0.2312 -0.0784
25864W        W42338   1.879  14.217  13.130 -0.4051 -0.1024  0.3224
25865W        W42339   5.051  10.572   2.212 -0.2103 -0.0733 -0.2015
25866W        W42340   2.873   1.277  15.153  0.0189 -0.0533  0.1482
25867W        W42341   7.518   7.051   4.232 -0.1178 -0.0705 -0.0449
25868W        W42342  12.906   4.533  14.024 -0.2348 -0.0973  0.2699
25869W        W42343   0.506  16.236  11.444  0.0380 -0.2041 -0.0562
25870W        W42344  17.158  10.572   0.318 -0.3988 -0.0782  0.1512
25871W        W42345   2.669  13.544  13.515 -0.1667  0.0144 -0.0065
25872W        W42346   3.128  18.188  13.441 -0.1727  0.0979  0.1646
25873W        W42347  12.391  13.461   3.572  0.2437 -0.0851 -0.1243
25874W        W42348  11.374   6.049  11.962  0.2049 -0.1634  0.1088
25875W        W42349   1.012   3.904   2.128 -0.0401  0.0471  0.1939
25876W        W42350   4.316   6.509   1.152  0.1076  0.0002 -0.2807
25877W        W42351  18.263   3.125   1.490  0.0984 -0.0924  0.0630
25878W        W42352  17.341  17.307   2.110 -0.3313 -0.1292  0.1147
25879W        W42353  13.813   7.763   2.879 -0.2380 -0.0760 -0.0737
25880W        W42354  12.527   7.901   2.862 -0.1487 -0.2738 -0.2641
25881W        W42355   9.701   3.414   2.253  0.3044  0.2816 -0.1109
25882W        W42356  12.414   3.095   4.721  0.1056  0.2044  0.1278
25883W        W42357   3.254  14.376   1.402 -0.0226 -0.0169  0.1955
25884W        W42358   3.173   5.569   4.430 -0.1465 -0.0903 -0.2407
25885W        W42359   4.563   3.853   3.610  0.1646  0.0826 -0.2335
25886W        W42360  12.940  15.159  15.467  0.0659  0.0863  0.0886
25887W        W42361  14.846   4.580   1.446  0.0790  0.2557 -0.1065
25888W        W42362   7.322  15.643  13.236  0.0066 -0.1020 -0.2070
25889W        W42363  16.941   7.528  13.701  0.3103  0.2066 -0.2246
25890W        W42364   5.228  16.475   2.349 -0.0492 -0.3224 -0.2544
25891W        W42365  13.402  15.233  15.430  0.1145 -0.0620 -0.0799
25892W        W42366  14.834   1.946   2.527 -0.0109  0.2250  0.2268
25893W        W42367   2.519   6.376   4.492  0.0935  0.0308  0.1254
25894W        W42368   9.216   0.697   1.139  0.1715 -0.1741 -0.1726
25895W        W42369  14.399   0.028  14.000  0.1615 -0.0990 -0.1427
25896W        W42370   3.236  10.969   3.584 -0.1105  0.0361  0.2948
25897W        W42371   4.137   1.497   4.922  0.1574 -0.0080 -0.1042
25898W        W42372  14.010  13.547   5.645 -0.5379  0.0021 -0.0406
25899W        W42373   1.540   5.153   5.361 -0.0692  0.0518 -0.1530
25900W        W42374   9.253   9.991  10.918  0.2429 -0.2322 -0.0475
25901W        W42375   0.344   1.163  12.985  0.2399 -0.1266  0.1392
25902W        W42376  14.736   9.590   3.939  0.0553 -0.1611  0.0193
25903W        W42377   4.558  17.028  10.554 -0.2406  0.1382 -0.2215
25904W        W42378   0.393   8.894   5.061  0.0189  0.0328 -0.0864
25905W        W42379  13.364   9.570   4.862 -0.0565 -0.0456 -0.2678
25906W        W42380  10.586   6.191   1.692  0.0865  0.5474 -0.1519
25907W        W42381  11.399  16.580  11.714 -0.0322  0.1273  0.1137
25908W        W42382   2.016   7.275  12.281 -0.0859 -0.0443  0.2798
25909W        W42383  17.709   9.158  14.306  0.1889 -0.1421  0.0169
25910W        W42384   2.755  16.714   1.859 -0.1846 -0.2916  0.4475
25911W        W42385   1.479   2.986   0.621  0.1842  0.2425 -0.0877
25912W        W42386   6.792   9.255  13.808  0.0758 -0.0588  0.0773
25913W        W42387  13.534   1.361  11.845  0.2449 -0.0709 -0.3771
25914W        W42388   7.048  11.304  14.295 -0.1293 -0.1476  0.2920
25915W        W42389  15.840  15.070  13.754  0.4940 -0.2122  0.5263
25916W        W42390   5.941  13.567   1.202 -0.1615  0.2107 -0.0341
25917W        W42391  12.090  18.691  15.186  0.0281  0.0181  0.4462
25918W        W42392   8.736  17.608  12.675 -0.1710  0.0493  0.1229
25919W        W42393  14.283  14.817  15.365  0.0390 -0.1859 -0.3186
25920W        W42394  14.299  17.914  11.548 -0.3827  0.5265  0.2369
25921W        W42395   4.097   3.266   3.035  0.2772  0.2420  0.1696
25922W        W42396   6.847  15.274   4.790  0.1833 -0.2256  0.0827
25923W        W42397   1.406   9.789   3.234  0.2465  0.2123  0.1975
25924W        W42398   6.104   0.275   0.250 -0.3985 -0.0117 -0.0191
25925W        W42399   9.491   4.061  11.164  0.0209 -0.1868 -0.4804
25926W        W42400   0.369  10.077  14.495  0.2516  0.2810 -0.3817
25927W        W42401   1.416  12.747   1.030 -0.0585  0.1363  0.1268
25928W        W42402  16.194   0.894  10.635  0.0602 -0.3021  0.1645
25929W        W42403   2.289  16.191   3.821 -0.2122 -0.0800  0.4273
25930W        W42404  11.700  10.911  14.104 -0.1276  0.1222 -0.2743
25931W        W42405  14.980  17.180   1.800  0.1297  0.1579 -0.1121
25932W        W42406  17.484   5.193  11.857 -0.0826  0.1226  0.0222
25933W        W42407   6.403   0.854  12.022  0.1182 -0.0051  0.1068
25934W        W42408  14.604   3.666  14.496 -0.1897  0.0374  0.1109
25935W        W42409  11.953   5.095   4.270 -0.3126 -0.2815 -0.3392
25936W        W42410  14.002  15.873   2.654  0.1077 -0.1776 -0.0073
25937W        W42411  12.732  11.467   5.438 -0.1319 -0.1265  0.2544
25938W        W42412   7.326   4.809   2.712 -0.1054  0.1492  0.1076
25939W        W42413  11.401  12.109  13.014 -0.1320  0.1267 -0.0142
25940W        W42414   9.322  16.372   5.448 -0.3002  0.0141  0.1054
25941W        W42415   7.431  10.435  11.859  0.1634 -0.0623  0.2455
25942W        W42416  15.505   8.489   4.558  0.1821 -0.1595  0.1439
25943W        W42417  10.517   3.611  11.181  0.0250 -0.1323  0.0217
25944W        W42418  12.248   5.297   3.311 -0.3921  0.1036  0.0225
25945W        W42419   1.336  14.285   3.294  0.0236 -0.0470 -0.2194
25946W        W42420   8.913   5.445  14.302  0.2439 -0.1649 -0.0877
25947W        W42421  11.971  17.999   1.744  0.3801 -0.0897 -0.0337
25948W        W42422   5.864  13.576   5.493  0.0929  0.0768  0.2901
25949W        W42423   3.374  10.312  12.210 -0.5108 -0.0505  0.0706
25950W        W42424  15.336   0.715   0.219 -0.0762 -0.1584 -0.3538
25951W        W42425  17.393  13.770   1.197  0.2752 -0.1385  0.1301
25952W        W42426  15.646  10.055  14.299 -0.2049  0.1072  0.1893
25953W        W42427   9.877   3.472   4.245 -0.1494  0.4697 -0.0377
25954W        W42428  13.318   0.852   5.313 -0.0303 -0.1919 -0.1758
25955W        W42429   5.416  13.650  13.919  0.1450  0.1389 -0.0264
25956W        W42430   9.963   5.060  15.532  0.1374  0.1534  0.1186
25957W        W42431  14.950   4.222   2.392 -0.1101 -0.3451  0.0732
25958W        W42432   7.372  17.043   4.058 -0.1509 -0.0297  0.0571
25959W        W42433  17.453   3.849   4.948  0.2507  0.1694 -0.2953
25960W        W42434   5.225  16.184  10.885 -0.2978 -0.2098 -0.0227
25961W        W42435  16.828   7.046  10.789 -0.3287  0.0242 -0.2270
25962W        W42436  18.001  18.071  11.525 -0.0050  0.0831 -0.0388
25963W        W42437   5.079  10.583   1.771 -0.2208 -0.0838  0.0280
25964W        W42438  17.403   8.236  12.169 -0.4275  0.0312  0.1111
25965W        W42439   6.262  11.051  11.151  0.1663  0.0584  0.0417
25966W        W42440   4.379   5.697  14.599  0.1112  0.1446 -0.2649
25967W        W42441   7.478  11.942   1.677  0.1420 -0.3620  0.1746
25968W        W42442   7.794   4.880   1.993  0.1056  0.0587 -0.2287
25969W        W42443  13.287   5.871  13.570 -0.1973 -0.0840  0.2964
25970W        W42444   4.407   0.002  15.067  0.1843  0.0390  0.2243
25971W        W42445   2.867   9.509   1.003 -0.3173  0.0883  0.2719
25972W        W42446   4.291  10.159   4.748  0.2506  0.2482  0.0866
25973W        W42447  13.872  10.284  12.919  0.0371  0.0518 -0.0856
25974W        W42448   7.246   4.894  12.925 -0.0652 -0.0194  0.0256
25975W        W42449  10.919   3.262   5.488 -0.0759 -0.1284  0.1713
25976W        W42450  10.557   6.144   0.697  0.4630  0.2856 -0.0443
25977W        W42451   8.054   7.918   2.422  0.2061  0.1878 -0.1184
25978W        W42452  12.881  17.951   1.523  0.1710  0.0556  0.0471
25979W        W42453   2.000  13.825   2.588 -0.2345  0.0441  0.2153
25980W        W42454   0.555   9.948  15.420  0.2618  0.0952 -0.0991
25981W        W42455   5.445  12.517   2.427  0.2364  0.2414 -0.0791
25982W        W42456  10.641  12.349   5.386  0.1209  0.3290  0.2140
25983W        W42457  14.797  10.584  14.089  0.1890 -0.1258  0.2402
25984W        W42458   0.037   4.749  11.923 -0.0637 -0.0230 -0.3023
25985W        W42459   5.806  16.577  11.362  0.0294 -0.1768 -0.0575
25986W        W42460   0.274   6.666   1.252  0.0775 -0.0553  0.0292
25987W        W42461  16.005   5.056   0.760 -0.1451 -0.2148 -0.2508
25988W        W42462  13.771   4.078  13.828 -0.1185 -0.1253  0.1420
25989W        W42463  13.158   5.127  12.734  0.1657  0.1998 -0.1372
25990W        W42464   6.936   7.494  12.975 -0.0178 -0.2973 -0.0301
25991W        W42465   4.632  14.090  12.814 -0.1123 -0.1245  0.0165
25992W        W42466   5.058   0.099  11.115 -0.1089 -0.1837  0.1217
25993W        W42467  11.514  17.548  14.025  0.1580  0.1664  0.0755
25994W        W42468  11.309   6.078  14.534 -0.0206 -0.3412  0.4154
25995W        W42469   6.091   7.106  13.890 -0.0453  0.1714  0.2684
25996W        W42470   6.410   6.512   4.983 -0.1898 -0.1474  0.1859
25997W        W42471   5.355   1.046  11.848 -0.2281  0.5058 -0.1432
25998W        W42472   1.365  12.901  12.484 -0.0462  0.0675  0.1691
25999W        W42473  14.359   7.467   1.614  0.0681 -0.0286 -0.1184
26000W        W42474   8.220  15.523   4.704 -0.1254  0.0282 -0.0210
26001W        W42475   7.468   2.844  14.486 -0.1278 -0.2245  0.1456
26002W        W42476   1.908   3.260   5.010 -0.2304 -0.1668  0.1046
26003W        W42477   7.718  15.597  11.735 -0.1422  0.0186  0.3105
26004W        W42478   7.863   7.629   3.624  0.1020  0.2266 -0.1573
26005W        W42479   4.698   6.111  10.740  0.3547 -0.1772  0.1331
26006W        W42480   9.217  11.373  14.182  0.0252  0.1119 -0.0254
26007W        W42481   4.059  11.860   4.610 -0.1763 -0.1738 -0.3904
26008W        W42482  17.191  17.706  13.459 -0.3557 -0.2266  0.1188
26009W        W42483  18.355  10.327   2.733 -0.2384 -0.0324 -0.0681
26010W        W42484  14.362  14.061  12.746  0.3054  0.4864 -0.2207
26011W        W42485   9.142  17.562   4.062 -0.0410  0.1159 -0.1172
26012W        W42486   6.379  15.109   1.555  0.2937  0.1538  0.0357
26013W        W42487  17.455   2.855  12.718  0.0174 -0.2523 -0.3625
26014W        W42488   4.140   5.471  11.934 -0.1700 -0.4168  0.0575
26015W        W42489   4.784  11.915  11.389 -0.0556  0.3533 -0.0390
26016W        W42490  18.213   2.263  15.097  0.1506  0.1438  0.0900
26017W        W42491  15.274   8.686   1.407  0.3600  0.3852 -0.0562
26018W        W42492   2.838  12.372  15.551 -0.1090  0.2032  0.0617
26019W        W42493  10.153   8.115   3.780  0.0072  0.1021 -0.1349
26020W        W42494   1.935   3.377  11.044  0.2493  0.0089 -0.0361
26021W        W42495   2.937  15.734  11.874  0.3940 -0.0861 -0.1074
26022W        W42496   7.714   9.206  13.123 -0.2423 -0.0489  0.2850
26023W        W42497  11.137  12.401   0.601 -0.0976  0.0004 -0.2325
26024W        W42498   6.565  10.176   5.505  0.0203 -0.0438  0.0962
26025W        W42499  15.993   9.932  10.803  0.0627  0.3955  0.0649
26026W        W42500  18.770   6.806   4.632  0.2298 -0.0240 -0.1064
26027W        W42501   9.995   1.158   0.912 -0.0105  0.0720 -0.0697
26028W        W42502   6.518  13.087   1.100 -0.2897  0.1663  0.1979
26029W        W42503   8.309  15.261  13.451  0.0387 -0.2638  0.1690
26030W        W42504  11.218   6.932   2.614 -0.0894  0.1269 -0.1966
26031W        W42505   8.221   4.782  14.087 -0.0774  0.0050  0.2705
26032W        W42506  12.414  16.682   4.134 -0.3067 -0.0181  0.4026
26033W        W42507   2.900  17.216  14.575 -0.1174  0.2333 -0.0274
26034W        W42508   2.877   6.073  10.864  0.2308  0.1370  0.1157
26035W        W42509   7.303  17.408   3.608 -0.0184  0.0028  0.2844
26036W        W42510   7.197   6.968   1.923 -0.2542 -0.0369  0.1434
26037W        W42511  10.325   5.326  11.149  0.1971 -0.1773 -0.1776
26038W        W42512  15.268   6.532  12.361  0.1424  0.1542  0.0210
26039W        W42513  18.292   6.307   0.410  0.2554  0.2282  0.0695
26040W        W42514  11.502   8.416  14.717  0.0667 -0.0234  0.0223
26041W        W42515  16.076  17.126  10.919  0.0605  0.4187  0.1523
26042W        W42516   5.558   2.161  12.821 -0.1212 -0.1875 -0.0216
26043W        W42517   4.370  14.441  15.568 -0.0168 -0.0608  0.2005
26044W        W42518  13.062  13.370   5.123  0.0523 -0.0674 -0.1832
26045W        W42519   0.160  10.211   4.478 -0.0081  0.2231  0.2558
26046W        W42520  18.462   7.137   2.654  0.0974  0.0431 -0.1678
26047W        W42521  10.708   0.279  13.749 -0.1313  0.0183  0.0660
26048W        W42522   6.841  14.958   2.575  0.1043 -0.2428  0.3712
26049W        W42523  13.833   0.603  13.939 -0.0599  0.0706  0.0068
26050W        W42524  16.506  18.592   1.114 -0.1907 -0.2379 -0.1571
26051W        W42525   4.798   3.781  14.513 -0.3611  0.0004  0.2156
26052W        W42526   3.802  14.224  10.627 -0.0526  0.1178 -0.3152
26053W        W42527  16.703   3.084   4.649 -0.2452 -0.3548 -0.1889
26054W        W42528  16.113   2.803  15.069  0.1334 -0.2534  0.0098
26055W        W42529  15.536  13.612  15.352 -0.1004 -0.0971  0.3025
26056W        W42530   3.845  11.285  13.012  0.0266 -0.1220  0.1491
26057W        W42531   5.103  11.040  13.607  0.0877  0.2167 -0.1264
26058W        W42532   1.643  16.391   2.908  0.1342  0.1161 -0.1634
26059W        W42533  14.554   4.904   3.012  0.0523  0.2059 -0.2880
26060W        W42534   6.273   4.097  11.786  0.1446  0.0677  0.0296
26061W        W42535  16.561  10.092   0.096 -0.0133 -0.1138 -0.2898
26062W        W42536   7.559  11.374  12.396  0.2143  0.0879 -0.3508
26063W        W42537   3.456   7.657  13.060  0.2060 -0.1512  0.0301
26064W        W42538  11.380   1.911   0.592 -0.2796  0.1331  0.1465
26065W        W42539  16.804  17.145  10.670  0.0491 -0.3307 -0.0192
26066W        W42540  10.282   8.914   4.636  0.0698 -0.1777  0.0785
26067W        W42541  12.243   2.230   0.424  0.0243  0.2302  0.2551
26068W        W42542   1.655   5.037   4.334 -0.1796  0.2162  0.1982
26069W        W42543  12.311  15.906  15.410 -0.2477  0.0162 -0.1746
26070W        W42544  11.242   5.820  11.107 -0.2886 -0.1169  0.0460
26071W        W42545  12.358   2.364  11.886 -0.2606 -0.1684  0.2308
26072W        W42546   7.915  11.556   3.083 -0.1014 -0.3926 -0.3391
26073W        W42547  18.558   2.570  13.214  0.0355 -0.0738 -0.3603
26074W        W42548   7.607   6.098  13.245 -0.1033  0.0486  0.0892
26075W        W42549   8.951   9.762   1.336  0.0146 -0.4400  0.0503
26076W        W42550  10.355  10.107   1.330  0.0087  0.2327 -0.1929
26077W        W42551   7.606  12.535   1.284  0.0090  0.0042  0.1610
26078W        W42552   3.204  11.470  10.851 -0.4893  0.1587 -0.0441
26079W        W42553  11.276  12.809  13.452  0.0005 -0.0001  0.0296
26080W        W42554  11.250   3.806  15.054 -0.0478  0.1750  0.1415
26081W        W42555  13.321  16.202  13.188 -0.0942 -0.0441  0.4880
26082W        W42556   4.071   0.917   4.722 -0.0023  0.1379  0.0909
26083W        W42557   8.730   1.323  13.486  0.2064 -0.0765  0.0820
26084W        W42558  17.079  12.181   5.395 -0.1709 -0.3462  0.1203
26085W        W42559   2.988   3.046  13.105 -0.0335 -0.1264  0.1185
26086W        W42560  13.737  18.685   4.689 -0.2150  0.3997 -0.2993
26087W        W42561  14.210   6.771   5.302 -0.0482 -0.0829 -0.0813
26088W        W42562   9.166  16.495   3.382 -0.2300  0.1345 -0.2048
26089W        W42563   5.404  13.742   1.493  0.2763  0.0694 -0.1616
26090W        W42564  13.202   0.739  10.904 -0.3740  0.2269  0.5129
26091W        W42565  10.282  11.976   2.832 -0.1146 -0.1106 -0.0205
26092W        W42566  12.063  18.631   0.076  0.0420 -0.2275  0.0626
26093W        W42567   2.088   0.069  11.586 -0.1226 -0.0810  0.1334
26094W        W42568   3.468   4.051  14.682 -0.0580  0.2545 -0.1066
26095W        W42569   2.534   0.813   1.191 -0.0935 -0.1109  0.1351
26096W        W42570  11.532   1.401   5.015 -0.0416 -0.0672 -0.0607
26097W        W42571  15.163   2.046   4.558 -0.0388  0.1616 -0.0459
26098W        W42572  18.200  14.620   2.657  0.2169  0.0337  0.1830
26099W        W42573   6.956   2.934  11.245 -0.2257 -0.1389 -0.1244
26100W        W42574   2.594   7.029  14.373 -0.0421  0.1666  0.0461
26101W        W42575   0.227   4.917   0.861  0.2434 -0.1930  0.1961
26102W        W42576  13.595   9.197   0.459 -0.0377 -0.0852 -0.0203
26103W        W42577  14.869  15.795   2.133  0.0148  0.0468 -0.0605
26104W        W42578   4.356  16.926  13.799 -0.0028  0.3251 -0.0691
26105W        W42579   5.452   4.018   3.025 -0.0661  0.1088 -0.0333
26106W        W42580  14.230  12.461  15.467 -0.2415 -0.0817 -0.0387
26107W        W42581   7.963  12.750  15.312  0.3735  0.0167  0.0980
26108W        W42582   4.567   6.967   5.681  0.1732 -0.1542 -0.0810
26109W        W42583   9.652   1.963   0.263 -0.3695 -0.0468 -0.0333
26110W        W42584   5.615   8.607  13.383 -0.1395  0.1444  0.1702
26111W        W42585   5.970  16.731   5.977 -0.2740  0.1194 -0.1883
26112W        W42586   5.588  10.621  12.950 -0.5197  0.1615  0.0286
26113W        W42587  10.357   5.753  13.704 -0.3903  0.1797 -0.0520
26114W        W42588  17.009   0.526   2.428  0.2631 -0.1087  0.0039
26115W        W42589  15.764   0.864   1.441 -0.1076  0.0232 -0.1512
26116W        W42590   3.770  12.307  12.322 -0.0808 -0.1614 -0.2338
26117W        W42591  13.810  15.861   1.683  0.0233 -0.4499 -0.1846
26118W        W42592  17.486  15.783   3.105  0.0716  0.1360  0.0941
26119W        W42593  10.618  15.409   1.781 -0.0799 -0.3520  0.2135
26120W        W42594   6.923  13.534  13.981  0.1755  0.1827  0.0405
26121W        W42595  16.906   6.093   0.248 -0.3948  0.1946  0.0531
26122W        W42596   6.489   0.908   3.673  0.2752 -0.4088 -0.1074
26123W        W42597   2.826   5.033  10.814 -0.1861 -0.1476 -0.1692
26124W        W42598  12.860  17.631   0.185  0.1795  0.0896  0.3616
26125W        W42599  14.510  11.231   1.496  0.0039 -0.1497 -0.0426
26126W        W42600   9.538  12.349   1.510 -0.3900  0.0306 -0.2664
26127W        W42601  15.934  11.877  13.966 -0.0262 -0.3428 -0.0015
26128W        W42602  15.693   2.734   3.614 -0.2396 -0.3898 -0.1752
26129W        W42603   0.248  10.549  12.662 -0.0796 -0.1857  0.0999
26130W        W42604   7.961  10.194  10.794 -0.1755  0.1005  0.0034
26131W        W42605   7.238   9.928   0.089  0.1230 -0.0730  0.3312
26132W        W42606   2.025   2.551  14.037  0.0648 -0.3032  0.2320
26133W        W42607  12.401   1.771  15.501  0.0608 -0.1579 -0.0658
26134W        W42608   1.687  12.394   1.868  0.1187 -0.0807 -0.1841
26135W        W42609   8.579  14.317  10.972  0.4243  0.2377 -0.2825
26136W        W42610  18.231  11.023  14.035 -0.3608  0.0307 -0.0132
26137W        W42611  15.722  16.797  13.382  0.0921  0.1400 -0.5517
26138W        W42612   8.499   8.628   2.597 -0.0154  0.1808  0.0799
26139W        W42613  14.472   7.641   4.210  0.0511  0.0779  0.0762
26140W        W42614   9.088  18.631  12.800 -0.4224 -0.2090  0.1465
26141W        W42615  12.806   8.040   4.632 -0.0475 -0.4120 -0.0053
26142W        W42616   4.550   0.746  13.028 -0.2124  0.4133 -0.3828
26143W        W42617  17.826   3.890  10.844 -0.0517 -0.1321 -0.2708
26144W        W42618   6.952   3.612  13.936  0.1287  0.0378  0.0004
26145W        W42619  10.376   7.450  12.449  0.0272  0.4389  0.3202
26146W        W42620  11.039   4.567   2.210  0.2506 -0.1391 -0.0395
26147W        W42621   6.513   0.274  13.327 -0.0425 -0.1674 -0.1006
26148W        W42622   3.697   3.138   4.885 -0.0254 -0.0095 -0.2166
26149W        W42623   7.299  17.866  11.535  0.0835  0.0910  0.4034
26150W        W42624  10.431  14.672   0.716  0.1335 -0.3400 -0.0159
26151W        W42625  13.678  10.774   3.997  0.1167 -0.2571 -0.1251
26152W        W42626  11.873  12.762   4.349  0.0739  0.0877  0.1495
26153W        W42627  16.610   0.944   5.917 -0.5619 -0.1957  0.1831
26154W        W42628  11.652  15.558   0.267  0.0103 -0.1781 -0.0406
26155W        W42629   5.619   5.160  11.892  0.2913 -0.0233 -0.2799
26156W        W42630  13.669  12.452   1.136 -0.1973 -0.2831  0.3821
26157W        W42631  10.638  11.584   1.686 -0.2353  0.0268  0.0522
26158W        W42632   9.541  15.849  14.638  0.1564 -0.0380  0.2765
26159W        W42633  15.135   4.375  13.132  0.0377  0.0959  0.2301
26160W        W42634   2.540  17.990   2.881 -0.0625 -0.0243 -0.0507
26161W        W42635  17.967   9.100  13.405  0.0397  0.1884  0.3752
26162W        W42636   6.745  16.901  13.785  0.1681 -0.2938  0.1560
26163W        W42637  15.971  14.270   0.319 -0.1798 -0.1506 -0.1413
26164W        W42638   2.880   6.721  10.144 -0.1295 -0.0887 -0.3900
26165W        W42639   7.473  13.552   4.819 -0.0862 -0.1303  0.0897
26166W        W42640   2.157   2.508   2.776 -0.1987 -0.1155  0.3922
26167W        W42641   7.866   0.528   4.684 -0.0666 -0.0898 -0.0990
26168W        W42642  14.951   4.694  12.800  0.0794 -0.0830 -0.1283
26169W        W42643  10.196   4.896  13.297 -0.2027  0.1075 -0.2816
26170W        W42644  16.450  15.407   0.753 -0.1460  0.2993 -0.0291
26171W        W42645  13.848   4.283   0.695 -0.3485  0.0948  0.2294
26172W        W42646   4.429   6.410   2.657 -0.1077 -0.1331 -0.2585
26173W        W42647   8.003  15.942   2.581 -0.0475  0.0978 -0.1386
26174W        W42648  13.298   6.263   2.568  0.0353 -0.2574  0.2114
26175W        W42649  10.719  10.029   5.143 -0.0806  0.0067  0.3166
26176W        W42650   9.024   0.961  14.189  0.1372 -0.0502  0.1238
26177W        W42651  11.837  12.699   6.246  0.2124 -0.4850 -0.3535
26178W        W42652   3.564  13.250  13.420 -0.2079 -0.2728  0.2143
26179W        W42653  16.982   9.135  14.936 -0.2111 -0.2562 -0.0793
26180W        W42654  12.140   0.731  11.060 -0.0960 -0.0791  0.0762
26181W        W42655  11.187  16.561   0.468  0.1012  0.0219  0.2063
26182W        W42656  15.509  10.898   1.039  0.0085 -0.4498  0.0355
26183W        W42657   6.140   4.099   0.761  0.0299  0.0242  0.0614
26184W        W42658  15.494   1.230  12.655 -0.0331  0.2323  0.2402
26185W        W42659   9.535   6.907   2.170  0.0303  0.1052 -0.2123
26186W        W42660   9.375  15.112  14.175  0.3565 -0.0019 -0.0104
26187W        W42661   7.007  11.018  15.133  0.1935  0.3857  0.2430
26188W        W42662   1.426   0.380  14.071 -0.0211  0.0078 -0.0499
26189W        W42663  11.051   6.501   1.337 -0.3233  0.0734  0.0539
26190W        W42664   1.486   7.152   1.344 -0.3767  0.3974  0.1041
26191W        W42665  10.280   1.715   4.996  0.2198  0.0139  0.0812
26192W        W42666   4.963  12.890   0.275  0.3106  0.2604 -0.1221
26193W        W42667  10.276  13.538   1.957 -0.2039 -0.0004  0.3120
26194W        W42668  16.261   3.669  13.008  0.2292 -0.0346  0.4642
26195W        W42669  11.873  10.091   3.463  0.1931  0.0585  0.1903
26196W        W42670   6.756   8.319  13.050 -0.0095 -0.0700 -0.1055
26197W        W42671   0.582   2.086   0.923 -0.0943  0.0889  0.1258
26198W        W42672  15.757  13.536   5.721  0.0457 -0.1200 -0.0461
26199W        W42673   1.871   9.007   4.062 -0.5258 -0.0372  0.0328
26200W        W42674  13.860  12.247   2.931 -0.0608  0.2819 -0.3152
26201W        W42675  12.542  11.862   2.237 -0.1561 -0.2052  0.2515
26202W        W42676   0.492  17.192  11.850 -0.1936  0.0269 -0.2491
26203W        W42677   1.913  13.054  12.352  0.1743  0.2112 -0.1020
26204W        W42678   2.004  13.712   1.353  0.0153 -0.0618 -0.0691
26205W        W42679   6.786  18.405  15.016 -0.1979  0.2803 -0.0050
26206W        W42680  14.929  16.097  15.313  0.1321 -0.2528 -0.1234
26207W        W42681   3.170  16.709   3.578 -0.1119 -0.0150  0.0943
26208W        W42682  11.183   3.693   2.000 -0.1769  0.0582 -0.2578
26209W        W42683   2.781  13.338  14.483 -0.1530  0.0516 -0.1567
26210W        W42684   3.754   5.809  12.660 -0.1507  0.1144 -0.0309
26211W        W42685   2.334   7.040  11.441  0.0511  0.2002 -0.1394
26212W        W42686   6.530  10.169   0.604 -0.2329 -0.2224  0.0450
26213W        W42687  10.579   4.183   5.184  0.0825 -0.1594  0.3065
26214W        W42688  15.771  17.653   5.472 -0.0165 -0.1319 -0.3813
26215W        W42689  13.026   2.617   1.425 -0.1336 -0.0281 -0.1369
26216W        W42690   5.143   7.316  10.476 -0.1231  0.0119  0.0914
26217W        W42691   5.920   4.394   2.937  0.0731  0.3926 -0.1323
26218W        W42692   1.975   5.131   3.753  0.2512  0.1275  0.1160
26219W        W42693  10.404   9.046   2.751 -0.4353  0.2011  0.0606
26220W        W42694   9.351  11.745   3.772 -0.0498 -0.0168  0.1814
26221W        W42695   9.481  10.149  11.336  0.0807  0.0759  0.1566
26222W        W42696   8.598  17.178   1.271  0.0433 -0.0292  0.3080
26223W        W42697  11.161  17.969   2.481  0.1001  0.0852 -0.0437
26224W        W42698  10.600  18.756   5.552 -0.1194 -0.0849  0.1729
26225W        W42699   0.319  10.508   0.106  0.1232  0.2992  0.2738
26226W        W42700   7.415  12.984   4.705 -0.0268  0.0704 -0.1994
26227W        W42701  11.149  18.007   2.995 -0.1404  0.0294  0.1326
26228W        W42702   0.480  10.893  14.328  0.2019 -0.0158  0.0789
26229W        W42703   1.340   9.448   0.181  0.2880 -0.3507  0.0591
26230W        W42704  12.833  10.707  13.347 -0.2315 -0.1281  0.3546
26231W        W42705  12.585  18.490  13.841 -0.2075  0.0350 -0.0208
26232W        W42706  11.733  17.374   4.333 -0.0228 -0.0480 -0.1013
26233W        W42707  16.335  15.301  12.098  0.2859 -0.1151  0.1007
26234W        W42708  14.747  15.283   1.384 -0.0451  0.0368 -0.2456
26235W        W42709   6.260  13.355  14.636  0.0065  0.1005 -0.2099
26236W        W42710  12.092  15.009  11.953 -0.1735  0.1791  0.0420
26237W        W42711  15.058   6.931  12.625  0.0917 -0.2146 -0.0144
26238W        W42712   7.744  11.615   5.410  0.0514 -0.1553  0.0299
26239W        W42713   3.833  15.146   4.841 -0.0197  0.2566  0.0122
26240W        W42714  13.079  13.365   2.827 -0.0845 -0.1149  0.1685
26241W        W42715  18.178   3.729   0.849  0.2221  0.1517  0.0797
26242W        W42716  16.075  15.482   2.379  0.0475  0.1501  0.0612
26243W        W42717  12.949   1.200  12.086 -0.1320 -0.1276  0.4082
26244W        W42718  14.246   0.076  15.369  0.0868 -0.2015  0.0659
26245W        W42719   9.553  17.417   2.112 -0.1364  0.1245  0.1060
26246W        W42720   9.511  10.207   4.657 -0.1921 -0.1915 -0.1827
26247W        W42721   7.666   3.954   3.727 -0.3425 -0.1268  0.1603
26248W        W42722  13.577   7.434  13.237 -0.3621 -0.1243 -0.2604
26249W        W42723   1.491  10.461   4.795  0.1646 -0.0216  0.1896
26250W        W42724   9.426   5.647  11.299 -0.2918  0.1123 -0.2033
26251W        W42725  12.309  18.382   0.979 -0.0530 -0.1545 -0.2563
26252W        W42726  13.853  16.934   1.072 -0.1685  0.1558  0.0222
26253W        W42727  13.702  12.227   4.896 -0.3949 -0.0071  0.0173
26254W        W42728   8.155   3.266  11.199  0.2630  0.2748 -0.3197
26255W        W42729  15.167   8.780   0.172  0.1608  0.0286  0.1415
26256W        W42730   7.198   5.289  14.379  0.0435  0.3232  0.2073
26257W        W42731   6.423   0.027  12.857  0.0853 -0.2676  0.1151
26258W        W42732  18.557   8.179  12.409  0.1725 -0.3402 -0.1416
26259W        W42733  14.575   0.941   1.958  0.1928  0.2387 -0.0353
26260W        W42734  15.102  17.230   5.770  0.2177  0.0480 -0.1017
26261W        W42735  14.257  10.751  13.159  0.1102  0.0752 -0.0431
26262W        W42736  17.697  15.458  15.491  0.3009 -0.2423 -0.0770
26263W        W42737  11.895  10.098   2.195  0.0375 -0.0560 -0.1243
26264W        W42738   9.077   8.678  10.053  0.0886 -0.1315 -0.3802
26265W        W42739   8.121  14.928   2.729 -0.0172  0.3247 -0.3686
26266W        W42740   3.374   1.484   4.767  0.1327 -0.3850 -0.1589
26267W        W42741   6.655  17.007  14.549  0.0742 -0.0829  0.0724
26268W        W42742  10.022  16.534  13.624 -0.1070 -0.1580  0.1548
26269W        W42743  12.933   4.866  11.969 -0.0287 -0.0070  0.0732
26270W        W42744  15.488   8.590   3.182 -0.1889 -0.1031  0.2769
26271W        W42745  17.745   6.275  12.052  0.1566  0.1356  0.1242
26272W        W42746   1.540   6.391   3.201 -0.0699  0.2193 -0.0738
26273W        W42747   5.445  11.673  14.250  0.0447 -0.0594  0.2566
26274W        W42748  16.292  17.687   4.940  0.4217  0.3175 -0.2062
26275W        W42749  15.784  11.487  14.641 -0.0626 -0.0126  0.0223
26276W        W42750  18.011   5.443   1.478 -0.2584 -0.0281  0.3151
26277W        W42751   4.368   5.052   3.960  0.3972  0.1469  0.1361
26278W        W42752  18.642  12.588  14.797  0.0029  0.0297  0.1045
26279W        W42753  17.685   6.132   0.396 -0.0970 -0.1279  0.0183
26280W        W42754   7.643  17.959   0.508 -0.2367 -0.1955 -0.2760
26281W        W42755   5.223  14.943   1.298  0.1215  0.1067  0.3553
26282W        W42756  11.878  18.202  14.960  0.0336  0.0507 -0.1234
26283W        W42757  15.419  13.200   1.387  0.1162 -0.1968 -0.4339
26284W        W42758  13.077  12.037  12.575 -0.2795  0.1587 -0.1152
26285W        W42759   6.253  12.589  12.540 -0.2927  0.0562 -0.2333
26286W        W42760   7.342  11.952   5.417 -0.0586 -0.3075  0.2265
26287W        W42761   6.965  18.757  14.174  0.0191 -0.2518 -0.0628
26288W        W42762  13.088  16.816  12.633  0.1541  0.0757  0.2927
26289W        W42763  18.789  10.224  12.941 -0.3404 -0.1166  0.4048
26290W        W42764   1.683   5.754  11.993  0.0492  0.4402 -0.2361
26291W        W42765   3.870   3.562   4.745  0.1234 -0.3954 -0.3473
26292W        W42766  18.312  14.064   1.426 -0.0935 -0.0561 -0.0212
26293W        W42767  11.178   9.188   1.720  0.0356  0.2957  0.0616
26294W        W42768  11.178   1.509   4.253 -0.0268 -0.0735 -0.4131
26295W        W42769   5.451  11.928   1.824  0.2038 -0.0446  0.3610
26296W        W42770  11.129   5.226  15.268 -0.0180 -0.2215  0.5730
26297W        W42771   0.716   0.351   0.111  0.0239 -0.3663 -0.1233
26298W        W42772  10.262   3.806  13.377 -0.2069 -0.1441 -0.3239
26299W        W42773   1.211  12.998   2.610  0.0205  0.2534 -0.1912
26300W        W42774   4.864   6.480  11.998 -0.0558 -0.1783  0.0151
26301W        W42775  18.727   1.410  14.599  0.3034 -0.0764 -0.0182
26302W        W42776   3.333  12.532   3.769  0.0617 -0.1001 -0.1699
26303W        W42777  10.881   1.131   5.552  0.1180  0.0666  0.1277
26304W        W42778   9.720   8.176  11.682  0.0287 -0.1641 -0.0883
26305W        W42779   2.991  17.597  15.409 -0.3585  0.0876  0.0839
26306W        W42780   9.300  13.781   5.462  0.0377 -0.3003  0.0126
26307W        W42781  12.813  15.395   2.676 -0.1068 -0.3116 -0.1760
26308W        W42782   8.982   6.240   3.374  0.1999 -0.2806 -0.1981
26309W        W42783   1.147   6.139   0.276  0.1667  0.1420  0.0036
26310W        W42784  11.941  11.380  12.266 -0.0829  0.0269  0.0895
26311W        W42785  15.260  14.936   5.112  0.5567  0.1054  0.2938
26312W        W42786   2.832  14.784  14.081 -0.2671  0.0566  0.0213
26313W        W42787   8.664   1.524  15.519 -0.3967  0.0848 -0.0252
26314W        W42788   4.855   7.616   2.528 -0.0131  0.0576 -0.1193
26315W        W42789   7.179   5.644   3.231  0.0009  0.0435  0.1615
26316W        W42790   6.299   9.252   5.410 -0.0958 -0.2971  0.2531
26317W        W42791   4.454   3.550  12.840  0.3103 -0.2263 -0.0080
26318W        W42792  14.107   5.074   0.446 -0.0184  0.0244 -0.3012
26319W        W42793  11.277  11.511  12.320 -0.0157  0.0412  0.1173
26320W        W42794  12.077  10.161  15.010  0.0476  0.1859  0.2377
26321W        W42795  16.484   4.291   0.217 -0.2049  0.1552  0.1927
26322W        W42796   6.991  15.228   3.007  0.3067  0.0858 -0.0844
26323W        W42797  11.646   0.716   5.798  0.0771  0.0731 -0.0048
26324W        W42798  14.620   5.547  12.580  0.0892 -0.0782  0.0726
26325W        W42799  17.030  18.125  13.162 -0.0500 -0.0576 -0.2334
26326W        W42800   6.380  14.540   3.231 -0.0485 -0.3203  0.1393
26327W        W42801   5.509  16.814  14.869  0.2095 -0.3458 -0.2919
26328W        W42802  16.293   3.223   1.783  0.1603 -0.1215 -0.3012
26329W        W42803  15.945  12.233  12.786 -0.1588 -0.1180  0.1229
26330W        W42804   3.163   2.252  12.704 -0.2811 -0.1189  0.0396
26331W        W42805   6.940  15.910  14.720  0.1440  0.2453  0.1740
26332W        W42806  18.469   0.299  13.496 -0.0435  0.1823  0.0232
26333W        W42807  13.950  10.041   4.209  0.0776 -0.0200 -0.2003
26334W        W42808   1.835   7.697  12.658  0.1190 -0.2240  0.1101
26335W        W42809  16.330   4.855   0.032 -0.1977  0.0436 -0.0330
26336W        W42810  11.213  15.590   1.233  0.1465  0.5084 -0.0551
26337W        W42811   2.770  12.197  10.858 -0.1080 -0.1033  0.1081
26338W        W42812  14.418  11.548   1.910  0.1257  0.0608 -0.0719
26339W        W42813   4.062   5.018  10.453  0.3561  0.1121 -0.1191
26340W        W42814  11.977   9.285   1.041 -0.0953  0.0757 -0.3831
26341W        W42815   0.357   5.838   0.734  0.2942 -0.0245 -0.0269
26342W        W42816   4.465   4.410  12.707  0.0693  0.4450 -0.0300
26343W        W42817  11.931   3.937   3.097  0.1706  0.0612 -0.1210
26344W        W42818  14.911  14.639   0.494 -0.0175  0.1835  0.1547
26345W        W42819   2.080   1.372  13.076 -0.2426  0.0883  0.1428
26346W        W42820  10.731  13.803   0.548  0.1145 -0.2356 -0.3981
26347W        W42821   6.122  17.094   1.898  0.4450  0.3277  0.0439
26348W        W42822   8.140  12.220   2.266  0.1176  0.1353  0.3722
26349W        W42823   6.912   0.712  10.326  0.1057 -0.0421 -0.2827
26350W        W42824  13.275   2.832   2.513 -0.0753 -0.1803  0.1842
26351W        W42825  17.535  15.893   0.107  0.0260  0.2014  0.1397
26352W        W42826   1.851   0.454   2.704 -0.1203 -0.2559  0.2076
26353W        W42827   0.229  11.522   5.016 -0.1504 -0.1769  0.1471
26354W        W42828  16.989   6.368  11.145 -0.1442 -0.2255 -0.3174
26355W        W42829   6.100  12.562  13.016  0.0594  0.1334 -0.3074
26356W        W42830   7.536  13.170  14.328  0.0657  0.0868 -0.2835
26357W        W42831  15.114   5.099  13.017 -0.1091  0.2927  0.0655
26358W        W42832   4.414   3.689  13.539  0.1147  0.2858  0.0839
26359W        W42833   2.010  18.185   4.384  0.4275 -0.1932  0.3161
26360W        W42834   5.981  10.229   1.380  0.0244  0.2397 -0.3101
26361W        W42835   6.697   1.723  15.245  0.1792  0.1677 -0.0998
26362W        W42836   9.628  16.193   3.546  0.0903  0.1768  0.3424
26363W        W42837  17.768   4.760   0.065  0.1361  0.1703 -0.1727
26364W        W42838   9.922  15.603  14.242  0.2763  0.2587 -0.0134
26365W        W42839  13.460   4.255  14.497  0.0720 -0.2110 -0.2040
26366W        W42840  11.317   1.619  11.423  0.2412  0.2593 -0.2171
26367W        W42841   5.032   9.548   3.724  0.1599  0.0800  0.0121
26368W        W42842  18.529   7.215   3.185 -0.3657 -0.1981  0.0776
26369W        W42843   5.248   0.334  13.011  0.2434 -0.1237 -0.0718
26370W        W42844   5.454  16.521  13.523  0.1605 -0.1607  0.0946
26371W        W42845  16.596   5.489  13.055  0.0508 -0.1374 -0.1731
26372W        W42846  10.269   6.764  11.186 -0.0747  0.2771 -0.1269
26373W        W42847   8.070   8.813  13.502  0.1625  0.1289  0.0139
26374W        W42848  13.973  10.390   3.788 -0.3025  0.3450 -0.4128
26375W        W42849   5.983   6.995   2.085 -0.0048 -0.0606 -0.0910
26376W        W42850  10.427  11.025  13.758  0.0766  0.1240 -0.1267
26377W        W42851   1.626   4.826   1.004 -0.3548  0.0221 -0.0876
26378W        W42852   2.472   8.768   0.619  0.2314  0.1739  0.2626
26379W        W42853   6.465   9.963  13.320 -0.2682 -0.1940  0.0586
26380W        W42854  17.665  15.224   1.218 -0.0701  0.0008  0.3160
26381W        W42855   2.604  11.517   1.930 -0.1013 -0.0280 -0.0443
26382W        W42856   4.160   3.785   2.787  0.2339 -0.2289  0.0977
26383W        W42857  15.740  13.082   1.984 -0.1196 -0.0517  0.0228
26384W        W42858   0.802   2.794   4.269  0.5296 -0.3676 -0.1164
26385W        W42859   5.971  13.696   0.701  0.1635  0.1322 -0.1292
26386W        W42860   9.112  10.383   5.558 -0.1911  0.3109 -0.1881
26387W        W42861  17.448  14.977  14.696  0.0693 -0.1744 -0.1667
26388W        W42862  11.886   6.319  11.594 -0.1586  0.1951 -0.3252
26389W        W42863  17.569  11.803  10.914  0.1507 -0.0946 -0.0340
26390W        W42864   3.430   5.091   4.341  0.0464  0.2673  0.2972
26391W        W42865  14.826  13.455  12.229 -0.0437 -0.1705 -0.0560
26392W        W42866   9.311  17.531  13.991  0.0678 -0.0712 -0.2040
26393W        W42867   4.685  16.720   2.944  0.1931 -0.1395  0.2170
26394W        W42868  16.474  10.940   0.609 -0.0078 -0.1490 -0.0195
26395W        W42869   9.843   0.961   5.667 -0.3203 -0.0607  0.0227
26396W        W42870   4.109   1.991  13.434 -0.1896  0.0693  0.2215
26397W        W42871   7.269   2.559   1.021 -0.1758 -0.1306 -0.1199
26398W        W42872  12.984   4.348   3.798 -0.0307 -0.0965 -0.1212
26399W        W42873   0.196  14.104   5.057 -0.4184  0.2183 -0.3438
26400W        W42874   0.150   8.189  13.144  0.2034 -0.2036  0.0594
26401W        W42875   4.729   6.279   2.086 -0.0003  0.1273  0.3342
26402W        W42876   9.063  10.534   4.741  0.1905 -0.0153  0.0330
26403W        W42877   0.538   0.870  11.823 -0.0743  0.0693 -0.0028
26404W        W42878  12.058  13.296   4.948 -0.0248  0.0424 -0.1041
26405W        W42879  10.041   4.708   2.477 -0.0729  0.0549  0.1454
26406W        W42880   6.123  17.711  15.260  0.2875  0.1132  0.1471
26407W        W42881  15.883   7.802  11.570 -0.0458 -0.3438 -0.0210
26408W        W42882   2.050  10.359  13.611  0.1021 -0.2299  0.0691
26409W        W42883   2.167  11.211   4.715  0.0222 -0.0856 -0.2969
26410W        W42884   3.101   7.741   1.124  0.3380 -0.2593 -0.0221
26411W        W42885  18.009  13.642  12.886 -0.0218 -0.1077  0.1498
26412W        W42886   3.125  16.365   2.074 -0.1223  0.1218 -0.0494
26413W        W42887   9.854   7.541  13.697  0.2472  0.0330  0.0955
26414W        W42888   3.347   0.355   1.182  0.0908  0.2150  0.2530
26415W        W42889   9.146   8.339   0.122  0.3258 -0.1939  0.2563
26416W        W42890   4.841   6.909   3.506 -0.2174  0.1896  0.2659
26417W        W42891  13.971   1.669   0.173  0.0339  0.1055  0.2001
26418W        W42892   2.306   3.669   3.260 -0.1429 -0.0390 -0.0605
26419W        W42893  16.410   6.354   5.031  0.0294 -0.0070 -0.3332
26420W        W42894   0.861  16.081  14.935 -0.1714 -0.0274  0.0287
26421W        W42895   1.927  11.172  12.010 -0.0715 -0.1943  0.0639
26422W        W42896   1.501  17.728  11.875 -0.2715  0.2577  0.0542
26423W        W42897   2.215  16.344  14.641  0.1891 -0.1030 -0.2598
26424W        W42898  18.426   9.147  13.142 -0.3807  0.3181 -0.1190
26425W        W42899   5.873   6.014  13.000 -0.0266 -0.0250  0.1600
26426W        W42900   7.749  13.993   0.945 -0.0158 -0.0147  0.0680
26427W        W42901   3.292   2.289  13.753 -0.0215  0.2887 -0.0088
26428W        W42902  12.028   9.087  15.565 -0.0511 -0.1117  0.0566
26429W        W42903  13.239  17.942  11.604  0.2223 -0.1544  0.0636
26430W        W42904   3.337  16.041   4.855 -0.1742 -0.1312  0.1640
26431W        W42905  14.132  12.023  12.027  0.0596 -0.1700 -0.1120
26432W        W42906   6.562  17.805  12.537  0.1331  0.1100  0.0692
26433W        W42907  10.940  13.984  11.700 -0.2645 -0.0232 -0.1230
26434W        W42908  16.772   8.516  12.533 -0.1257  0.1899 -0.0628
26435W        W42909   2.416   4.329   2.325 -0.0804  0.2209  0.2012
26436W        W42910  14.697  13.102  14.595 -0.0596 -0.3123 -0.0976
26437W        W42911   0.420  13.889   2.169  0.0358  0.1150  0.2193
26438W        W42912  18.038  14.904   5.059  0.1797  0.1771 -0.1156
26439W        W42913  15.678   9.123   0.628  0.0825  0.3701  0.1848
26440W        W42914  18.409   0.562   0.067 -0.3285 -0.0058 -0.0091
26441W        W42915   6.144   9.444  12.304  0.0072  0.1266 -0.3057
26442W        W42916  18.695  17.066  11.487  0.0655 -0.0201 -0.1299
26443W        W42917   5.978  12.916  11.029 -0.1757  0.0890 -0.2463
26444W        W42918  17.976   2.647  14.901  0.4189 -0.2730  0.0020
26445W        W42919   4.887  11.855  12.900 -0.0034 -0.0773  0.1924
26446W        W42920   6.914   7.436   5.195 -0.1709 -0.3670 -0.1535
26447W        W42921  17.929   7.237   5.972  0.2524 -0.1636  0.1030
26448W        W42922   6.050  14.128   1.057  0.1026  0.1195 -0.1733
26449W        W42923   2.492   3.250  13.532  0.2815 -0.1700  0.0994
26450W        W42924   9.254  16.937   5.385 -0.2139 -0.0251 -0.4608
26451W        W42925   2.225   3.696  12.815  0.0508  0.3484  0.2741
26452W        W42926  17.565   1.151  13.450 -0.4034 -0.0851 -0.3326
26453W        W42927   0.824   5.364  12.848 -0.1088 -0.1901  0.1279
26454W        W42928   4.312  11.725  11.254 -0.3896 -0.2022  0.0958
26455W        W42929   7.343  17.002  11.919  0.2850 -0.0723  0.1252
26456W        W42930   8.994  10.965  14.548 -0.4872  0.0199 -0.3020
26457W        W42931  11.283  11.935   4.069 -0.0843 -0.2524 -0.2850
26458W        W42932  14.554  18.396   1.229 -0.2011 -0.1767 -0.2386
26459W        W42933  10.253  14.265   3.567 -0.1388  0.1797 -0.2634
26460W        W42934   9.315  11.390   2.171  0.0014  0.0903 -0.3224
26461W        W42935   6.671  12.991  13.336  0.2388 -0.0186  0.0005
26462W        W42936  11.114  15.637   1.730 -0.1260 -0.0001 -0.3852
26463W        W42937  14.935   3.644   4.422  0.0719  0.2615  0.1605
26464W        W42938  13.709  11.722   2.603  0.1021 -0.1940 -0.0170
26465W        W42939   3.237   7.155  13.152  0.0255 -0.1139  0.1114
26466W        W42940  17.330   3.732   3.117  0.0774  0.3261  0.1812
26467W        W42941   4.486  13.702   5.554 -0.1736 -0.2105 -0.2871
26468W        W42942   9.116   2.112  12.515 -0.4685  0.0569  0.0725
26469W        W42943  16.536   3.332   4.226  0.1251 -0.1802  0.1050
26470W        W42944  18.248   1.769   1.919  0.3871 -0.0233  0.0138
26471W        W42945  13.249   5.305  13.607 -0.1519  0.0098 -0.3681
26472W        W42946   1.268   9.185  12.680  0.2033 -0.3243  0.0843
26473W        W42947  15.422   4.666  11.883 -0.0925  0.1843 -0.3748
26474W        W42948   1.349  14.228  13.050 -0.0744  0.1851 -0.3521
26475W        W42949   4.649   2.752   4.148  0.3263 -0.2259 -0.0332
26476W        W42950  18.358   4.538  12.882 -0.0368 -0.1501  0.2085
26477W        W42951  17.093  13.880  10.322 -0.0444  0.3319 -0.1181
26478W        W42952  13.652   3.840   1.971  0.0447 -0.0720  0.0954
26479W        W42953  17.154  18.268  14.429  0.0607  0.1568  0.4031
26480W        W42954  12.015  10.915  12.560 -0.4449  0.1408 -0.1959
26481W        W42955   8.261   8.887   5.360 -0.0550 -0.0859  0.1086
26482W        W42956  14.421   2.631  12.226 -0.1993 -0.0371  0.0794
26483W        W42957  14.371   1.771  12.363 -0.1038  0.0120 -0.0344
26484W        W42958   5.965  16.402   1.310  0.0940  0.0342 -0.1209
26485W        W42959  17.962   2.205  12.603  0.2129  0.3903 -0.5213
26486W        W42960  10.689  14.876   5.579  0.1349  0.1748  0.2384
26487W        W42961   8.014  10.717  10.999  0.0423 -0.1585 -0.1093
26488W        W42962   0.083  16.425   3.645 -0.3721 -0.1384 -0.0669
26489W        W42963   1.213  11.874  10.290 -0.0833 -0.0628 -0.0089
26490W        W42964   2.448   5.128  12.353  0.0314 -0.1055  0.0936
26491W        W42965   9.632   3.390   4.670 -0.1399 -0.1058 -0.2426
26492W        W42966   4.199   6.908  11.415  0.0633  0.2449  0.1260
26493W        W42967   8.355  15.222   5.206  0.0424  0.3163  0.0624
26494W        W42968  15.941   5.024  13.233  0.0760 -0.0092 -0.2051
26495W        W42969   0.579   6.716   3.242  0.0486  0.0062 -0.3492
26496W        W42970   7.797  11.250  15.226 -0.0668 -0.3128 -0.0197
26497W        W42971   6.539  13.827   4.667 -0.0583 -0.1750 -0.0940
26498W        W42972   7.575   0.222  12.314  0.1074 -0.1264 -0.0627
26499W        W42973  10.057  11.476   2.028 -0.2248 -0.0088  0.0325
26500W        W42974   1.805   0.510  11.451 -0.4354  0.2531 -0.1611
26501W        W42975  12.604   9.426  12.708  0.0005  0.1086 -0.1819
26502W        W42976   9.671   5.914   2.010  0.2681  0.0385 -0.1422
26503W        W42977   6.370   1.253   2.136 -0.0478  0.2126  0.0851
26504W        W42978   9.892  16.277  11.307  0.1472 -0.1156  0.3349
26505W        W42979   6.600   0.952  10.631 -0.0035  0.0712  0.0704
26506W        W42980   8.078   1.952   2.709 -0.3680 -0.1463 -0.3712
26507W        W42981  17.202   8.420   1.655 -0.0625 -0.1442  0.2030
26508W        W42982  14.284  13.418   4.357 -0.2280  0.4975 -0.0663
26509W        W42983   9.127  17.126  12.746 -0.1478 -0.0814 -0.0764
26510W        W42984   2.335   0.508  13.906  0.1698  0.1442 -0.2385
26511W        W42985   8.057   7.811  13.321  0.1471  0.1898 -0.1822
26512W        W42986   3.486  10.174  11.769  0.1510 -0.2283 -0.1066
26513W        W42987   8.681  12.697  11.577 -0.0190 -0.2130 -0.1859
26514W        W42988   3.185   9.569  13.833 -0.3046 -0.1001 -0.1082
26515W        W42989   9.988  10.202  15.397  0.2904 -0.3334 -0.1292
26516W        W42990  14.837  16.246  11.638 -0.2831 -0.0433 -0.0124
26517W        W42991   9.799  11.757   3.639 -0.0742 -0.0740  0.1409
26518W        W42992   0.838  15.390   2.514  0.3960 -0.0396 -0.0318
26519W        W42993   3.185   4.801  13.744 -0.0761 -0.0101 -0.0186
26520W        W42994   3.480   3.603  14.439 -0.1725  0.2479 -0.1643
26521W        W42995  12.374  14.508   6.067 -0.0518 -0.0973 -0.0819
26522W        W42996   0.848   5.985   1.495  0.1452 -0.2890 -0.2299
26523W        W42997   3.877  14.903   9.938 -0.0094 -0.2783  0.1695
26524W        W42998   5.150   8.659   0.179 -0.1914  0.3315  0.0400
26525W        W42999  16.178   2.252   2.573  0.1551  0.0871  0.0318
26526W        W43000   6.829   0.394   5.838 -0.1160 -0.1111 -0.1971
26527W        W43001   0.533   1.372  10.946 -0.1018 -0.0485  0.1351
26528W        W43002  17.776  13.019   1.976 -0.4708  0.0937  0.2376
26529W        W43003   7.213   6.864  14.126 -0.1690  0.2446 -0.0365
26530W        W43004   5.313  10.826   5.487  0.4377 -0.2629 -0.0805
26531W        W43005   3.956   1.061  14.092 -0.0234  0.0220 -0.1737
26532W        W43006  11.824   5.877  11.908 -0.3669 -0.2484  0.0137
26533W        W43007   4.068  15.806   4.192  0.0942 -0.0615 -0.2464
26534W        W43008   7.423   5.286   4.923  0.0147 -0.1867 -0.0145
26535W        W43009  12.806   9.968   1.722  0.1950  0.3213  0.0527
26536W        W43010  18.618   3.180   2.690 -0.1963 -0.1559  0.1801
26537W        W43011  17.597   1.913  12.833  0.2613  0.1689 -0.4048
26538W        W43012  18.373   8.274  13.194 -0.2605 -0.2773 -0.0317
26539W        W43013  12.151   4.956   1.246  0.1969 -0.0894  0.1259
26540W        W43014   5.051  11.043   4.218 -0.2220 -0.0239  0.0946
26541W        W43015  17.283  10.281   1.351  0.2241 -0.0506 -0.2754
26542W        W43016  13.787  10.750  15.112 -0.0728 -0.3634  0.1627
26543W        W43017  11.281   1.090   2.624  0.0206  0.3233 -0.2568
26544W        W43018   2.251  12.841  15.128 -0.0540  0.1079 -0.1054
26545W        W43019   7.817   8.033   4.989  0.0735  0.3340 -0.0982
26546W        W43020  16.236  17.827   1.626 -0.4480 -0.0780 -0.1159
26547W        W43021   0.973   7.907   0.493 -0.2601  0.1849  0.0927
26548W        W43022  11.501  11.571  13.474 -0.1191 -0.0413  0.2557
26549W        W43023  10.885  10.297  13.910  0.1789 -0.0575 -0.0949
26550W        W43024   6.857   5.111  10.793  0.0365 -0.1324 -0.0385
26551W        W43025   3.906  18.010   3.595  0.0844  0.0727  0.0233
26552W        W43026   8.357  14.780   0.150  0.0225  0.0870  0.2841
26553W        W43027   3.876  15.827   3.416 -0.2825 -0.0889 -0.1208
26554W        W43028  15.322   5.971   4.413 -0.1226 -0.0549 -0.2348
26555W        W43029   0.793   3.018  13.382  0.0698  0.0470  0.1789
26556W        W43030   6.344  17.637   3.427 -0.3325  0.2291 -0.0353
26557W        W43031   3.018   2.446   4.412 -0.0212  0.2592  0.2795
26558W        W43032   5.915   3.880   3.191 -0.3175  0.2175 -0.2919
26559W        W43033  18.355  16.794   0.499  0.2434  0.2095  0.1479
26560W        W43034   6.196   6.978  10.736 -0.0777  0.0261  0.1742
26561W        W43035  14.747  11.443  11.730  0.1083 -0.1817  0.0617
26562W        W43036  10.925  12.684  12.097  0.1188 -0.1372 -0.0640
26563W        W43037   7.806  12.098  15.145 -0.0312 -0.1215  0.0279
26564W        W43038  18.529   6.925  11.581  0.2724  0.0314 -0.0370
26565W        W43039  10.367  17.582   0.033 -0.0703  0.0303  0.4700
26566W        W43040   2.327   2.693  14.799 -0.1518  0.2298 -0.1195
26567W        W43041   2.405   6.243   0.440  0.1079  0.1517  0.1949
26568W        W43042  15.914  12.502   5.789 -0.1325  0.0061  0.0391
26569W        W43043  18.264   6.373   3.421  0.2220 -0.3187  0.1790
26570W        W43044  18.159  13.254   5.137  0.3427  0.0343 -0.1329
26571W        W43045   3.395  18.568  11.465 -0.2062 -0.0688 -0.2757
26572W        W43046  17.730  10.970   2.405 -0.1058 -0.0493 -0.1062
26573W        W43047   6.385   5.296  12.546  0.1763 -0.1347  0.2195
26574W        W43048   0.389  15.307   0.037 -0.1052  0.0548  0.4202
26575W        W43049   6.750  15.115   4.350  0.0237 -0.0481 -0.2803
26576W        W43050   2.455  15.646   3.040  0.0231 -0.0627 -0.1338
26577W        W43051   2.701  16.161  13.101  0.0858  0.0952  0.0341
26578W        W43052   5.689   0.543   1.544  0.1088  0.0795 -0.1487
26579W        W43053  12.664   2.083  14.621 -0.0450  0.1394  0.1058
26580W        W43054  13.904  17.475   0.313 -0.1409 -0.2238 -0.0387
26581W        W43055  18.013   0.776   4.295 -0.0901  0.0475  0.2482
26582W        W43056   3.527   1.459  10.426 -0.0129  0.3090  0.0768
26583W        W43057  13.048  10.365   1.945 -0.0304 -0.3106 -0.2530
26584W        W43058   4.906  10.404  11.699  0.1809  0.1545 -0.0036
26585W        W43059   2.983  13.621   1.974 -0.1232 -0.1713 -0.0085
26586W        W43060   5.037   2.977  13.768  0.0209 -0.0649 -0.2011
26587W        W43061   8.842  14.149  15.393  0.1943 -0.1621 -0.0849
26588W        W43062   9.915   8.800  13.268 -0.4005 -0.0307 -0.2431
26589W        W43063   4.483   3.304  11.076 -0.0116 -0.1532 -0.1265
26590W        W43064   7.049   3.320  12.908 -0.1719  0.1488  0.1840
26591W        W43065   8.504  13.780   4.835  0.2113 -0.0188  0.1340
26592W        W43066  15.497   0.690  11.162 -0.1304  0.0510 -0.0019
26593W        W43067   4.282   2.187   1.584  0.1974 -0.0274 -0.1956
26594W        W43068  17.230   2.108  15.217  0.1162 -0.1167 -0.0037
26595W        W43069  18.270   8.045   1.756 -0.0310 -0.0741 -0.1516
26596W        W43070   8.097   9.990   4.618  0.0052  0.2711 -0.1542
26597W        W43071   4.930   6.794   2.997 -0.2007  0.0074  0.1414
26598W        W43072   1.415   1.037   4.328 -0.0784 -0.0887  0.0069
26599W        W43073   2.291  16.229  11.456 -0.0860 -0.0841  0.2731
26600W        W43074  17.138  15.857  11.388 -0.0549  0.0377 -0.0114
26601W        W43075   3.682   6.186   5.699 -0.1158  0.1831 -0.1252
26602W        W43076  17.676  14.362  15.420  0.0198  0.0037  0.1949
26603W        W43077   5.191  17.945   5.171  0.3217 -0.1413  0.0519
26604W        W43078  17.585   7.509   1.844  0.0854  0.1084  0.0091
26605W        W43079  14.574  17.082  13.861 -0.0011 -0.0090  0.1927
26606W        W43080   7.364   4.977  13.604 -0.6159  0.1108 -0.1343
26607W        W43081   2.829   7.707  14.660 -0.0695 -0.1171 -0.1220
26608W        W43082  12.925   5.653   6.074  0.1571 -0.2727  0.2016
26609W        W43083   6.207   1.372  10.710  0.1700 -0.1402  0.3720
26610W        W43084   7.556   5.002  10.608 -0.0227  0.2729 -0.0539
26611W        W43085   7.560  17.531  13.629  0.3024  0.0198  0.1184
26612W        W43086   0.557  13.719  11.731 -0.1952 -0.2155 -0.0714
26613W        W43087   5.184  18.732   1.627  0.0685  0.4563 -0.2041
26614W        W43088   7.803  13.439  12.333 -0.3235  0.3481 -0.1405
26615W        W43089   5.478  10.289   0.202 -0.2275  0.0254  0.0176
26616W        W43090  12.525  12.726   2.515  0.4497  0.0975  0.1030
26617W        W43091  15.697  17.479   3.604 -0.0369  0.0166 -0.1096
26618W        W43092  16.000  16.415  14.206 -0.0914  0.0680  0.0476
26619W        W43093   5.032   2.650   2.769 -0.0059  0.2316 -0.1760
26620W        W43094  16.891  16.857   0.602  0.1514 -0.3402  0.2894
26621W        W43095  18.635   3.287   0.378  0.1405  0.0397  0.1054
26622W        W43096  12.636   2.837   1.825 -0.2624 -0.1962  0.1055
26623W        W43097  12.359   6.755  12.235 -0.2924 -0.1987  0.0015
26624W        W43098  17.016   2.864  13.116 -0.1222 -0.4324 -0.1443
26625W        W43099   9.227  11.679   2.656 -0.1133  0.0707 -0.0184
26626W        W43100   4.404   9.320   2.408 -0.0470  0.0654  0.1066
26627W        W43101   9.503   9.719   3.632 -0.0553  0.1787  0.1278
26628W        W43102   2.589   2.429   1.979  0.5228  0.0028 -0.1484
26629W        W43103   3.231  12.310  12.456  0.0644 -0.2445 -0.1760
26630W        W43104   3.531  12.013   0.319 -0.2702 -0.0324 -0.0800
26631W        W43105  11.747   2.949   2.941  0.0947  0.0471 -0.0428
26632W        W43106  17.966  18.470  12.283  0.1215 -0.0551 -0.0131
26633W        W43107   7.986  11.370  13.547  0.2657  0.0103 -0.0124
26634W        W43108   3.282  10.206   0.253 -0.1557 -0.2633  0.2527
26635W        W43109  11.796  16.267   5.342  0.1955 -0.0795  0.1983
26636W        W43110   1.568   9.918   0.755 -0.1427 -0.1492  0.0863
26637W        W43111   4.695  10.201   2.345  0.1993 -0.4028 -0.1296
26638W        W43112  10.642   6.359  14.463 -0.0011  0.0728 -0.0627
26639W        W43113  14.426  15.829  13.495  0.0894  0.1723 -0.0190
26640W        W43114   9.940  16.243  12.557  0.0753  0.1194  0.2396
26641W        W43115  16.510  13.304  11.397 -0.0898 -0.0591 -0.0322
26642W        W43116  16.218   7.141   1.522  0.1933  0.0973  0.1246
26643W        W43117  12.623  15.764  13.684 -0.0652  0.0150  0.0285
26644W        W43118   5.258   0.664   0.306 -0.3077 -0.2329 -0.1515
26645W        W43119  10.925   7.714   4.319  0.5399  0.0263 -0.0826
26646W        W43120   3.903  12.585   2.794 -0.0311 -0.0015  0.0457
26647W        W43121   9.452  13.156   3.392  0.2536 -0.3059 -0.2044
26648W        W43122   6.588  12.577   1.006  0.0778  0.1631  0.0826
26649W        W43123  17.193  10.675  13.455  0.0941  0.0946 -0.1141
26650W        W43124   1.313  18.506  12.529  0.0943  0.0872  0.1431
26651W        W43125   2.203   8.639   4.397 -0.1205  0.2552  0.1191
26652W        W43126  11.387   4.032  15.561  0.1762 -0.0695 -0.0483
26653W        W43127   9.313   3.181  14.201 -0.0798  0.1170 -0.0902
26654W        W43128  18.139  11.714   2.865 -0.2326  0.0592  0.0872
26655W        W43129   5.852   5.169  12.773 -0.0825  0.1561  0.1922
26656W        W43130  17.165  11.033  14.827  0.0113  0.0133  0.0848
26657W        W43131  10.362   9.057  11.504 -0.1389  0.0986  0.0583
26658W        W43132  18.076   4.429   4.012  0.0941 -0.2250 -0.1782
26659W        W43133  18.543   6.262  15.115 -0.0179  0.1997 -0.1262
26660W        W43134  17.305  11.274  15.570  0.2082  0.1993 -0.0544
26661W        W43135  17.491  10.742  14.610  0.0701  0.0654 -0.1498
26662W        W43136  12.262   4.334  15.276  0.2649 -0.3776 -0.0802
26663W        W43137  13.264   4.256   1.904  0.0986  0.1547 -0.2325
26664W        W43138  10.919  18.627  13.739  0.2001 -0.1443  0.0220
26665W        W43139   4.879   4.031   1.541 -0.3408  0.1066 -0.0566
26666W        W43140  13.422  10.002  13.125  0.2499  0.2963  0.2390
26667W        W43141  14.775   2.504   5.295  0.1158  0.2374 -0.1223
26668W        W43142   3.972  12.082   0.147  0.1015 -0.0765  0.0192
26669W        W43143  11.666  17.096   2.317  0.0631  0.2040 -0.0842
26670W        W43144  15.953  16.745  13.801  0.2484 -0.0857 -0.2080
26671W        W43145  11.594   7.938  10.878  0.1338  0.1057  0.0339
26672W        W43146  18.339   9.656   0.998  0.0216  0.0534 -0.0206
26673W        W43147   9.193  16.400   0.807  0.0362  0.2124 -0.1283
26674W        W43148  13.452  17.713  14.506  0.0932 -0.1272 -0.0278
26675W        W43149   3.560   9.103  15.035  0.2835 -0.0763 -0.4330
26676W        W43150   6.800   6.278   4.570 -0.1250 -0.1805  0.3720
26677W        W43151   4.114  16.664   3.753 -0.0467  0.1574 -0.3463
26678W        W43152   9.177   9.101  13.410 -0.0869  0.2025 -0.1167
26679W        W43153   1.942  12.595   3.152  0.1336 -0.0876 -0.0045
26680W        W43154  17.122   0.257  15.298 -0.3588  0.0028 -0.4038
26681W        W43155  13.853  11.257   0.745  0.1279  0.1478  0.0361
26682W        W43156   1.126  17.912  13.672  0.2318 -0.0312  0.4199
26683W        W43157   1.075  13.215  12.932  0.0137  0.3264  0.2570
26684W        W43158   5.566   0.856   1.967 -0.1821 -0.1639 -0.1926
26685W        W43159   3.133   3.079   4.170  0.3357 -0.0335  0.1950
26686W        W43160  12.371  14.297   3.581 -0.1081 -0.0010 -0.0422
26687W        W43161   7.894  12.478  13.517 -0.2219  0.0538  0.0211
26688W        W43162   7.832   5.605  11.175 -0.0030  0.3711 -0.0332
26689W        W43163  11.527   8.260   4.733 -0.0621 -0.0800 -0.0772
26690W        W43164  14.581   7.739   4.957  0.1872  0.0423  0.1505
26691W        W43165  15.679   8.214  14.817  0.0207 -0.1139 -0.1821
26692W        W43166   9.855   4.339  10.862 -0.0957 -0.0035 -0.2727
26693W        W43167  11.402  17.288   1.359  0.0148  0.2079 -0.0723
26694W        W43168  11.050   7.376   2.450 -0.2468 -0.0208 -0.2937
26695W        W43169  10.951  16.156   2.195  0.2292  0.1908  0.2956
26696W        W43170   5.233  15.051   3.462 -0.0682  0.0005  0.3093
26697W        W43171   4.214   2.701   0.702  0.0273  0.0337 -0.0281
26698W        W43172   2.882   2.767  14.922  0.0451 -0.5099 -0.1215
26699W        W43173  13.388   5.516   4.815 -0.2299  0.0317 -0.1256
26700W        W43174   7.218  14.159  15.489  0.0769  0.0258  0.1255
26701W        W43175   9.017  10.185  14.828  0.2504 -0.1176 -0.0182
26702W        W43176   0.225  15.786  14.258 -0.0080  0.1018 -0.1538
26703W        W43177  15.144  15.231   4.696 -0.0433  0.3381 -0.1069
26704W        W43178  11.386   4.851  10.482 -0.1530  0.0839 -0.0651
26705W        W43179   1.846   2.340   4.717  0.4368 -0.1615  0.1584
26706W        W43180   6.359   7.583  13.683  0.0409  0.4949  0.2763
26707W        W43181   9.633  12.656  11.885  0.1323  0.1476 -0.0781
26708W        W43182   4.058   1.457  10.569 -0.0408  0.0106  0.1970
26709W        W43183   9.078   4.124  13.214 -0.4006 -0.0136  0.0007
26710W        W43184  16.843  18.087  11.928 -0.0024 -0.0259  0.3569
26711W        W43185  14.024  16.896  13.806 -0.1295 -0.3632 -0.0181
26712W        W43186  10.121   1.346   5.806  0.0183  0.0766 -0.2607
26713W        W43187  11.065   6.540  14.602 -0.2025 -0.0942  0.2302
26714W        W43188  10.719  16.584  14.161 -0.3015  0.0103 -0.1983
26715W        W43189   5.316  14.889   0.570  0.2431 -0.0840 -0.2142
26716W        W43190   0.132  13.680  13.843 -0.1042  0.3882 -0.0251
26717W        W43191  10.411   7.012  15.460  0.0617 -0.3349  0.4522
26718W        W43192  17.733  15.828  13.059  0.1555 -0.0675  0.2075
26719W        W43193  10.974  15.528   6.384 -0.0086  0.1853 -0.0017
26720W        W43194  12.659  10.292   4.106  0.0350  0.0124  0.2038
26721W        W43195   3.979   4.473   1.404  0.1630 -0.0918  0.1225
26722W        W43196   5.432  18.248  13.111 -0.2301  0.0896  0.3654
26723W        W43197   2.899   6.111  11.681 -0.0761  0.1907  0.0234
26724W        W43198  18.255   4.471  14.283  0.0678 -0.1464  0.0065
26725W        W43199  15.768   2.224  13.783  0.1413  0.0705 -0.2620
26726W        W43200  14.971   6.903   2.130 -0.0372 -0.4047  0.2719
26727W        W43201   9.249   2.077  15.508  0.0483 -0.0950  0.1061
26728W        W43202  14.721  15.958   0.281  0.0758  0.2032  0.0621
26729W        W43203   6.482  13.181   4.327  0.2092 -0.0136  0.0853
26730W        W43204   4.060   9.763   0.546 -0.1439  0.1504  0.1305
26731W        W43205  17.778  14.350   0.739  0.0053  0.0891  0.1787
26732W        W43206  17.676   0.065   3.275  0.4851  0.0020 -0.0036
26733W        W43207  11.854   5.342  12.452 -0.0113 -0.0330 -0.1455
26734W        W43208  15.658   8.413  11.515  0.4736 -0.0619 -0.1596
26735W        W43209   1.558  11.516  11.678  0.0100  0.0337  0.1618
26736W        W43210  11.519   5.921  11.510 -0.1282  0.0183  0.0690
26737W        W43211   6.419  16.865   1.139 -0.1492 -0.1171 -0.0324
26738W        W43212   5.781  10.874   4.639  0.1801 -0.1056 -0.1781
26739W        W43213  18.107   9.822   0.626 -0.1003  0.0328 -0.0691
26740W        W43214  17.264   5.209   2.744 -0.1115 -0.4307 -0.3376
26741W        W43215  14.330  17.071  11.545 -0.1113  0.1329  0.1916
26742W        W43216   5.206   9.925  14.228  0.1252  0.0257  0.0656
26743W        W43217   9.671  17.316   4.733 -0.1892  0.1387  0.0463
26744W        W43218  15.881   4.653  14.360  0.0688  0.2733  0.2548
26745W        W43219   3.923  10.524  14.542 -0.0397  0.1686 -0.0374
26746W        W43220   1.214  16.095   3.147 -0.1284  0.2516 -0.1195
26747W        W43221   2.887   5.298  12.369 -0.1017 -0.1839  0.0675
26748W        W43222   6.829  14.017   0.189  0.0234 -0.2135  0.1840
26749W        W43223   5.878  11.829   4.900 -0.2329  0.0971 -0.1351
26750W        W43224   9.765   3.828  13.609 -0.0822 -0.1899 -0.1085
26751W        W43225  14.234   4.639   2.007 -0.0373 -0.1562 -0.2119
26752W        W43226  12.043   8.107   4.964 -0.1946 -0.0013  0.0337
26753W        W43227   4.848  10.629  13.927 -0.1821 -0.1022 -0.1156
26754W        W43228  13.397  18.278   2.237  0.0827  0.0839  0.1986
26755W        W43229  10.749  14.616   4.187 -0.0431  0.2806  0.1758
26756W        W43230  10.462   8.440  11.441  0.1275  0.2754  0.1967
26757W        W43231   5.012  10.425   4.295  0.1068 -0.3580 -0.1410
26758W        W43232   1.228   6.593  14.657  0.2287  0.0524 -0.3905
26759W        W43233  11.092   2.440   3.532  0.0669 -0.0714  0.1895
26760W        W43234  17.185   4.066   4.226  0.0820  0.0805 -0.2017
26761W        W43235  14.407  15.008   1.743  0.1615 -0.2190  0.1196
26762W        W43236  11.400  11.096  14.426  0.1230  0.1006  0.1253
26763W        W43237   7.723   6.408  11.315  0.2729  0.0123 -0.0575
26764W        W43238  12.153  13.619  14.650 -0.3058  0.1445  0.1313
26765W        W43239  18.755   5.116  13.310  0.3872 -0.0382 -0.0626
26766W        W43240  14.811   3.210   3.607 -0.2224  0.3242 -0.1588
26767W        W43241   7.263   5.358  12.754 -0.0386  0.0645 -0.1260
26768W        W43242  15.918   8.651  11.072 -0.1058  0.1107 -0.1846
26769W        W43243  16.496   9.515  12.327 -0.0563  0.0091 -0.1376
26770W        W43244  18.299  15.996   1.109  0.2756  0.0318 -0.1347
26771W        W43245  11.756   2.399   4.689 -0.3429 -0.3092  0.0504
26772W        W43246   1.141  13.958  10.660  0.2505  0.0981 -0.0703
26773W        W43247  12.104  16.025  11.991  0.2438  0.1325 -0.0109
26774W        W43248   1.507  10.429  12.421  0.0242 -0.0216 -0.2033
26775W        W43249   9.370  14.208  15.164  0.1592  0.2776 -0.2786
26776W        W43250  17.729   0.346   4.124 -0.1650  0.3118  0.0052
26777W        W43251   5.518   2.801   2.056 -0.1245 -0.1684  0.3582
26778W        W43252   6.320   7.168  14.648  0.4091  0.0211 -0.2539
26779W        W43253  13.056   6.781   4.635 -0.2300 -0.2523  0.1694
26780W        W43254   7.545   1.078   3.493 -0.2453  0.0604 -0.2172
26781W        W43255   6.799  12.976   2.169 -0.2404 -0.2042 -0.1956
26782W        W43256   8.498   1.996   1.428 -0.2030 -0.0295 -0.0114
26783W        W43257   1.673   2.702   2.544 -0.0096 -0.0125  0.2818
26784W        W43258  14.548  12.187  11.779  0.2251  0.1566 -0.1603
26785W        W43259   5.152  11.498   2.461 -0.0025 -0.0253  0.2414
26786W        W43260  12.342  11.520   5.057 -0.2577 -0.1745  0.1743
26787W        W43261  15.711   1.453  14.949 -0.1512 -0.0131  0.0308
26788W        W43262   1.674  14.810  10.459  0.1510 -0.0595  0.4256
26789W        W43263  14.326  10.261  13.112 -0.1713 -0.1639 -0.4516
26790W        W43264   5.762  13.870  12.425  0.0078  0.0184  0.0423
26791W        W43265   6.959   3.328   1.852 -0.1520 -0.0038 -0.0761
26792W        W43266   0.925   9.564  12.887  0.1153 -0.2007  0.2663
26793W        W43267  17.491  10.932   1.946 -0.2245  0.0701  0.2935
26794W        W43268  10.191  18.402  15.438  0.0661 -0.1944  0.0587
26795W        W43269   4.197  14.014   2.337  0.4259 -0.2635  0.0593
26796W        W43270  18.520   2.341  11.279  0.0931 -0.3143  0.5181
26797W        W43271  18.408  14.327   1.906 -0.0461  0.2715  0.4098
26798W        W43272  11.013   2.292  11.433  0.1591  0.0847 -0.2714
26799W        W43273   7.565  18.286  11.993 -0.0298 -0.1681  0.3324
26800W        W43274   3.719   5.051  13.115 -0.1895 -0.1356  0.0166
26801W        W43275  18.395  18.624   3.479 -0.1695  0.0736 -0.0392
26802W        W43276   5.748  13.638   4.302 -0.1077  0.2543 -0.2500
26803W        W43277  17.232   0.669   2.849  0.2130  0.0431 -0.5011
26804W        W43278  17.817  11.437   3.714  0.0538 -0.4759 -0.5183
26805W        W43279  16.127   1.866  11.284  0.0808 -0.2534  0.2446
26806W        W43280   1.146   5.680  13.579 -0.2920  0.1144  0.1241
26807W        W43281   4.706   6.013  14.361 -0.2770  0.0003 -0.2906
26808W        W43282   3.743  17.414   1.604 -0.0603 -0.2841  0.0534
26809W        W43283  17.735  10.044   1.445  0.0717 -0.0482  0.2207
26810W        W43284   0.874  17.002   0.927 -0.2723 -0.1417 -0.1352
26811W        W43285  13.406   8.547  11.787 -0.1135 -0.2079  0.0065
26812W        W43286   5.406   5.995  14.304  0.0411  0.2140  0.1353
26813W        W43287   6.851  14.942  13.766 -0.0468 -0.0945  0.1577
26814W        W43288   6.177  12.103  12.746 -0.1208  0.2242  0.1079
26815W        W43289   1.693   1.833   2.480  0.0183 -0.0125  0.0934
26816W        W43290  12.135  14.896  13.761 -0.2690  0.0116 -0.0334
26817W        W43291  13.195   3.021   0.035 -0.0815  0.0901 -0.0608
26818W        W43292  13.349  13.496  14.074  0.3935  0.0886  0.2817
26819W        W43293   8.534  10.641  13.772 -0.2832  0.1257 -0.2071
26820W        W43294  17.252   6.684  14.008 -0.2826 -0.0742 -0.1929
26821W        W43295  17.946  10.589  15.328 -0.0493 -0.1550 -0.0229
26822W        W43296  13.484  12.858   0.364  0.2216  0.0351  0.1196
26823W        W43297   0.446   6.569   2.243  0.4427 -0.0327  0.1417
26824W        W43298   4.362  12.788   2.922 -0.0213  0.0748  0.0514
26825W        W43299  12.684   7.640  12.811 -0.0352 -0.0334 -0.4093
26826W        W43300  11.084   0.486   1.823  0.1773  0.1156  0.3031
26827W        W43301   6.482   1.050  14.432  0.2252  0.0816 -0.1339
26828W        W43302   5.196   6.272   9.643  0.3307  0.0663  0.3551
26829W        W43303  15.113  17.201  11.527 -0.0209 -0.4184  0.1229
26830W        W43304   0.644  13.987  12.805  0.3789 -0.1723  0.2090
26831W        W43305  18.271  15.503  10.721  0.0844 -0.2391  0.0584
26832W        W43306  16.389   6.740   1.869  0.0118 -0.1244 -0.0022
26833W        W43307   0.102  14.260  12.072 -0.0873 -0.1567  0.1436
26834W        W43308   8.666   4.724  12.587  0.0210  0.0039  0.1014
26835W        W43309   7.325  11.088  11.619 -0.0713  0.1463  0.1259
26836W        W43310   2.945  17.797   1.476  0.2146 -0.2486 -0.0715
26837W        W43311   0.294  18.226   3.139  0.0878  0.2011 -0.1022
26838W        W43312   5.024  16.460   3.521  0.1540  0.2659 -0.0842
26839W        W43313  18.702   2.179  14.878  0.0701 -0.2381  0.0707
26840W        W43314   8.301  18.403  15.013  0.1238 -0.0104 -0.1634
26841W        W43315  12.741   3.865   2.619  0.0655 -0.3955  0.0685
26842W        W43316   1.729   4.178  14.498 -0.1823  0.0888  0.2138
26843W        W43317   4.226  15.312  10.649 -0.1257  0.0279 -0.2842
26844W        W43318   5.088  16.766  11.283 -0.2916  0.2752 -0.1476
26845W        W43319   8.310   6.651  14.074 -0.2285  0.2875 -0.0399
26846W        W43320  16.313  16.026   3.915  0.1533  0.1141  0.2067
26847W        W43321  16.240  17.306  14.966 -0.0573 -0.1349 -0.4355
26848W        W43322  13.464   6.494   3.475 -0.2457 -0.2752 -0.3573
26849W        W43323   9.686  17.045   1.690 -0.1830  0.1732 -0.0458
26850W        W43324  15.756   1.925  12.164 -0.2428 -0.0143 -0.2006
26851W        W43325  15.154  10.916  11.021 -0.0522 -0.1593  0.0642
26852W        W43326   2.366  11.479   0.929 -0.0923 -0.1900  0.2951
26853W        W43327  10.873  13.344   1.201  0.0476 -0.0890 -0.0480
26854W        W43328   1.866   4.038  12.464 -0.1754  0.0535 -0.0968
26855W        W43329  14.356  16.200  11.323  0.1623  0.0283  0.1042
26856W        W43330   7.682   9.781   2.871 -0.0082  0.2211 -0.0878
26857W        W43331   7.042  17.541  13.170 -0.0653 -0.0600 -0.1224
26858W        W43332  14.888  16.875   4.818  0.0603 -0.1290  0.2148
26859W        W43333   8.466   5.433   4.474  0.4200 -0.1056 -0.0808
26860W        W43334   4.648   8.540  12.114 -0.2390  0.1393  0.2441
26861W        W43335   7.704  15.893  11.267  0.0350  0.0224  0.0913
26862W        W43336   2.081  14.122  12.227 -0.5218 -0.0045 -0.3824
26863W        W43337  13.827   6.655  12.545 -0.1773  0.1036 -0.1636
26864W        W43338   8.043   0.544   4.201 -0.1994 -0.1400  0.0234
26865W        W43339   3.340   5.233   9.523 -0.2083 -0.1397 -0.2539
26866W        W43340   7.813   1.990  11.784 -0.2111  0.0590  0.0423
26867W        W43341  17.602  18.692  14.120 -0.4238  0.0974  0.0362
26868W        W43342  11.626  16.430  11.266  0.1802  0.1658 -0.1736
26869W        W43343  15.420   8.659  11.067 -0.1355  0.0189  0.0742
26870W        W43344   1.873   9.081  14.572 -0.0919  0.1443 -0.1153
26871W        W43345  15.069  10.826   4.474  0.0664  0.0180  0.1135
26872W        W43346  10.693  11.139   0.952  0.1197 -0.2927  0.3395
26873W        W43347  17.763  11.116   0.876  0.2105  0.1515 -0.0026
26874W        W43348  13.039   6.717  13.599 -0.2753 -0.2757 -0.1163
26875W        W43349   7.611   0.619   1.170 -0.0306 -0.3685  0.0654
26876W        W43350   5.559   9.801  11.244 -0.0341 -0.0773  0.4346
26877W        W43351  16.246   8.536   3.913 -0.0069 -0.1025 -0.0205
26878W        W43352  14.658  14.956   0.135 -0.1258 -0.0082  0.0250
26879W        W43353  10.012  16.055   1.336  0.1950  0.2799  0.1153
26880W        W43354  12.670   3.946   1.076 -0.0789  0.1786 -0.1536
26881W        W43355  18.673  12.347   0.496  0.4124 -0.0596  0.0666
26882W        W43356   3.356   5.113  12.224 -0.0033  0.0894 -0.4343
26883W        W43357  16.972   0.258   1.182  0.3505 -0.1038 -0.0809
26884W        W43358   1.742   1.814   4.904  0.0467 -0.2170  0.1816
26885W        W43359   8.310   8.402  11.650  0.1548  0.1937 -0.0856
26886W        W43360  13.467   2.149  12.068  0.0348 -0.2860  0.1244
26887W        W43361  13.352   4.546   1.425 -0.1798  0.0442  0.2055
26888W        W43362  17.970   8.666   3.186 -0.0565 -0.0237 -0.0331
26889W        W43363  12.794   1.962  15.091 -0.1043 -0.0002  0.2588
26890W        W43364  11.436   0.382   4.040 -0.0690 -0.0074 -0.2575
26891W        W43365   0.096   8.119   4.975  0.0624  0.3009 -0.1075
26892W        W43366  16.919  13.123   4.484  0.1886 -0.0792  0.0635
26893W        W43367   4.963   6.352   0.686  0.0595  0.1103 -0.1749
26894W        W43368   4.665   3.498   3.956 -0.1950 -0.0572  0.1776
26895W        W43369  17.630   8.688  13.147  0.0171 -0.0118 -0.0803
26896W        W43370  10.530  17.386   1.943  0.1738  0.0926  0.1726
26897W        W43371  15.611   4.292  13.156 -0.0581 -0.1010  0.2220
26898W        W43372  13.991  16.083  10.324 -0.0269  0.2366 -0.1413
26899W        W43373   5.098   1.992  12.963 -0.0787  0.1671  0.1597
26900W        W43374  17.861  14.649  12.817  0.2183 -0.1094 -0.1202
26901W        W43375  17.450   6.202  15.035  0.4362 -0.0756 -0.0044
26902W        W43376  13.997   0.768   0.645 -0.0817  0.0912 -0.0915
26903W        W43377   1.895  18.126  14.385 -0.1104 -0.1053  0.1814
26904W        W43378   2.092   3.125  14.931 -0.3940  0.0071 -0.1388
26905W        W43379   3.990  17.802  10.271  0.0627  0.1209  0.5233
26906W        W43380  12.776  16.334   0.567 -0.1355 -0.1874 -0.0114
26907W        W43381  15.242  14.903   5.668 -0.2125  0.0241 -0.0053
26908W        W43382  14.523   7.083   2.043  0.1514 -0.1697  0.0712
26909W        W43383  16.396   9.266   1.222 -0.2132  0.0238  0.2611
26910W        W43384  13.063  13.025  13.831  0.1833  0.1488 -0.0756
26911W        W43385   6.895   0.462  14.543  0.0791 -0.0245 -0.2378
26912W        W43386  12.728  17.095  13.511  0.0870 -0.1443  0.1968
26913W        W43387  15.487   6.822  11.373 -0.0954 -0.0401 -0.3600
26914W        W43388  14.503   3.219   1.198 -0.3598 -0.2487 -0.0286
26915W        W43389   9.016   9.277  12.911  0.0187  0.0251 -0.0655
26916W        W43390   1.626   1.232   3.009 -0.0957  0.1895  0.0216
26917W        W43391   6.570   7.613   1.417 -0.1859  0.1919  0.0811
26918W        W43392   0.582  12.759   4.007 -0.1126 -0.1461 -0.4937
26919W        W43393   9.761  13.795   4.475 -0.2360  0.3398  0.0855
26920W        W43394  18.128   8.703  13.070 -0.0588 -0.2513 -0.0429
26921W        W43395  15.229   3.330   2.317 -0.2209 -0.1979 -0.0010
26922W        W43396   9.172   7.877   2.104  0.4884 -0.2233 -0.0107
26923W        W43397  15.263   8.028  15.016 -0.0621  0.3484 -0.2371
26924W        W43398  12.534   3.326  13.192 -0.1989  0.2514  0.1737
26925W        W43399   7.762  16.868   5.114 -0.0914  0.1839  0.2625
26926W        W43400  13.782  13.939   2.521  0.3522  0.1758 -0.2695
26927W        W43401   0.601   0.738  14.205 -0.0134 -0.0960  0.1405
26928W        W43402   7.436  14.628  15.507  0.0657 -0.0821  0.0949
26929W        W43403  16.769  18.579   3.000  0.2015  0.1004  0.1473
26930W        W43404  11.792  10.529   3.191  0.1858  0.0049  0.0225
26931W        W43405   1.409   9.235  10.405  0.2450  0.1862  0.1098
26932W        W43406   1.000  18.134  11.143  0.1110 -0.0499 -0.2183
26933W        W43407  15.988   6.457  14.665 -0.0457  0.0120 -0.0680
26934W        W43408  13.039   2.464   3.426 -0.1473  0.0498 -0.1947
26935W        W43409   9.111  17.488   4.537 -0.3050 -0.0754 -0.0458
26936W        W43410  10.634   2.033   2.574 -0.0464 -0.0850 -0.0849
26937W        W43411  10.661   1.701  11.802 -0.0850  0.0419 -0.1314
26938W        W43412  12.538  10.278  14.079  0.4369  0.0757 -0.1570
26939W        W43413   4.046   5.942  11.636 -0.1006 -0.0274 -0.1672
26940W        W43414  13.647   0.170  11.666 -0.2538  0.1850  0.1291
26941W        W43415   1.389   4.808  12.142 -0.0077  0.3609 -0.4409
26942W        W43416   3.822  11.643  11.556  0.0201 -0.1494  0.1902
26943W        W43417  18.643  13.666  11.674  0.4323  0.1462  0.1049
26944W        W43418   0.081  18.387  15.188 -0.3611  0.0878 -0.1670
26945W        W43419   2.550   7.527   1.978  0.2752 -0.0448  0.2618
26946W        W43420  10.318  15.940  12.922 -0.1040  0.1064  0.0938
26947W        W43421   3.813   9.636  13.806 -0.0819 -0.1486  0.3145
26948W        W43422  16.545   0.064   5.757 -0.0222  0.0031 -0.0922
26949W        W43423   1.050  16.352   0.483 -0.1258 -0.2817 -0.2129
26950W        W43424   0.614   2.017   2.918 -0.4705  0.0539  0.3337
26951W        W43425  14.051  12.271  14.483  0.1169  0.3726 -0.4256
26952W        W43426   8.511   6.602  13.598 -0.0113  0.2876  0.1390
26953W        W43427  16.473  17.441   3.961 -0.0476  0.0255  0.1255
26954W        W43428   5.968   6.280   0.438 -0.0554  0.0908  0.1692
26955W        W43429  17.872   9.451   0.934  0.1068 -0.2005 -0.0954
26956W        W43430   0.683   9.736  12.387 -0.1567 -0.0496  0.0582
26957W        W43431   1.528  15.173  12.031 -0.1118 -0.1666 -0.0575
26958W        W43432   4.158   6.430  15.144  0.3430  0.2484  0.0499
26959W        W43433   2.874   3.974  13.303  0.2376 -0.0998 -0.0659
26960W        W43434   7.727  17.933   0.980  0.0894  0.1139  0.2127
26961W        W43435  15.335  13.518   2.072 -0.2914 -0.1222  0.2524
26962W        W43436  11.727   1.171  11.168 -0.0223  0.0611  0.4201
26963W        W43437   7.997   5.648  14.827  0.0609 -0.0008 -0.0228
26964W        W43438   9.432  11.882   4.848 -0.1434  0.1781  0.2318
26965W        W43439   1.912   1.289   1.749 -0.2059  0.0654 -0.0409
26966W        W43440  10.790   7.670  12.229 -0.0939 -0.1589  0.0957
26967W        W43441  16.659   9.531   0.240 -0.0129 -0.0812  0.0480
26968W        W43442   7.963   4.055  13.218  0.1970 -0.2277 -0.0201
26969W        W43443  16.900   7.763   3.659  0.0250 -0.1890  0.0525
26970W        W43444  17.100   7.181   5.010  0.1233  0.0747  0.0590
26971W        W43445  17.998   2.547   2.633 -0.2519 -0.3355  0.0875
26972W        W43446  13.121   8.265  12.108 -0.0244  0.0785 -0.1765
26973W        W43447  11.383  17.498   2.391 -0.0358 -0.1353  0.2600
26974W        W43448  14.547  13.116   4.639 -0.3125 -0.5073 -0.0085
26975W        W43449  12.841   0.870   1.210 -0.0066 -0.1337 -0.0550
26976W        W43450   2.792  10.134  14.656  0.1555 -0.1616 -0.0255
26977W        W43451   9.823  15.671   5.143 -0.2703  0.4248  0.2058
26978W        W43452   4.767   7.939  11.550 -0.0133  0.0110  0.0263
26979W        W43453   8.422  12.317  14.415 -0.3224 -0.2220 -0.0422
26980W        W43454   3.990   6.538   2.545 -0.1184 -0.0787 -0.1368
26981W        W43455   0.590   9.402  13.675  0.1740  0.0553  0.0877
26982W        W43456   3.929  13.738  12.182 -0.1719 -0.0868  0.1207
26983W        W43457   0.990  16.042  11.107  0.2033 -0.0097  0.0104
26984W        W43458   4.698   1.638  14.337  0.1308 -0.2904  0.3746
26985W        W43459   8.366   8.140  15.143  0.0752 -0.1030 -0.1433
26986W        W43460  11.969   9.559  12.659 -0.0915 -0.1273 -0.1072
26987W        W43461   0.821  12.732  13.596  0.2606  0.3108 -0.1367
26988W        W43462  18.083   3.520  14.422  0.1728  0.3636 -0.2794
26989W        W43463  10.731  13.812   4.729 -0.2056 -0.2410 -0.0348
26990W        W43464  18.449  17.325   1.373 -0.0781  0.0634  0.2531
26991W        W43465   3.912   3.864  12.251 -0.1034 -0.1744  0.1825
26992W        W43466  14.555   6.735   2.457  0.0531 -0.0894  0.0013
26993W        W43467  11.909   2.259  11.603  0.1283  0.1367  0.0246
26994W        W43468   6.142   1.555  11.210  0.1528 -0.0657  0.3239
26995W        W43469  11.705   4.804   3.952  0.0886  0.0605  0.1103
26996W        W43470  15.841   0.249   2.353  0.2050  0.2527 -0.1424
26997W        W43471  18.026   8.793   4.414  0.0163 -0.2025  0.2473
26998W        W43472  16.160  10.583   4.463  0.0162 -0.0492  0.1446
26999W        W43473   2.384  12.548   4.052 -0.2974 -0.2578 -0.1292
27000W        W43474   6.745   1.324   4.860  0.1429 -0.1592 -0.0656
27001W        W43475   3.536   8.603  13.300 -0.1837  0.0192  0.0646
27002W        W43476   1.181   2.446   4.582  0.2697  0.0534 -0.1488
27003W        W43477  15.099  11.508   2.976  0.0880 -0.3815 -0.2708
27004W        W43478  17.007   7.682   0.963  0.0317 -0.0978  0.1934
27005W        W43479  12.350  11.634  12.326  0.2628  0.1134  0.3226
27006W        W43480  13.156   3.698  10.544  0.4536  0.1645  0.0431
27007W        W43481  10.899   3.798   1.531  0.0931  0.0435  0.1308
27008W        W43482  17.134   1.942  13.332 -0.0885  0.3104  0.2456
27009W        W43483  12.941   5.131  14.905  0.1173 -0.2807 -0.0603
27010W        W43484   2.018  13.033   9.320  0.1359  0.3693  0.2790
27011W        W43485  10.796  15.689   5.329 -0.2629 -0.0760  0.1260
27012W        W43486  18.754   3.030  12.878 -0.0741 -0.2172 -0.0187
27013W        W43487  11.582  14.811  14.367  0.1900 -0.1337 -0.2518
27014W        W43488   7.770   9.446  14.914 -0.2452 -0.3534 -0.2920
27015W        W43489   4.949   6.460  14.064  0.1549  0.1751 -0.1911
27016W        W43490  10.813  11.535  12.603 -0.0454  0.3009  0.1821
27017W        W43491   7.860  10.208  12.198  0.1335 -0.1226  0.2620
27018W        W43492  14.468  13.663   5.317 -0.0057  0.0310 -0.1679
27019W        W43493  16.229  16.136   0.179 -0.0631  0.0080 -0.0973
27020W        W43494   2.237   0.821  11.297  0.0387 -0.1974  0.2639
27021W        W43495   1.338  18.280  10.814  0.0529 -0.0097  0.0475
27022W        W43496  13.909  15.327  13.928 -0.0900 -0.0990 -0.1476
27023W        W43497   0.520  17.574  14.934  0.1134 -0.2927 -0.3183
27024W        W43498  10.551  18.450  12.436 -0.2055 -0.1005  0.2769
27025W        W43499  14.234   3.783  15.416  0.1157  0.7629  0.0371
27026W        W43500  15.493  14.024  14.436 -0.1123 -0.0612 -0.0736
27027W        W43501   2.385  18.038  11.270  0.1658 -0.0388 -0.1436
27028W        W43502  11.549   9.040   1.997 -0.1095  0.1669 -0.1981
27029W        W43503  15.079   1.362  11.388  0.2790 -0.3394 -0.2529
27030W        W43504   1.182  17.354  15.065 -0.0357 -0.0379 -0.0884
27031W        W43505   3.998   0.542   2.848 -0.0455  0.1431 -0.0256
27032W        W43506   5.767  14.187   4.309  0.0494  0.0118 -0.0759
27033W        W43507  13.720  11.133  11.240 -0.1075  0.2450  0.1044
27034W        W43508   7.195  13.253  15.322  0.0073  0.2193 -0.1042
27035W        W43509   4.597   5.074   5.345 -0.0979  0.2233 -0.0389
27036W        W43510  13.128   1.543   0.795  0.1977  0.1418 -0.0385
27037W        W43511   3.489   5.334  12.780 -0.0811 -0.0131 -0.1339
27038W        W43512   3.267  13.559  14.599  0.1259 -0.2163 -0.1416
27039W        W43513   1.354  16.302  13.160  0.1062  0.3468  0.1428
27040W        W43514  14.119   0.930  14.281  0.0871 -0.0808  0.0513
27041W        W43515  17.868   9.660   4.743  0.1773  0.1410  0.0318
27042W        W43516  11.347   1.126  14.130  0.1085 -0.2634  0.2279
27043W        W43517  17.436   5.375  14.802 -0.0353 -0.0217 -0.1799
27044W        W43518  17.839  18.510   1.500  0.1948 -0.1607 -0.1960
27045W        W43519   3.373  18.467   9.700  0.1572  0.0296  0.0817
27046W        W43520   9.278  13.328  12.357  0.2705 -0.1795 -0.1535
27047W        W43521  17.069   6.957   0.229 -0.1853 -0.0395  0.0793
27048W        W43522   8.378   8.146   4.572  0.2408  0.2953  0.2137
27049W        W43523   8.115   4.517   1.834  0.0810  0.2173  0.0159
27050W        W43524   9.004   1.353  13.906 -0.2867  0.0781 -0.0413
27051W        W43525   4.378   7.850   0.691  0.3738 -0.0735  0.3300
27052W        W43526  11.765  16.324  12.258 -0.1804 -0.0235 -0.2028
27053W        W43527  18.688  16.237   4.162  0.0262 -0.2188  0.0156
27054W        W43528  12.051  16.082  14.992  0.0821  0.0819  0.0331
27055W        W43529   6.839   9.852  12.953  0.2406  0.1919 -0.0932
27056W        W43530   7.380   6.785  11.251 -0.0270  0.0681  0.1216
27057W        W43531   0.213   3.625   4.690 -0.0698 -0.3324 -0.2150
27058W        W43532   2.709  10.506   1.784 -0.1659  0.3150 -0.0143
27059W        W43533   2.767  16.769  12.181 -0.0485  0.0414 -0.4835
27060W        W43534   1.448   4.503   4.356 -0.0566 -0.3154  0.2113
27061W        W43535  18.552   3.354   0.888 -0.0374 -0.0705 -0.0739
27062W        W43536   0.543   8.725  12.038 -0.2627 -0.0330 -0.0253
27063W        W43537  12.417   5.508   5.151  0.2477  0.0294 -0.0722
27064W        W43538   1.784   4.203  11.467 -0.0967  0.1052 -0.0540
27065W        W43539   1.471   8.358   4.936  0.1614  0.0898 -0.0691
27066W        W43540   4.625   6.977  14.188  0.1400  0.0018 -0.1998
27067W        W43541  15.049   9.923  11.253 -0.1990 -0.1224 -0.1226
27068W        W43542  16.123  15.660   5.512 -0.1458 -0.0746 -0.1187
27069W        W43543  11.186  16.884  14.201  0.0640  0.1027  0.1135
27070W        W43544   5.195   1.610  12.644  0.1698 -0.1342  0.2766
27071W        W43545   7.401   3.499  13.797 -0.1081  0.1066  0.1112
27072W        W43546  11.419  11.793   5.154  0.0018 -0.2649  0.0834
27073W        W43547   7.838   2.686   4.172 -0.0673 -0.2183  0.2425
27074W        W43548  17.376  17.437   3.492 -0.1687 -0.1906  0.0233
27075W        W43549  13.617  11.725  12.621  0.2651  0.0926 -0.1597
27076W        W43550  13.985  11.372   2.219  0.0103 -0.1888 -0.1684
27077W        W43551   4.929   6.935   3.977  0.1008 -0.0866  0.2873
27078W        W43552  16.730   5.886  13.908  0.0768 -0.0541 -0.2029
27079W        W43553   8.594  10.096   1.438 -0.0324  0.2253  0.0755
27080W        W43554  12.624   0.488  13.287 -0.3844  0.0512 -0.0901
27081W        W43555   4.565   6.830   0.879  0.0765  0.1248 -0.1955
27082W        W43556   7.267   2.801   4.114  0.2092 -0.0108 -0.0920
27083W        W43557   9.110   7.896   5.329  0.1900  0.2616 -0.0327
27084W        W43558   6.627   9.629  12.121 -0.0715 -0.1946  0.0747
27085W        W43559   5.551   7.613  10.747 -0.1480 -0.0162  0.0902
27086W        W43560   7.704  12.645  14.014 -0.1829  0.0413  0.0630
27087W        W43561  11.533   4.175   3.387  0.0554 -0.1246 -0.0491
27088W        W43562   9.910   7.763  12.170 -0.4413  0.2495  0.1513
27089W        W43563  12.318   1.752   4.787 -0.1531  0.1349 -0.1044
27090W        W43564  17.052   8.052   5.304 -0.0292 -0.0298 -0.0061
27091W        W43565   6.704   2.718  13.864 -0.0127  0.1240 -0.2078
27092W        W43566   0.424   1.420  14.731 -0.1612  0.0558 -0.4776
27093W        W43567  10.953   5.639  15.539  0.1822  0.5862 -0.3768
27094W        W43568   6.284  13.590  12.201  0.1223 -0.0767 -0.1812
27095W        W43569  10.168   5.721   3.812  0.3377 -0.0467  0.2219
27096W        W43570   0.992  15.440   1.999 -0.0753  0.0192 -0.2873
27097W        W43571   5.884   8.022  14.683  0.0129 -0.0784 -0.1139
27098W        W43572  15.626   0.710   5.648 -0.0199  0.0009 -0.2644
27099W        W43573  14.574   6.939   4.401 -0.0433  0.2105 -0.2757
27100W        W43574   3.199  12.488   1.994  0.1387  0.2602  0.0896
27101W        W43575  11.568   5.074  14.994 -0.2077  0.1438  0.3021
27102W        W43576   9.316  15.006   0.742  0.1029 -0.0962 -0.2405
27103W        W43577  12.266   6.688   5.056  0.0434  0.0950 -0.0752
27104W        W43578   9.257   9.814   0.532 -0.1794  0.2579 -0.0226
27105W        W43579   2.848   4.789  12.251  0.0749 -0.2863  0.1580
27106W        W43580   1.575   4.043  11.923  0.1170  0.0341  0.1908
27107W        W43581  14.767   0.858  11.741 -0.0789 -0.2551  0.2927
27108W        W43582   8.387  17.358   0.425 -0.0771  0.1183  0.0277
27109W        W43583   2.041  16.435  13.803 -0.2484 -0.1444  0.3584
27110W        W43584  10.515  13.086  11.631  0.1998  0.3137  0.2264
27111W        W43585  17.050   5.591   4.383  0.0497 -0.0918  0.3431
27112W        W43586  10.162   5.004   1.390  0.0603 -0.3035  0.0568
27113W        W43587  17.563   5.217   5.055 -0.3831 -0.3267  0.1649
27114W        W43588   5.917   0.828  11.796 -0.0320  0.1111  0.0736
27115W        W43589  15.729   2.690   5.081  0.4751  0.1644 -0.0238
27116W        W43590   2.797   4.958   3.383 -0.2311 -0.1916  0.0414
27117W        W43591   5.669   4.371   0.988 -0.0803  0.2548 -0.1199
27118W        W43592   5.763   4.215   0.438  0.2512  0.5793  0.1364
27119W        W43593   2.858   5.423   1.331 -0.0079  0.1104  0.0037
27120W        W43594   5.857  12.182   3.699  0.4820  0.0725 -0.0870
27121W        W43595  14.986   9.059   3.106  0.2345  0.2723  0.2296
27122W        W43596  11.810  10.574   2.303  0.1846 -0.2275 -0.2532
27123W        W43597  16.201  10.980  14.534 -0.1310  0.0068 -0.1804
27124W        W43598   2.745  10.229  11.047 -0.0151 -0.2439 -0.1444
27125W        W43599   4.211   9.100  10.482 -0.1726  0.0971 -0.3242
27126W        W43600   0.280   7.535  15.410 -0.1813  0.0531  0.0896
27127W        W43601   7.044  17.364   0.602  0.0995 -0.0883  0.0086
27128W        W43602  16.648   7.222   5.319 -0.0255 -0.1428  0.4618
27129W        W43603   8.530   2.196  11.354 -0.3516 -0.1014 -0.0130
27130W        W43604   5.092   1.991   1.204  0.0159  0.0314  0.0840
27131W        W43605   6.070   2.995   9.800 -0.0526  0.4369 -0.1400
27132W        W43606   9.864   4.347  11.458  0.1549  0.2324  0.1153
27133W        W43607   8.953  13.124  15.059 -0.0946 -0.1201  0.1830
27134W        W43608  12.197  17.402   5.216  0.0781 -0.0595  0.1712
27135W        W43609   6.061   8.299  13.358  0.1804  0.0500 -0.0805
27136W        W43610  17.018   1.685  15.058  0.0767  0.1282  0.0366
27137W        W43611   2.167  12.412   1.834 -0.0880  0.1631 -0.2493
27138W        W43612   6.248  10.431  13.281  0.0359  0.2711 -0.1155
27139W        W43613  14.055  15.175  10.758 -0.0099 -0.1312  0.1330
27140W        W43614  17.575  11.580   4.130  0.0543  0.0911 -0.1063
27141W        W43615  16.655  11.139   5.347  0.2670  0.4782 -0.2013
27142W        W43616  12.517   3.639  11.771 -0.0495 -0.3989 -0.0318
27143W        W43617  14.018   5.842   2.233  0.0683  0.1686 -0.0763
27144W        W43618   9.140  12.163   2.439  0.0338 -0.1026 -0.1134
27145W        W43619  10.527  10.073  12.995  0.2212  0.1433 -0.0199
27146W        W43620   4.368   6.472  10.649  0.0820 -0.0402 -0.1317
27147W        W43621   2.394   4.106  10.829 -0.2880  0.2088 -0.3202
27148W        W43622  12.306  13.836   1.145 -0.1445  0.3391 -0.1420
27149W        W43623   3.428  11.031   1.717  0.3122  0.4447 -0.0221
27150W        W43624   3.842   5.615   4.959  0.3572 -0.0230  0.2095
27151W        W43625  12.961  10.769   1.650 -0.0117  0.1215  0.2369
27152W        W43626   1.747  11.413  12.639 -0.2542 -0.0994 -0.1489
27153W        W43627   7.008  13.148  13.643  0.2331 -0.0497 -0.4876
27154W        W43628   9.648   8.533   2.718 -0.2092  0.0989 -0.0719
27155W        W43629   5.195  13.495  11.713 -0.0360  0.0641  0.0165
27156W        W43630   9.081  18.057   2.267  0.2798 -0.1535 -0.0343
27157W        W43631   3.932  15.979  10.760  0.3863  0.0656 -0.1243
27158W        W43632   8.892   2.493   4.607 -0.1423 -0.1854  0.0332
27159W        W43633   5.188   6.938   4.769 -0.0284  0.2503 -0.0189
27160W        W43634   0.482   5.140   2.480  0.0277 -0.0290 -0.2359
27161W        W43635   2.225  11.138  13.836 -0.0960 -0.0134 -0.2995
27162W        W43636  11.401   0.288  11.069 -0.3219  0.0730 -0.0514
27163W        W43637   8.548  11.631   5.458  0.1209  0.0631 -0.0726
27164W        W43638  13.945   0.203  11.048  0.2095  0.2199 -0.0764
27165W        W43639  12.987   4.263   4.840 -0.0399 -0.1164 -0.0423
27166W        W43640   0.685   4.236  12.462 -0.0942 -0.2963 -0.1748
27167W        W43641  16.346  17.189  13.628  0.0495  0.1232  0.0986
27168W        W43642   4.943   8.873   4.738 -0.2062  0.2581  0.1594
27169W        W43643  10.544  17.677  14.235  0.2537  0.2142  0.1565
27170W        W43644   3.120   9.760   5.384  0.1941 -0.1737  0.1365
27171W        W43645  13.826   3.579  13.819  0.1486  0.2996  0.2182
27172W        W43646  18.125  11.849  10.946  0.0103  0.0633 -0.0652
27173W        W43647  18.063  16.928  11.460 -0.0153  0.0892 -0.2300
27174W        W43648   7.056  15.724   4.994 -0.3808  0.1172 -0.2341
27175W        W43649  14.955  17.498   5.011 -0.1092 -0.0957 -0.2449
27176W        W43650   6.196  13.112  13.521 -0.4491  0.2150  0.1297
27177W        W43651  16.448  12.284   4.717  0.0545  0.0129  0.0569
27178W        W43652   7.019  11.132  13.550  0.1614 -0.1252  0.1971
27179W        W43653   0.841   9.020  12.831 -0.0345  0.0019  0.2171
27180W        W43654   7.466  13.134   5.414 -0.1161  0.1386 -0.2288
27181W        W43655  14.355   1.582  14.390 -0.0220 -0.0820  0.1247
27182W        W43656   0.865  13.225   5.469 -0.0728  0.0860 -0.0250
27183W        W43657   5.666  10.112  14.149 -0.2006 -0.2512  0.1288
27184W        W43658   2.288   0.222   4.913 -0.1863  0.0829  0.1322
27185W        W43659   4.719  16.443  14.875  0.0347 -0.1668 -0.2543
27186W        W43660  18.331  17.260   4.781  0.1367 -0.0321 -0.0684
27187W        W43661   3.664  13.724   4.336  0.0445  0.2540 -0.0607
27188W        W43662   6.453  11.170  12.997  0.0970  0.5171 -0.1212
27189W        W43663   4.423  15.310   1.162 -0.1944 -0.1308  0.0240
27190W        W43664  18.207  13.152  12.380 -0.2495 -0.1067 -0.1385
27191W        W43665   2.039  14.455  10.515  0.0755 -0.1116  0.3489
27192W        W43666   5.128   2.793   4.049 -0.3244 -0.2493  0.0628
27193W        W43667   5.866  11.698   3.962  0.0043 -0.0462  0.3776
27194W        W43668  11.807  14.044  14.654  0.2487 -0.1630 -0.0345
27195W        W43669   9.638   0.919  11.633  0.3405 -0.5164 -0.0435
27196W        W43670   3.240  15.980   4.188  0.4133  0.2941 -0.1850
27197W        W43671  13.925  15.836   4.119 -0.1312 -0.1830 -0.1428
27198W        W43672   6.022   3.944   5.412  0.1042 -0.0625 -0.1155
27199W        W43673  17.278  13.092   4.076  0.0258 -0.1202  0.0051
27200W        W43674   1.909  16.591  13.368 -0.4630  0.2807 -0.1414
27201W        W43675   2.819   7.042   3.743 -0.2865  0.0307 -0.3605
27202W        W43676  18.227   6.236  10.881  0.1487  0.0389 -0.1597
27203W        W43677   7.354   7.187  14.782 -0.0943 -0.0711  0.0955
27204W        W43678   1.464   9.639  12.744 -0.1708  0.1091  0.2176
27205W        W43679  16.727   4.494   4.940  0.2034  0.0578  0.0225
27206W        W43680   6.250  16.760   4.877 -0.1013  0.0561 -0.0230
27207W        W43681   2.115  15.112   0.060 -0.0131 -0.1037 -0.2426
27208W        W43682  11.921  14.134  13.179 -0.2078  0.0779 -0.1110
27209W        W43683  10.038   5.791  11.519 -0.0138 -0.1283 -0.2033
27210W        W43684   7.563   7.013  15.202 -0.2695  0.0370 -0.2329
27211W        W43685   3.966   2.652   4.846  0.1545 -0.0142  0.1180
27212W        W43686   4.501  10.848  10.849  0.4500 -0.1194 -0.3857
27213W        W43687   3.025  11.067   2.025  0.0162 -0.2278 -0.1187
27214W        W43688  11.264  14.587   2.716  0.3000  0.2402  0.0634
27215W        W43689   1.653  18.003   0.896 -0.3296 -0.0645 -0.0393
27216W        W43690   4.439   9.599   3.599  0.1062  0.0318 -0.1826
27217W        W43691  13.689  14.888   0.942  0.0027 -0.0629  0.1310
27218W        W43692   6.336   3.383   4.541  0.0889  0.0916 -0.1407
27219W        W43693   8.884  16.651   0.344  0.1815  0.0519  0.2710
27220W        W43694  18.338  18.554   2.806  0.0778 -0.0435 -0.0879
27221W        W43695  10.449   4.326  14.556  0.0759  0.2481 -0.2829
27222W        W43696  18.331  11.156  14.564  0.3229 -0.3854  0.2491
27223W        W43697   2.672  14.582   0.638 -0.2955  0.0152  0.1153
27224W        W43698  14.664   1.839   0.858  0.2558  0.1055  0.0583
27225W        W43699  11.221   9.338   0.433  0.0543  0.4314 -0.0557
27226W        W43700   0.002  15.627   2.294  0.0280  0.1295  0.1980
27227W        W43701  12.247   1.822  14.416 -0.3330  0.1630 -0.0382
27228W        W43702   4.601   2.993  12.311 -0.2631  0.2517 -0.0528
27229W        W43703  13.043   6.094  15.229  0.1253  0.2343 -0.0346
27230W        W43704   7.087   2.449  10.761 -0.0002  0.1814 -0.3294
27231W        W43705  13.834   6.063   4.200 -0.1759  0.1650 -0.1248
27232W        W43706  10.569  17.979   5.065 -0.0201  0.0415 -0.1230
27233W        W43707   8.855   8.881  15.497 -0.0478 -0.2102 -0.0766
27234W        W43708  12.168  17.849   2.774  0.2453  0.2748 -0.1214
27235W        W43709  11.754   9.200   3.060 -0.2761  0.0158  0.0425
27236W        W43710  15.237  14.345  13.269 -0.1170 -0.0812 -0.1398
27237W        W43711   6.611  14.762  12.816  0.2154 -0.0038 -0.2841
27238W        W43712  12.560   6.698   1.957 -0.2222  0.1600  0.0353
27239W        W43713  14.509  11.683   5.405 -0.0250  0.2946  0.0766
27240W        W43714   5.612   8.348   1.299  0.0622  0.0256 -0.0994
27241W        W43715  10.804  16.571   1.709  0.1593  0.0110  0.0616
27242W        W43716  12.468   7.699   4.633 -0.4359 -0.0170  0.0455
27243W        W43717  12.469   4.763   3.613  0.0964  0.3241 -0.1451
27244W        W43718  10.450   1.274  10.506  0.1169 -0.1457  0.1000
27245W        W43719  12.344   4.516  14.413  0.0656 -0.0630  0.2352
27246W        W43720  13.202   0.391   2.543  0.2873  0.2394  0.0832
27247W        W43721  11.449   0.760  11.275 -0.2053 -0.0337  0.2452
27248W        W43722  13.293   2.814   0.892 -0.1988 -0.1499  0.0122
27249W        W43723  12.600  13.886  14.829  0.0012 -0.1997  0.1885
27250W        W43724   9.554   8.389   9.767  0.3567  0.0189  0.0996
27251W        W43725   9.475  10.416   9.933 -0.0658  0.0954 -0.1600
27252W        W43726  14.528   7.446   3.273 -0.0441  0.3128 -0.3705
27253W        W43727  12.136  17.722  14.151  0.0741 -0.1562  0.1610
27254W        W43728   6.890   0.597   3.755 -0.0426  0.0832 -0.0429
27255W        W43729   6.939  13.659  12.926  0.0902  0.4099 -0.1143
27256W        W43730   5.267   2.304   4.350 -0.0190 -0.2861 -0.1843
27257W        W43731   4.401  12.856  12.069  0.1998 -0.3543  0.1048
27258W        W43732  16.663   0.477   4.885  0.5571  0.0477 -0.0297
27259W        W43733   0.787   0.010   2.956 -0.0146  0.1415 -0.2983
27260W        W43734  13.484  15.885   2.695  0.0907 -0.0233  0.0562
27261W        W43735   9.984   2.449   0.174  0.1211  0.0132  0.3036
27262W        W43736  15.227   6.000  14.078 -0.0983  0.0765  0.3580
27263W        W43737   6.919  10.523   0.660 -0.0794  0.0833  0.2934
27264W        W43738  17.695  10.058  12.119  0.1989  0.0440  0.2155
27265W        W43739  16.603  14.715   2.818  0.1166  0.0049  0.0980
27266W        W43740   7.339  17.399  11.197  0.1414 -0.2396 -0.0757
27267W        W43741   1.901  16.969   4.603  0.0295 -0.0094 -0.4063
27268W        W43742  11.987   1.469  12.172  0.0756  0.2903  0.0961
27269W        W43743  17.353  18.556  12.030  0.1072  0.0539  0.3954
27270W        W43744  14.308   8.116   0.879  0.3643  0.1593  0.1667
27271W        W43745  14.667  11.184   3.227  0.1842  0.1109  0.0512
27272W        W43746  10.739   6.224  13.391  0.0266 -0.0717 -0.2132
27273W        W43747   9.760  13.981   0.139 -0.1953  0.3759  0.0540
27274W        W43748   4.226  16.066   4.713 -0.1320  0.0127 -0.1952
27275W        W43749   7.468  17.381   1.546 -0.1399 -0.1647 -0.0731
27276W        W43750   8.608  17.246   3.242 -0.0288  0.0787  0.0823
27277W        W43751  10.773  16.458  14.740  0.1920  0.1362  0.0222
27278W        W43752   9.502  14.404   5.298 -0.1524  0.4453 -0.2202
27279W        W43753  10.973  11.897  14.758 -0.5623 -0.2495 -0.2067
27280W        W43754  11.922   9.475   4.877 -0.3407  0.1088  0.0512
27281W        W43755   3.882   7.741  10.355  0.3197 -0.0303 -0.2264
27282W        W43756   5.735   0.629   0.059 -0.1198  0.2771  0.0020
27283W        W43757   2.241  11.093  14.360  0.1431  0.0212 -0.2787
27284W        W43758  18.289   2.078  14.566 -0.1586 -0.0593  0.1852
27285W        W43759   1.000  10.733   0.449 -0.0870  0.1420 -0.0787
27286W        W43760   6.562  13.335  11.413  0.0412 -0.1278 -0.1544
27287W        W43761   9.327   1.302   2.781 -0.1802  0.0859  0.1611
27288W        W43762   7.438   2.458   3.255  0.0489  0.1201 -0.0816
27289W        W43763   5.501  18.700  14.093  0.1257 -0.0121  0.1593
27290W        W43764  12.729  10.638  12.093  0.1255  0.1120 -0.0310
27291W        W43765  13.056   7.311   4.076 -0.0832  0.0103 -0.0269
27292W        W43766  16.878   0.166   4.460 -0.1022 -0.2764 -0.2291
27293W        W43767  18.168   9.464  12.174  0.0307 -0.1127  0.1113
27294W        W43768   1.436   4.286   3.874 -0.1484  0.1881  0.3555
27295W        W43769  11.851   7.463  11.022  0.1304  0.1209  0.0261
27296W        W43770   6.722  16.659  12.320 -0.0777  0.0747  0.1720
27297W        W43771   2.368   0.112  12.400  0.3302 -0.1362  0.0608
27298W        W43772   5.517  11.397  14.794 -0.2237 -0.0856 -0.1143
27299W        W43773   7.325  12.456   2.708 -0.1224 -0.0598 -0.0195
27300W        W43774  14.807   5.814   4.495  0.2969 -0.0614 -0.2556
27301W        W43775   1.571  11.100  11.345 -0.3447 -0.2161 -0.1394
27302W        W43776  10.114   7.244  11.517 -0.3248  0.3328  0.1435
27303W        W43777  17.889   6.169  10.028  0.1759  0.4066 -0.0210
27304W        W43778  14.985  11.283  14.918  0.0945 -0.1316 -0.1197
27305W        W43779  13.781  18.146   1.531  0.2036 -0.2326 -0.2563
27306W        W43780  14.573   8.195   5.386  0.2844 -0.0590  0.0027
27307W        W43781  10.366   2.469   4.817 -0.4426  0.2949 -0.2113
27308W        W43782  13.419   1.961   0.901  0.2139 -0.0176  0.3060
27309W        W43783  13.852   1.688   4.863  0.1256  0.3532  0.2520
27310W        W43784  10.359   6.157   3.614  0.1187 -0.2939 -0.2930
27311W        W43785   6.333  11.872   0.219  0.0058  0.0203 -0.1127
27312W        W43786   2.512   0.615  12.222 -0.3928 -0.0308  0.0945
27313W        W43787  12.156   5.725   4.805 -0.0289 -0.1700  0.1929
27314W        W43788  13.765   3.043  11.700 -0.0070 -0.0490  0.2557
27315W        W43789   0.505  14.422  14.385 -0.2222 -0.0803  0.1942
27316W        W43790   1.913   7.766   4.407 -0.1111  0.1699  0.4230
27317W        W43791  12.094   6.543  12.709  0.1454  0.0626  0.0720
27318W        W43792  14.119  15.603   0.468 -0.1177 -0.1663 -0.1409
27319W        W43793   8.266   9.073   2.998  0.0207 -0.3931 -0.1211
27320W        W43794  16.751   3.851   4.179  0.0629  0.1531  0.2676
27321W        W43795   7.355  15.915  15.566  0.2506  0.0761  0.2140
27322W        W43796  18.233   6.782   0.320 -0.0024 -0.0268  0.2402
27323W        W43797  12.916  15.576  10.762  0.3100  0.0507  0.4364
27324W        W43798  14.283  18.008   4.658 -0.1055 -0.2672 -0.1521
27325W        W43799   8.401   3.139  14.564  0.1564  0.1550 -0.0088
27326W        W43800  11.231  10.661  15.340 -0.1814  0.2521 -0.3127
27327W        W43801  18.236  17.447  14.894  0.0625  0.3202 -0.1609
27328W        W43802  10.453  17.475   5.786  0.1307 -0.0410  0.0403
27329W        W43803  16.742   3.540  14.778  0.1439 -0.1608 -0.1254
27330W        W43804   3.446   6.470  14.032 -0.1440  0.0942 -0.2132
27331W        W43805  14.530   5.722   3.345  0.1767  0.3487 -0.0358
27332W        W43806  14.542   7.916   1.835  0.0063  0.2907 -0.2441
27333W        W43807   5.522  10.991   5.051  0.1845  0.1903  0.1841
27334W        W43808  11.500   7.064  10.847 -0.1282  0.2523 -0.0503
27335W        W43809   4.366  11.488   1.399  0.0699 -0.2357 -0.1012
27336W        W43810   6.661  15.297  11.024  0.0177 -0.0076  0.0665
27337W        W43811   7.825   9.973   3.360  0.1341 -0.1374  0.1687
27338W        W43812   5.934  15.095   4.138  0.1908 -0.6491  0.0830
27339W        W43813  14.633  16.661   5.241 -0.1938 -0.1238 -0.0894
27340W        W43814  13.527  17.922  12.035  0.1749  0.1235  0.2427
27341W        W43815  12.277  13.345  11.082  0.1835 -0.5301 -0.1103
27342W        W43816  15.554  16.230   3.454 -0.0659 -0.0764  0.0328
27343W        W43817   2.447  17.161   3.953 -0.1971  0.0681 -0.0599
27344W        W43818   1.115   0.875  13.930  0.0107 -0.4027  0.1599
27345W        W43819   0.886   1.946  12.853  0.2125 -0.1964  0.2925
27346W        W43820  17.966  14.701  10.876  0.0471 -0.3460 -0.1687
27347W        W43821   8.266   6.949   0.327 -0.0218  0.2590 -0.3999
27348W        W43822   5.503   5.616  13.748  0.0285  0.0850 -0.1373
27349W        W43823   6.523   6.062   3.703 -0.0655  0.3040  0.0526
27350W        W43824  10.264  16.937   4.948 -0.1571 -0.0431  0.0266
27351W        W43825   5.114  16.671   4.534  0.0133 -0.1158  0.1425
27352W        W43826   4.071   0.035   2.949  0.1355 -0.1062 -0.2383
27353W        W43827   6.142  11.861   2.115 -0.1490  0.1868  0.2796
27354W        W43828  18.574  11.546   2.479 -0.1216  0.1698 -0.1229
27355W        W43829  12.382  13.368   2.033  0.1956 -0.2401  0.2040
27356W        W43830   1.178   9.997   1.589 -0.0451 -0.1211 -0.1013
27357W        W43831   3.310   2.803   0.991  0.1945  0.0161  0.1484
27358W        W43832  18.702   8.231  11.926 -0.1051 -0.2691  0.1587
27359W        W43833  13.080  10.275  12.180  0.4977 -0.2861 -0.0843
27360W        W43834   4.103   1.016  13.173 -0.2193 -0.0508 -0.3136
27361W        W43835   5.060  18.650   2.134  0.2790  0.1302  0.4783
27362W        W43836   9.421   9.455  14.966  0.0183 -0.0347  0.2300
27363W        W43837  18.692   2.438  14.419  0.0486  0.2162 -0.1256
27364W        W43838   4.045   5.487   1.639 -0.2664  0.3871  0.0837
27365W        W43839  17.117  15.623  11.888  0.1580  0.0163  0.1536
27366W        W43840  15.684  17.169  13.772  0.0962  0.1101  0.5139
27367W        W43841  16.504   6.048   2.948  0.0504 -0.1485 -0.0636
27368W        W43842   8.420  17.227  15.165  0.4242 -0.2889 -0.0137
27369W        W43843   5.367   5.919  12.986  0.0820  0.0358  0.0495
27370W        W43844   6.242   0.845   3.168  0.2033 -0.1415 -0.0068
27371W        W43845   9.884  11.149  14.324 -0.2389 -0.0476  0.0397
27372W        W43846   8.477   7.880   0.553 -0.0360  0.0151  0.0718
27373W        W43847  18.701  16.287   1.223 -0.0051 -0.1218  0.1276
27374W        W43848   8.148   9.805  11.505 -0.1107 -0.0091  0.0712
27375W        W43849   1.148  16.161   2.487 -0.0940 -0.0058  0.2499
27376W        W43850   8.761   1.760   4.736 -0.0515 -0.0696 -0.0979
27377W        W43851  13.433   0.875  12.757 -0.3246 -0.1422 -0.3168
27378W        W43852   0.170  17.452   4.817 -0.2750 -0.0289  0.2690
27379W        W43853   3.094  13.004  12.273 -0.3461  0.1693  0.0425
27380W        W43854  15.870   9.329   3.133  0.2420  0.3933  0.3505
27381W        W43855  14.298   7.675  12.219  0.2204 -0.2169 -0.3322
27382W        W43856  11.963   7.534  15.534 -0.1048 -0.1843 -0.1187
27383W        W43857  18.489  11.364   5.676  0.1585 -0.2254  0.0753
27384W        W43858   5.284  11.288   4.607 -0.2027  0.0912  0.1091
27385W        W43859   1.494  16.467  13.731 -0.1863 -0.0726 -0.1493
27386W        W43860  12.014  16.084  11.423 -0.0475 -0.2401  0.1916
27387W        W43861  11.847  15.496  13.706  0.1284  0.2517 -0.0233
27388W        W43862  13.110   6.607  15.183 -0.1474  0.0736  0.0924
27389W        W43863  10.463  14.667   0.134 -0.2253 -0.2263 -0.0980
27390W        W43864   5.762   7.365  12.953  0.1165  0.1532  0.1957
27391W        W43865  17.502   3.913  13.881  0.0007  0.0654  0.1205
27392W        W43866  17.102   0.770  15.489  0.2831 -0.2069  0.1231
27393W        W43867  10.402  15.000   4.206 -0.0753 -0.2100  0.0002
27394W        W43868  11.304  16.117  13.147 -0.0742  0.0707  0.2768
27395W        W43869   7.664  10.790   5.034 -0.2676 -0.1074 -0.1931
27396W        W43870  13.349   2.496  12.436 -0.0861  0.1452 -0.3246
27397W        W43871   9.459  14.992   2.694 -0.3697  0.1302 -0.1722
27398W        W43872   6.472  16.101   3.633 -0.0441  0.2721 -0.1724
27399W        W43873  13.859   2.131   5.056  0.0386 -0.0532 -0.0292
27400W        W43874  17.691  11.372  12.265 -0.0816  0.1399  0.0153
27401W        W43875  14.933   4.545   0.318 -0.3466  0.1362 -0.0855
27402W        W43876  13.992   3.158  11.267 -0.2032  0.2798  0.1380
27403W        W43877  11.623  12.761  12.630  0.0865  0.2297 -0.0061
27404W        W43878  16.814  15.235  11.815  0.0059  0.1677 -0.0315
27405W        W43879   8.644  16.546  12.126  0.3042  0.0237 -0.0521
27406W        W43880  10.526   3.934  12.205  0.1604  0.2490  0.0953
27407W        W43881  10.666   2.067  13.168  0.6526  0.0571 -0.0123
27408W        W43882   8.281   2.318  14.055  0.0179 -0.1812 -0.2372
27409W        W43883   3.840   1.360   0.690  0.3654  0.1429 -0.2832
27410W        W43884   0.035   2.321   4.047  0.1514 -0.0667  0.1424
27411W        W43885   7.096   4.739   4.993  0.1571 -0.1723 -0.1571
27412W        W43886  16.586  11.607  12.874  0.0397 -0.0207 -0.0954
27413W        W43887   4.284   5.769  12.965 -0.0817  0.0841 -0.1432
27414W        W43888   0.183   6.107   9.719 -0.2299 -0.1434 -0.0867
27415W        W43889  11.042   3.974  11.225  0.2990  0.1057  0.0248
27416W        W43890   6.900   5.414  12.404  0.3071 -0.0926 -0.1665
27417W        W43891  14.323  11.412   3.610  0.1279  0.1928  0.1213
27418W        W43892  13.266   7.674   1.709  0.0159  0.0112  0.0960
27419W        W43893  11.742   7.365  12.323 -0.3109  0.0257  0.1298
27420W        W43894   3.478   6.222  12.439 -0.0722 -0.0858 -0.1642
27421W        W43895   8.280  13.254   4.550  0.4096  0.3901 -0.1569
27422W        W43896   0.609  14.192  12.033  0.1576  0.1296  0.0414
27423W        W43897   4.567  17.424   4.758 -0.2331  0.0319  0.1014
27424W        W43898   7.763   0.102   5.453  0.2579 -0.1501 -0.0269
27425W        W43899   0.312  16.773   1.174  0.3853 -0.0059 -0.2231
27426W        W43900   4.352  18.329   2.866 -0.2032 -0.2636 -0.4357
27427W        W43901   4.546   8.767  14.635  0.0289 -0.3098  0.0506
27428W        W43902   5.396  13.150  15.159 -0.0783 -0.1191  0.2747
27429W        W43903   6.465  17.374  10.410  0.0676 -0.0646 -0.0134
27430W        W43904   6.372   2.608   1.172 -0.1506  0.1703 -0.2596
27431W        W43905  12.817   2.557  12.598  0.2175  0.0198 -0.0377
27432W        W43906   5.661  13.268  11.029  0.2350  0.1942  0.1109
27433W        W43907   0.536   2.675   0.882 -0.0909  0.2335  0.0587
27434W        W43908   4.881  11.037   2.215  0.0497 -0.0891  0.0145
27435W        W43909  18.287  10.894  11.834 -0.0350  0.0220 -0.0197
27436W        W43910   5.828  18.034  14.818 -0.1447  0.0844 -0.1260
27437W        W43911  13.918  12.501  11.231  0.1283  0.1263  0.0265
27438W        W43912   8.730  12.559  12.483  0.1522 -0.1789  0.1080
27439W        W43913   7.403  11.551  11.955 -0.1341  0.3695 -0.1597
27440W        W43914   1.240  15.850  10.695  0.1448 -0.1006 -0.0996
27441W        W43915   8.999  14.127  14.388  0.0940  0.0425 -0.0596
27442W        W43916   9.578  12.066  14.175  0.0509  0.1637 -0.2550
27443W        W43917   5.397  18.717   0.326 -0.0919 -0.1599  0.1799
27444W        W43918   5.313  12.103  12.778  0.1573  0.1811  0.0670
27445W        W43919   2.333  13.905  12.721 -0.1169  0.0297  0.1273
27446W        W43920   7.972  13.646   0.215  0.1422  0.1093  0.4711
27447W        W43921   3.486  14.169  15.148 -0.1905  0.2134  0.1558
27448W        W43922   4.976   1.470  14.719 -0.0914  0.0341 -0.2362
27449W        W43923   3.753   3.567   0.387 -0.2296  0.0822  0.1425
27450W        W43924  13.521  12.859  13.582 -0.0933  0.3738  0.0800
27451W        W43925  13.840   3.829  12.882 -0.1329  0.0287  0.1187
27452W        W43926  16.212  15.948   2.511  0.0196  0.0459  0.2212
27453W        W43927  12.128   4.919  11.378  0.0801 -0.1240 -0.1725
27454W        W43928  10.930   4.534   3.342  0.1250 -0.0234  0.5169
27455W        W43929  12.294   8.912   4.327 -0.0370 -0.0159  0.1298
27456W        W43930   3.641  12.416   2.321 -0.0247  0.0704  0.2257
27457W        W43931   7.006   5.347  14.858  0.0844  0.2883 -0.1617
27458W        W43932  16.390  11.504   3.805 -0.0400 -0.0641  0.0153
27459W        W43933   0.820   1.404  12.583 -0.2500  0.0949 -0.0169
27460W        W43934   0.037   7.459   4.294  0.0512 -0.0601  0.3421
27461W        W43935  12.411   1.003  15.057  0.2243 -0.2303 -0.0949
27462W        W43936   9.234  12.085   5.283 -0.0111  0.0240 -0.0892
27463W        W43937  12.424  18.619  10.204 -0.1715  0.1721  0.0614
27464W        W43938  13.127   3.404  11.014 -0.0247 -0.1977 -0.1461
27465W        W43939  12.162   5.520  12.955  0.1317  0.0131  0.1125
27466W        W43940   6.116  13.065  12.536  0.0090  0.2620 -0.0812
27467W        W43941   7.346   1.375  11.534 -0.0879  0.0722 -0.2060
27468W        W43942  12.611   7.005  14.828 -0.0742 -0.3148 -0.0522
27469W        W43943  14.554   3.310   4.853  0.0326 -0.0349 -0.2275
27470W        W43944  16.867  11.492  11.998 -0.1941  0.1775  0.0251
27471W        W43945   3.541  10.764   3.265  0.0596 -0.2208  0.1998
27472W        W43946   5.548   9.699   2.835  0.0276 -0.0828 -0.1308
27473W        W43947   7.256  12.202   1.231 -0.0609 -0.2273  0.1470
27474W        W43948  17.123   6.347  12.935 -0.2058 -0.1579  0.1142
27475W        W43949   1.368  12.005   0.182  0.1317  0.1748  0.0039
27476W        W43950   7.227  17.540  15.158 -0.2016 -0.2151 -0.0281
27477W        W43951  18.202   9.205   1.227  0.3796 -0.2801 -0.0157
27478W        W43952   2.876   5.711  10.353  0.2255 -0.2036 -0.1923
27479W        W43953  17.672  18.370  11.269 -0.0578 -0.4138  0.0784
27480W        W43954   5.071  17.300  11.442 -0.0873  0.0880 -0.0593
27481W        W43955  17.997   0.389  13.651 -0.1461  0.1100  0.2797
27482W        W43956   6.024  13.820  14.869 -0.2402 -0.0538 -0.2556
27483W        W43957   4.103   8.902   2.541 -0.5290 -0.4134 -0.2544
27484W        W43958   3.732  13.292  14.591 -0.2204 -0.1180  0.0612
27485W        W43959  17.778   1.646   0.633 -0.0630 -0.3259 -0.0615
27486W        W43960   4.156   1.743  12.943 -0.1322 -0.0512 -0.0629
27487W        W43961  17.346  15.066   2.278  0.1802  0.0216 -0.0640
27488W        W43962   4.665  11.392   0.580 -0.0552 -0.0645  0.0932
27489W        W43963   1.318  16.904  10.695 -0.1990  0.0782 -0.1448
27490W        W43964   1.404   9.678  10.698  0.0153 -0.4107 -0.0518
27491W        W43965   3.836   8.874   0.323  0.0295 -0.1879  0.3081
27492W        W43966  11.424  12.391   3.207 -0.1726 -0.0904 -0.0770
27493W        W43967   5.310  11.200  12.692  0.1005  0.1084 -0.2960
27494W        W43968   0.415   6.276  11.869 -0.3597  0.2190 -0.4395
27495W        W43969   6.083   2.151  11.843  0.1814  0.2062  0.0863
27496W        W43970   4.557   6.398  15.418  0.2550  0.1312 -0.0571
27497W        W43971   6.303   6.696  12.099  0.0112 -0.0519 -0.1092
27498W        W43972   7.654   2.141  13.394 -0.2774 -0.4002  0.0413
27499W        W43973  18.072   1.591  11.697 -0.1285  0.0931  0.1245
27500W        W43974  16.711   5.156   4.336 -0.2423 -0.3455 -0.0098
27501W        W43975  17.386  12.908   0.143 -0.1577 -0.0659  0.3020
27502W        W43976  14.952   5.670   2.606 -0.1462  0.0934  0.3730
27503W        W43977  16.493   0.933   3.923 -0.0510 -0.3629  0.1873
27504W        W43978   3.380  12.710   1.029  0.0128  0.0621  0.1835
27505W        W43979  18.430   2.874   5.073 -0.0774 -0.1688  0.2035
27506W        W43980   2.076   5.531  13.413 -0.4366  0.2441 -0.1760
27507W        W43981  12.324   8.315  13.437  0.1252 -0.0412 -0.1177
27508W        W43982   8.825  13.747   0.218  0.0028  0.2615 -0.0058
27509W        W43983  17.007  13.214  11.516  0.0905 -0.0215 -0.1798
27510W        W43984  15.829  15.341  12.311 -0.2792  0.0253 -0.2959
27511W        W43985  11.557   0.643   0.231 -0.0264  0.0657 -0.0677
27512W        W43986  12.923   0.185  13.496 -0.0479  0.1117 -0.0825
27513W        W43987  13.595   0.597  12.408 -0.1241  0.0241 -0.0856
27514W        W43988   5.924   4.264   3.532  0.0081  0.1592  0.1544
27515W        W43989   7.846   3.910   3.175 -0.1001 -0.0309  0.1164
27516W        W43990  12.772   0.400   2.837 -0.0999 -0.1132  0.2288
27517W        W43991   2.078   5.011  11.708  0.0603  0.4174  0.0967
27518W        W43992   0.888   4.111   4.684 -0.0075  0.1606 -0.2842
27519W        W43993   0.814   2.299   0.541 -0.1034  0.1378 -0.3981
27520W        W43994  12.306   9.762  15.297  0.0743 -0.0609  0.0069
27521W        W43995   2.767   8.083  15.504  0.1271  0.1775  0.0217
27522W        W43996   5.260  13.771   4.118  0.0482  0.2507  0.0782
27523W        W43997  18.633  18.111   3.362  0.1870 -0.1248 -0.3643
27524W        W43998   6.802  18.406  11.993 -0.1244 -0.3028 -0.0280
27525W        W43999   2.710   6.112   2.559  0.1806 -0.1618 -0.1590
27526W        W44000   6.207   6.996   9.660  0.0694  0.0192 -0.2180
27527W        W44001  11.006   3.782  13.108  0.3091 -0.0546 -0.3012
27528W        W44002   7.607   6.153   0.236 -0.0450 -0.0911 -0.4308
27529W        W44003   9.168   4.901   2.090 -0.0309 -0.1201  0.0583
27530W        W44004   3.572  10.451  14.054 -0.1426 -0.2552  0.0014
27531W        W44005   6.569  13.502  15.534 -0.0856  0.0664 -0.2052
27532W        W44006  16.700   0.509   4.132 -0.1096 -0.0632  0.3579
27533W        W44007  11.449   7.155   5.303 -0.1780  0.2385 -0.3833
27534W        W44008   6.436   4.929   0.588 -0.1517 -0.0267  0.1582
27535W        W44009  15.368  10.123  13.053 -0.0488 -0.0148 -0.2663
27536W        W44010   3.101  17.479   2.280 -0.2706  0.2610  0.1518
27537W        W44011   0.722  12.787  14.501 -0.0096  0.0522  0.0772
27538W        W44012  16.879  17.344   0.497 -0.2562 -0.0815 -0.0659
27539W        W44013   4.305   7.742   2.818 -0.2856 -0.2623 -0.1784
27540W        W44014   8.492  18.573  10.846 -0.2380  0.1027  0.4164
27541W        W44015   6.947   7.604  10.770 -0.2177  0.0056  0.0756
27542W        W44016   0.541   8.912   1.999  0.1237 -0.0519  0.3433
27543W        W44017   7.206   9.175  15.024  0.0651 -0.2940 -0.2292
27544W        W44018   9.889  10.644  12.082  0.0261  0.0870 -0.2038
27545W        W44019   0.150   2.623  11.507  0.1714  0.0622  0.4205
27546W        W44020   9.141  18.557   4.033  0.2591  0.0827 -0.0096
27547W        W44021  17.328   1.589  15.470  0.0026 -0.2494 -0.3741
27548W        W44022  12.017  10.492   0.985  0.0798  0.0412  0.2912
27549W        W44023  16.747  15.959   4.188 -0.1643 -0.2020 -0.2528
27550W        W44024   3.290  17.116  15.389  0.1329  0.2804  0.0337
27551W        W44025  17.226  16.226  15.457  0.1961  0.2019 -0.0612
27552W        W44026  10.347  12.768   5.417  0.0755  0.0973 -0.1220
27553W        W44027   4.492   7.640  12.059  0.1181  0.0971 -0.1789
27554W        W44028  10.791   1.092   3.543 -0.1164 -0.0733 -0.0998
27555W        W44029  15.889   3.792   3.154  0.1114  0.0095 -0.1889
27556W        W44030   7.240   3.154  14.119  0.1281  0.2943 -0.0136
27557W        W44031   4.857   2.311   4.066  0.1943 -0.0723 -0.0791
27558W        W44032   7.157   0.209  11.427  0.0716  0.4290 -0.0256
27559W        W44033   9.598  14.105   2.410  0.2877 -0.3198 -0.3390
27560W        W44034   2.925   5.798   0.896  0.2034 -0.0230  0.0036
27561W        W44035  18.601   3.877   2.531  0.0886  0.4604 -0.0486
27562W        W44036   1.960  13.168  11.833  0.0279  0.2550 -0.2350
27563W        W44037   2.926   0.872   9.762 -0.1862 -0.3365  0.0827
27564W        W44038  18.168   7.893  12.860  0.1812  0.0586  0.0727
27565W        W44039  11.802  17.195   5.425 -0.1480 -0.1984  0.0366
27566W        W44040  12.897  12.802   3.464 -0.0131  0.0391 -0.3836
27567W        W44041  15.635  11.100  13.802 -0.2044  0.2604 -0.0160
27568W        W44042   9.711  13.850   3.940 -0.1571  0.3301 -0.0811
27569W        W44043  11.863  15.522   6.026  0.0402 -0.0980  0.2031
27570W        W44044  10.172  17.016  12.527  0.0793  0.3078  0.2375
27571W        W44045  16.055   5.431  11.823  0.2463 -0.0072  0.1119
27572W        W44046   1.754   4.001   4.202  0.3627 -0.1129 -0.1311
27573W        W44047   2.697  13.032  13.303  0.0605  0.0136 -0.1106
27574W        W44048   5.961  16.428  13.094 -0.1178  0.1569 -0.3292
27575W        W44049  15.756  14.495   4.312 -0.2929 -0.2198 -0.3376
27576W        W44050   9.033  11.181   2.571 -0.0200 -0.0429 -0.3530
27577W        W44051   0.283   2.657   4.337 -0.0110 -0.1967 -0.2493
27578W        W44052   4.812  15.027   0.951  0.2939 -0.1766  0.4911
27579W        W44053   1.337   6.054   1.812 -0.1580 -0.2432 -0.1350
27580W        W44054   1.310  18.591   3.259 -0.0381 -0.1520  0.1884
27581W        W44055   7.121   6.973   0.445 -0.2217  0.1025  0.0329
27582W        W44056  11.641  17.038   0.589  0.2274 -0.0625  0.0007
27583W        W44057  16.493   1.041   3.442  0.0165 -0.1161  0.0104
27584W        W44058   2.027  10.162   4.073 -0.1292  0.2382 -0.2174
27585W        W44059   2.142  18.509   2.644 -0.0530  0.2998 -0.1618
27586W        W44060   1.130  12.275   1.107  0.0117  0.0802 -0.0433
27587W        W44061   0.571   3.653   2.867  0.0895 -0.2592  0.0284
27588W        W44062  15.064  10.316  13.578  0.0564 -0.1275  0.0282
27589W        W44063  10.792   9.600   4.124  0.0666 -0.0606  0.1760
27590W        W44064  11.339   9.299  15.522  0.0193 -0.0286 -0.0785
27591W        W44065   2.357   0.616   2.857  0.2019 -0.1531 -0.2576
27592W        W44066  15.319  15.773   0.467 -0.1204  0.6053  0.1960
27593W        W44067  14.821   7.374  14.761 -0.1788  0.1151 -0.1089
27594W        W44068  14.029   7.817   1.805  0.0997  0.5668  0.1151
27595W        W44069   4.577  13.732   1.022 -0.4125  0.2246  0.0713
27596W        W44070   6.564  18.787   2.918 -0.0213 -0.0531 -0.1594
27597W        W44071  14.575   6.469  13.137  0.1610 -0.0689  0.2184
27598W        W44072   8.496   3.643   1.994  0.2950 -0.1639 -0.1032
27599W        W44073   1.652  17.213  14.906  0.0804 -0.0374  0.0597
27600W        W44074   8.902   4.591   1.122 -0.1837 -0.3053 -0.0900
27601W        W44075  17.460  11.781   0.108  0.0934  0.0839  0.2824
27602W        W44076  12.422   5.035  12.222 -0.1319 -0.0774  0.0713
27603W        W44077   8.704  12.008   3.762 -0.0794  0.4933  0.1244
27604W        W44078  14.095   2.794  15.391 -0.3427  0.3629 -0.0081
27605W        W44079  12.560  15.241  11.788  0.0626 -0.2732 -0.3226
27606W        W44080   9.905   1.774   4.692 -0.1975 -0.1614  0.1859
27607W        W44081  11.148  12.535  12.980  0.2295 -0.0673 -0.3011
27608W        W44082   9.744   7.237   5.552 -0.0127  0.1257  0.4345
27609W        W44083   7.924   6.610   1.572  0.1375 -0.2476 -0.1707
27610W        W44084   2.228  16.003   3.322 -0.1583  0.2123  0.0457
27611W        W44085   5.531   8.604  12.519  0.0353  0.2185 -0.2991
27612W        W44086   4.490  18.252   3.440 -0.1953  0.1199 -0.3403
27613W        W44087  10.600   0.071   4.437 -0.1149  0.2355  0.0032
27614W        W44088   7.543   6.593  13.225  0.3575 -0.2882  0.0040
27615W        W44089  10.426   1.352   2.156 -0.0274 -0.0033  0.0749
27616W        W44090  13.952  12.791  12.573  0.1151 -0.1413  0.0313
27617W        W44091  11.721  16.636  13.009  0.0691 -0.2604  0.0292
27618W        W44092   0.634   8.300   0.183  0.1344  0.5320  0.0112
27619W        W44093  17.307   8.951  13.951 -0.3300  0.0591 -0.0990
27620W        W44094  11.376   4.335  11.180 -0.1554 -0.1410 -0.0546
27621W        W44095  12.582  17.781   0.597 -0.0008 -0.0840  0.2673
27622W        W44096   4.912   3.276  12.009 -0.4463 -0.1101  0.0432
27623W        W44097   5.729   7.887   1.519 -0.2588 -0.0727  0.0801
27624W        W44098  14.249  13.927   0.145  0.0841 -0.0547  0.1490
27625W        W44099   9.311  15.837   3.749  0.0184 -0.3629  0.2587
27626W        W44100   4.121   4.022   0.879 -0.1097 -0.1405 -0.1056
27627W        W44101   4.792  14.107   5.374  0.0465 -0.1825 -0.1554
27628W        W44102   7.351   4.229   4.672 -0.1059  0.0507 -0.0802
27629W        W44103   7.651   3.322   4.351 -0.2147  0.0287  0.2837
27630W        W44104  16.609   2.544  14.744  0.0368  0.1438  0.0550
27631W        W44105  17.302  10.069  15.127  0.0484  0.5730  0.0862
27632W        W44106   6.142   0.654  13.425 -0.0689  0.3780 -0.0073
27633W        W44107  17.130  18.777  12.453  0.0795  0.0135 -0.1002
27634W        W44108   1.146   0.695  10.985 -0.0461 -0.0511  0.4233
27635W        W44109  11.619   1.559   4.449 -0.1928  0.1686  0.2318
27636W        W44110   0.335   0.379   3.109 -0.3974 -0.1594 -0.0847
27637W        W44111   8.625  11.125  11.503 -0.1454 -0.0182  0.0010
27638W        W44112  17.826   4.665  13.205 -0.0452 -0.0353 -0.1704
27639W        W44113   0.208  14.932   3.459 -0.1574 -0.0620 -0.1792
27640W        W44114  18.321  17.812   5.257  0.0557 -0.4199  0.0281
27641W        W44115   9.126   7.020   1.324 -0.1229 -0.0472 -0.0093
27642W        W44116   3.874  11.581   5.070 -0.1134  0.3650 -0.4044
27643W        W44117  18.217   2.081   0.395 -0.1040  0.1948 -0.1336
27644W        W44118   1.562   5.313   1.718 -0.0054 -0.1203 -0.2877
27645W        W44119  12.597   2.064   1.352 -0.0192  0.3040 -0.0323
27646W        W44120  15.148  13.897  13.083 -0.0130  0.0205  0.2685
27647W        W44121  14.859   5.381   3.039 -0.0326 -0.3755  0.2237
27648W        W44122  11.642   7.587   3.008  0.1488  0.3187  0.0943
27649W        W44123  16.198   1.196   4.340 -0.2798  0.2754 -0.0577
27650W        W44124  18.439  11.036   0.167  0.1726 -0.0734 -0.0917
27651W        W44125  10.195  10.053  11.614 -0.1452 -0.0796  0.0338
27652W        W44126   7.913  12.239   0.571 -0.0736 -0.0153 -0.0878
27653W        W44127   0.459   8.929  15.418 -0.0870 -0.0892 -0.3733
27654W        W44128   7.919   4.387   2.394 -0.3584 -0.3513  0.2499
27655W        W44129  14.802  18.612  13.784  0.0749  0.2683  0.0316
27656W        W44130   5.216  13.253   0.619  0.2940 -0.2867  0.1308
27657W        W44131  13.145   2.930  12.289  0.2503  0.0568  0.0038
27658W        W44132  16.428   4.589  12.147  0.2087 -0.0120 -0.0269
27659W        W44133   4.909  13.433  14.031 -0.2190  0.2590 -0.1678
27660W        W44134  12.588   5.843  12.792  0.1416  0.0083 -0.1571
27661W        W44135   9.604  18.713   2.701 -0.0293  0.2482 -0.2518
27662W        W44136   2.399  11.048  10.512  0.0605  0.0303  0.0258
27663W        W44137   5.135  16.254  13.194 -0.3566 -0.0446 -0.1120
27664W        W44138   9.836  16.530   2.905 -0.0003  0.4904  0.1682
27665W        W44139  16.811   0.266  11.563  0.0386 -0.2584 -0.1662
27666W        W44140   1.405   0.376  12.826  0.0150 -0.3545  0.0981
27667W        W44141   7.222  16.579  12.130  0.1668  0.1127 -0.0610
27668W        W44142  17.851   8.843  11.527  0.0453  0.1717 -0.0382
27669W        W44143   8.434   0.619   5.805 -0.2060  0.5003  0.0672
27670W        W44144  15.585  12.602   4.684 -0.0272  0.0591 -0.3496
27671W        W44145  17.956  11.752   3.380 -0.0131 -0.0793 -0.2102
27672W        W44146   2.386   4.629   3.937  0.1076  0.2528  0.0920
27673W        W44147   0.010  16.763  14.328 -0.1565 -0.2565 -0.1448
27674W        W44148  15.338  14.573   3.937  0.0592  0.1364 -0.0763
27675W        W44149   1.609  12.774  13.932 -0.0609 -0.0714 -0.0838
27676W        W44150  14.526  10.483  12.086  0.1769 -0.2550  0.0783
27677W        W44151   2.799  12.519  14.821  0.1423 -0.5538 -0.0779
27678W        W44152   3.931  10.976  14.277  0.1836  0.0570  0.1774
27679W        W44153  15.135  15.890   6.423 -0.1457  0.0287  0.0828
27680W        W44154  18.466   1.917  11.504 -0.2069 -0.0133  0.0577
27681W        W44155  10.558   7.733  15.189  0.1455  0.1432 -0.0523
27682W        W44156  10.598  11.893  15.086 -0.2545 -0.0358 -0.0896
27683W        W44157   4.967  12.736   4.968  0.0363  0.0185 -0.1967
27684W        W44158  14.590  15.589   5.139  0.2889  0.1572  0.3790
27685W        W44159  15.772  16.815   1.814 -0.1411 -0.0168 -0.0429
27686W        W44160   9.629  18.463   1.893  0.1168  0.1113  0.0678
27687W        W44161   4.540   7.645   3.729 -0.3678 -0.0770  0.1785
27688W        W44162   8.288  12.419   5.200  0.0676  0.1378 -0.0951
27689W        W44163  17.583   9.115   0.486  0.1541 -0.1980  0.1263
27690W        W44164   7.558   5.521  11.798  0.3313  0.0204  0.4039
27691W        W44165   8.086  10.134   0.582  0.3222 -0.1105 -0.1588
27692W        W44166  11.894  15.610  14.939 -0.2940  0.0536  0.2613
27693W        W44167  14.240  14.973   2.295 -0.1713  0.0971 -0.2127
27694W        W44168  10.818   2.373   4.434  0.2804 -0.1432  0.2580
27695W        W44169  12.270  12.215  12.298 -0.1895  0.0198  0.1051
27696W        W44170   1.870  17.362  14.495  0.2630  0.1708  0.0307
27697W        W44171  13.474   6.372   3.966  0.2084  0.3007 -0.0473
27698W        W44172   8.370  12.949   0.231  0.1283  0.0905 -0.0610
27699W        W44173   0.961  17.458  13.548 -0.0929  0.2855  0.0421
27700W        W44174   1.621   9.051  12.354 -0.1368  0.0561  0.2018
27701W        W44175  12.673  17.838   2.334 -0.0496 -0.2263  0.0848
27702W        W44176   9.932   9.118  12.638 -0.0204  0.2580 -0.0760
27703W        W44177   8.607   1.294  11.822  0.1708 -0.0309 -0.2423
27704W        W44178   7.522   5.580   1.097  0.2058 -0.3264 -0.1467
27705W        W44179  13.476   3.398  13.499 -0.2056  0.1211 -0.2868
27706W        W44180  17.242  14.168  10.749  0.1540 -0.1717 -0.0694
27707W        W44181  14.835   1.777   4.824  0.3146  0.2895  0.2547
27708W        W44182   2.259   4.529  13.163 -0.1126  0.0612 -0.0760
27709W        W44183   9.064  17.590   2.101  0.3185 -0.0604  0.1616
27710W        W44184   8.440   6.974  13.250 -0.2682 -0.3559  0.3884
27711W        W44185  11.550   9.670  11.677  0.0531 -0.0750  0.1268
27712W        W44186   2.757  14.010   9.741  0.1052 -0.2279  0.0423
27713W        W44187   4.641   3.595  12.320  0.0075  0.0469 -0.0318
27714W        W44188  12.771  12.905   2.005 -0.0833  0.0556  0.2704
27715W        W44189   3.568   8.446  10.854  0.1618 -0.1915 -0.2369
27716W        W44190   2.355  14.768   1.705 -0.3950  0.2989  0.0158
27717W        W44191  15.091  17.074  13.598 -0.0447 -0.0488  0.0916
27718W        W44192   0.713   5.936  14.869 -0.1012  0.0718  0.2835
27719W        W44193  11.643  10.216   3.922  0.2418  0.0060 -0.0326
27720W        W44194   9.111   2.832  15.175 -0.2176 -0.0985 -0.2062
27721W        W44195  12.693  12.509  13.713 -0.0244  0.0251  0.4953
27722W        W44196  18.704  13.702   1.355 -0.1867 -0.1671 -0.0212
27723W        W44197  16.275  14.622  14.315 -0.0569  0.0495 -0.0054
27724W        W44198   9.029   6.233  14.201  0.1864 -0.0137 -0.1476
27725W        W44199   3.263  16.669  11.781  0.0277 -0.2214  0.2059
27726W        W44200   3.115  16.082  14.667 -0.3162 -0.0393 -0.1263
27727W        W44201  16.963  14.981   3.179  0.1162 -0.0834  0.0151
27728W        W44202  10.251  13.877   0.424  0.3707 -0.1684  0.0924
27729W        W44203   6.121   5.724   5.346 -0.0259  0.0728  0.1978
27730W        W44204  11.668  15.005   5.950  0.0025  0.3381 -0.2138
27731W        W44205  14.386   4.932   5.650  0.2361 -0.0485  0.3797
27732W        W44206   2.796  17.813   4.347  0.1940  0.0000  0.2202
27733W        W44207  10.566   4.634  13.582  0.3771 -0.3884  0.1622
27734W        W44208   2.771  16.047  11.458  0.1933  0.1495 -0.2319
27735W        W44209   2.879   4.237  12.302 -0.3224  0.0671  0.1273
27736W        W44210  10.484  14.235  14.961  0.0168  0.1860 -0.0972
27737W        W44211   0.089   7.506  14.468 -0.0847  0.0041  0.2203
27738W        W44212   1.749  13.803   5.282 -0.4167 -0.0260  0.0761
27739W        W44213   4.407   3.662   1.747 -0.1453  0.2194  0.0561
27740W        W44214   9.518   8.110  12.466  0.0469  0.2569 -0.1019
27741W        W44215  16.655   7.670  13.004 -0.0013  0.3034  0.0352
27742W        W44216   6.710   3.191  13.287  0.0838 -0.1418 -0.0964
27743W        W44217  18.653   0.888   2.290 -0.1507 -0.2942 -0.1744
27744W        W44218   0.947   9.701  15.380 -0.0858  0.1391  0.1102
27745W        W44219  17.759  15.098  12.623 -0.0402 -0.0779 -0.1944
27746W        W44220  11.017   2.922   2.543  0.1080 -0.0519  0.0483
27747W        W44221   3.904   7.341   2.026 -0.1951 -0.1448 -0.0635
27748W        W44222   7.512   3.662  15.147  0.0596  0.0629  0.0467
27749W        W44223   7.969  10.407  12.664 -0.0614  0.3047  0.2180
27750W        W44224   8.824   5.246   2.963  0.2584  0.1420 -0.0297
27751W        W44225   5.657  17.316  10.462 -0.0375  0.0383  0.0202
27752W        W44226   5.620   7.093   2.513 -0.2554  0.0518 -0.0934
27753W        W44227   9.270   7.832   0.087  0.3143  0.2871  0.1560
27754W        W44228   3.286  17.148   1.564  0.0441 -0.1548 -0.1887
27755W        W44229   1.589  11.187   2.147  0.0209  0.1901 -0.0938
27756W        W44230  17.707   4.867  12.290  0.0048  0.1758  0.0013
27757W        W44231   4.231   2.265  14.920 -0.0438 -0.0875  0.4408
27758W        W44232  12.806  17.954   4.318  0.0116  0.1715 -0.1244
27759W        W44233  18.089   1.579   2.754 -0.4645  0.3482  0.1503
27760W        W44234  15.723  11.664   4.585  0.2138  0.2627  0.3314
27761W        W44235  13.223  17.178   4.357 -0.1044 -0.0630 -0.1975
27762W        W44236  11.194  10.374  13.361 -0.2498 -0.1450  0.1725
27763W        W44237  13.681  14.562   3.222 -0.2603  0.2598 -0.0173
27764W        W44238  10.248   2.584   0.568  0.0123 -0.0177  0.0983
27765W        W44239  17.737   7.969   3.929  0.2643  0.2243  0.2654
27766W        W44240  11.438  15.439   6.252  0.1026  0.0947  0.0426
27767W        W44241  10.034  14.191   3.092  0.1204  0.1079  0.2157
27768W        W44242   5.039  16.345  11.788  0.1741 -0.0494  0.0758
27769W        W44243  13.596  17.052   0.365 -0.1029  0.1898 -0.0449
27770W        W44244  13.752   3.692   2.429  0.0500 -0.1633 -0.0132
27771W        W44245   6.715  18.047   3.793 -0.1505 -0.1150 -0.1759
27772W        W44246   6.747   7.320   4.751 -0.1374  0.0227 -0.0407
27773W        W44247   1.180   0.709   1.915 -0.2227 -0.0497 -0.2673
27774W        W44248  13.748   6.919   3.395 -0.1437  0.0803  0.1562
27775W        W44249   2.366   6.532   0.918  0.2474  0.2054  0.1326
27776W        W44250   5.178  15.323   0.820 -0.1792  0.3027 -0.1045
27777W        W44251  11.970  13.327   1.736 -0.0763  0.1465 -0.1141
27778W        W44252   1.759  10.529  13.229 -0.0279  0.2046  0.4198
27779W        W44253   4.094  11.212  11.674 -0.0123  0.1724  0.3068
27780W        W44254   3.464  15.244   4.409  0.2294 -0.1588  0.0966
27781W        W44255  13.909  18.215  13.976 -0.1697  0.2092  0.1068
27782W        W44256   2.337   5.291   3.385 -0.2381 -0.2472  0.0816
27783W        W44257   2.625  14.785  11.290  0.0681  0.2647 -0.1377
27784W        W44258   3.472  17.747  10.504 -0.1534 -0.3074 -0.2660
27785W        W44259  15.514  17.726  12.425  0.2331 -0.0489 -0.1984
27786W        W44260  18.444  11.990   0.760  0.0008  0.1447  0.1109
27787W        W44261   0.204  11.862  10.156 -0.0071  0.3565 -0.0151
27788W        W44262  17.226  17.727   5.238  0.0745  0.0285  0.0161
27789W        W44263  14.180  14.255   1.571  0.0192  0.1438  0.2090
27790W        W44264  15.985   9.947   4.306  0.1775  0.2682  0.0166
27791W        W44265  17.043  13.763  11.856  0.2580  0.0249 -0.0878
27792W        W44266  12.943   7.674   5.478  0.1294  0.0224 -0.2005
27793W        W44267  17.527   7.276   4.751  0.4061  0.1595 -0.0840
27794W        W44268  11.937   3.918   3.646 -0.0400  0.2388 -0.0971
27795W        W44269  15.300  10.586  13.196  0.0010  0.0055  0.2478
27796W        W44270  15.126  12.339  14.487  0.2657  0.1279  0.0737
27797W        W44271   5.831   0.630   3.413  0.2212 -0.1657  0.2186
27798W        W44272  17.602   6.997  11.165 -0.0836  0.0147 -0.1200
27799W        W44273  13.994   9.440  11.480 -0.1340  0.2627 -0.0666
27800W        W44274   5.258   0.644   3.204 -0.0006 -0.0646  0.1726
27801W        W44275   8.221   4.352  12.697  0.0986  0.4785  0.2568
27802W        W44276   8.750   9.976   5.547  0.0080  0.0424 -0.2710
27803W        W44277  16.068  13.477   3.952  0.1311  0.1204 -0.1028
27804W        W44278  18.284   6.282  12.295 -0.0981  0.3396  0.3454
27805W        W44279  13.934   7.151  12.159  0.0373  0.0641 -0.1738
27806W        W44280   9.286   8.522   4.678 -0.3963  0.0770 -0.3267
27807W        W44281  10.181   5.248  12.414 -0.2511  0.0585 -0.0614
27808W        W44282  14.909   0.719   1.522 -0.2252 -0.3107 -0.0239
27809W        W44283  13.026   9.838   5.742  0.0464  0.0124  0.2220
27810W        W44284   9.294   2.750  13.840  0.1796  0.0752 -0.0947
27811W        W44285  13.985   8.535   4.100  0.2181 -0.3552 -0.2781
27812W        W44286   9.892   3.062  11.365 -0.0310 -0.0419  0.0803
27813W        W44287   1.788   6.312  12.381  0.3848  0.2177 -0.0439
27814W        W44288  18.027   4.046  14.494  0.0134  0.0019 -0.0089
27815W        W44289   7.916   5.677  13.182  0.1728  0.1665 -0.2382
27816W        W44290  11.148   4.275   4.458  0.1075 -0.0344  0.1398
27817W        W44291   1.122   0.410   4.841  0.1886 -0.1217 -0.1019
27818W        W44292  16.445  15.271   5.338  0.2705 -0.3435  0.2244
27819W        W44293  14.744   7.711  14.399  0.0423 -0.3693  0.0546
27820W        W44294  16.761   8.538  13.333 -0.0333  0.2032  0.1059
27821W        W44295  16.429   9.125   0.579 -0.0403  0.0268 -0.0532
27822W        W44296   7.596   5.871  13.671 -0.0624 -0.1347 -0.2427
27823W        W44297   3.533   2.822  10.539 -0.4653  0.3119  0.2683
27824W        W44298  13.635   3.742  11.076  0.2169 -0.0418 -0.1311
27825W        W44299  10.401  14.488   2.332 -0.0403  0.0725  0.1231
27826W        W44300  15.552   4.830   3.028  0.0761  0.0442  0.2885
27827W        W44301   7.896  17.541   2.694  0.1859 -0.2444 -0.3148
27828W        W44302   8.772  15.320   5.633 -0.0454 -0.1513  0.1017
27829W        W44303   7.990  13.653   4.650 -0.0484  0.0095  0.1478
27830W        W44304   4.542   8.094  13.406  0.1040  0.1615 -0.0564
27831W        W44305   3.756   5.247   0.716 -0.0059 -0.1906  0.3462
27832W        W44306  11.919   8.700   0.306 -0.0681 -0.0887 -0.1038
27833W        W44307   8.022   9.170  12.129 -0.0636 -0.4703  0.0970
27834W        W44308   9.760   0.271  14.856  0.0100 -0.1077  0.3787
27835W        W44309   4.261  14.873  11.645 -0.0778  0.0094 -0.1487
27836W        W44310   9.418   4.029   0.869  0.0151 -0.2572  0.1852
27837W        W44311  16.884   2.950   1.155  0.4338 -0.0802  0.0584
27838W        W44312   8.150  16.668   2.616 -0.0463 -0.0763  0.1827
27839W        W44313   4.081   0.473   4.321 -0.1215  0.1806  0.0317
27840W        W44314   1.341  17.137   2.376  0.1207 -0.1742  0.3044
27841W        W44315   8.066  17.757  13.719  0.2543  0.1856 -0.0730
27842W        W44316   2.120  10.061  11.405 -0.0875  0.0326  0.1549
27843W        W44317  17.650   7.362  15.266  0.0951 -0.0591 -0.1746
27844W        W44318   0.452   5.361  12.070  0.0733  0.0669 -0.1247
27845W        W44319   5.370  15.582  13.977  0.2025  0.3835 -0.3360
27846W        W44320  18.532   5.665  10.687  0.2300 -0.1419  0.0423
27847W        W44321   3.556  14.822   1.354 -0.0508 -0.0525  0.3375
27848W        W44322  16.739   1.021   0.143  0.3097  0.2964  0.0190
27849W        W44323   7.011   5.466   1.950 -0.1941 -0.0223  0.2330
27850W        W44324   2.827   5.229   0.773 -0.0256 -0.0292  0.1461
27851W        W44325   7.474   0.017   3.652  0.3101  0.1396 -0.2070
27852W        W44326   1.451   8.248   4.024 -0.2698  0.1367 -0.1228
27853W        W44327  15.941   9.373  11.502 -0.1588 -0.0936 -0.1238
27854W        W44328  11.063  13.484   5.919 -0.1765  0.0360 -0.2329
27855W        W44329   2.979   7.113   2.376 -0.1221 -0.1415 -0.1818
27856W        W44330   0.334   6.201  13.351  0.1227  0.2650 -0.1202
27857W        W44331  17.320  10.669  11.477  0.2230  0.0647 -0.1203
27858W        W44332  17.092  14.635  12.727 -0.0772 -0.3048 -0.0647
27859W        W44333   4.657  16.641  11.587  0.0476  0.3468 -0.0964
27860W        W44334  18.246   9.535  13.479 -0.3643 -0.0792  0.1061
27861W        W44335  15.673   7.309   1.476  0.0083  0.0934 -0.0459
27862W        W44336   4.317  10.631   4.321  0.2919  0.0629 -0.0517
27863W        W44337  12.589   9.337  13.736  0.2057  0.2857  0.1253
27864W        W44338  11.104  11.145  11.991 -0.1934  0.0890 -0.1130
27865W        W44339   5.736  12.783  11.467 -0.1763  0.2752  0.2394
27866W        W44340   3.182   9.274  12.001  0.2923  0.0909  0.1378
27867W        W44341  16.048   4.723   3.983  0.0085  0.0743 -0.2076
27868W        W44342  15.451  18.732   4.718 -0.1531 -0.2173 -0.2067
27869W        W44343  11.056  14.277   3.040  0.0458  0.3757 -0.1957
27870W        W44344   1.795  17.519   0.879  0.1161 -0.3339 -0.2613
27871W        W44345   4.741  14.556   3.955 -0.3349 -0.0222 -0.0133
27872W        W44346  11.377  18.009   4.884  0.2528  0.1795  0.2880
27873W        W44347  10.435   8.664  13.994 -0.0201  0.0494 -0.0313
27874W        W44348  13.471   6.902  14.323 -0.0684 -0.1172 -0.0747
27875W        W44349   6.824   1.778   4.396  0.1418  0.0044 -0.1113
27876W        W44350   1.023  12.921  15.244  0.2235 -0.2573 -0.1112
27877W        W44351   0.324  15.434  14.624  0.1267 -0.0659  0.2665
27878W        W44352  16.657   5.841   4.170  0.0303  0.4886 -0.0189
27879W        W44353  14.240  18.651  13.119 -0.3340 -0.2013  0.1895
27880W        W44354  14.839  13.720   4.950  0.1886 -0.4416  0.2014
27881W        W44355   0.264   9.641  12.097  0.0458  0.0481 -0.2358
27882W        W44356   3.962  15.052   0.529 -0.0575 -0.0281  0.1207
27883W        W44357   3.061   9.815   4.304 -0.3671  0.0006  0.1190
27884W        W44358   1.074  16.573   4.672  0.0392  0.0121  0.1899
27885W        W44359  13.780  10.353  11.526 -0.0311  0.0244 -0.2127
27886W        W44360  15.223   2.914   3.688 -0.0636  0.1856  0.3193
27887W        W44361   9.646   4.607  14.540  0.0199 -0.2853  0.3173
27888W        W44362  16.643   3.163  11.365 -0.2455  0.1446  0.0063
27889W        W44363   0.757   8.552   3.772  0.4157 -0.2141  0.1175
27890W        W44364   4.239   0.887  12.641 -0.0398  0.2070  0.1977
27891W        W44365   8.119   2.372  11.709 -0.0416  0.2619 -0.1334
27892W        W44366  16.205   5.668   1.492 -0.3472 -0.1147  0.2177
27893W        W44367   2.773   6.209   5.353  0.0358  0.0339  0.1705
27894W        W44368   2.548  16.036   2.724 -0.2256  0.1375 -0.2086
27895W        W44369  17.109   7.200   1.881 -0.2100  0.0128 -0.0088
27896W        W44370  18.034   0.501   4.946  0.1519 -0.1037  0.1219
27897W        W44371  15.664   1.885   0.062 -0.2879 -0.0428 -0.1129
27898W        W44372   3.097   1.377   0.196  0.0131 -0.1527 -0.1189
27899W        W44373   4.084   0.348  12.797 -0.3689 -0.3539 -0.4650
27900W        W44374   8.523  14.334  12.533 -0.4065  0.2168 -0.0461
27901W        W44375   4.162   3.147   0.952 -0.2514 -0.0399  0.0995
27902W        W44376  12.723  14.309   5.121  0.0428  0.1813 -0.0475
27903W        W44377   2.195  16.886  10.498 -0.1788 -0.0108  0.2510
27904W        W44378   6.413   8.242   0.258  0.1437 -0.0111  0.1388
27905W        W44379  18.775   3.778   2.989  0.1819  0.5052 -0.1020
27906W        W44380  10.911  14.306   0.686  0.0438  0.0888  0.0736
27907W        W44381  13.514  10.821  14.094  0.3427 -0.5304  0.1679
27908W        W44382  11.706   3.563   1.785  0.1756 -0.2590 -0.3278
27909W        W44383  16.959  14.583   1.282  0.1745  0.0863 -0.2072
27910W        W44384   6.850   9.332  10.878 -0.0498 -0.0201 -0.0632
27911W        W44385   7.626  10.352  11.174  0.2941 -0.0033 -0.1923
27912W        W44386   6.711   1.141   9.550  0.0338  0.1848 -0.0570
27913W        W44387  10.246  18.212  13.623 -0.0114  0.0032  0.4867
27914W        W44388  11.265   0.286   0.549  0.0482 -0.0361  0.0401
27915W        W44389  16.428   9.533   1.709  0.1149  0.2015  0.2347
27916W        W44390   2.183   9.805  13.446 -0.3579  0.0646  0.2388
27917W        W44391   6.402  16.695  13.300 -0.3088  0.1554  0.1876
27918W        W44392  18.474  14.148   5.081 -0.0775 -0.0711  0.2759
27919W        W44393  11.789  13.185  12.110 -0.1209  0.2169  0.0153
27920W        W44394   3.903  15.001  14.860  0.1301  0.2675 -0.0832
27921W        W44395  18.180   8.067  11.999  0.0855 -0.2103  0.3541
27922W        W44396   9.573   9.686  11.172  0.0147  0.1099 -0.3627
27923W        W44397   0.940   0.256   3.934 -0.1668  0.0634 -0.0919
27924W        W44398   9.864  10.295   5.064 -0.0334  0.0745 -0.0719
27925W        W44399   2.600  17.441  13.164  0.0502  0.1414  0.2264
27926W        W44400  18.238   5.000  13.084 -0.1650  0.4008  0.0108
27927W        W44401  10.300  11.864   3.983  0.0996 -0.2200 -0.0415
27928W        W44402  11.184   6.718  10.647  0.2225 -0.0368 -0.3548
27929W        W44403   1.124   8.736  12.430  0.3603  0.2256 -0.2834
27930W        W44404  10.887  17.838  14.581  0.1421 -0.2751  0.0719
27931W        W44405   2.677  10.770   3.714  0.0733  0.2996  0.0925
27932W        W44406   5.837   8.128  11.543  0.0335 -0.1351  0.0626
27933W        W44407  16.749  18.541   0.331  0.2426 -0.2199  0.1196
27934W        W44408   8.639  16.071   2.003  0.2531  0.1542 -0.2972
27935W        W44409  15.155   9.406  12.130 -0.0408  0.1008  0.0063
27936W        W44410  14.816   6.865   3.988  0.0140  0.1012 -0.0499
27937W        W44411   9.079  10.318  13.971  0.0101  0.0805  0.0663
27938W        W44412   0.860   2.434   3.156 -0.1964 -0.1033 -0.1007
27939W        W44413   1.605  13.488   2.572 -0.0748 -0.2391 -0.3585
27940W        W44414  12.039  12.735  14.700  0.1226 -0.0608  0.2187
27941W        W44415  16.511  13.970   4.951  0.1527 -0.1506 -0.1042
27942W        W44416  18.306   2.405   3.210 -0.1535  0.1482  0.2168
27943W        W44417   9.493   0.801  14.382 -0.0787  0.2356  0.0146
27944W        W44418  10.657   2.732  12.181 -0.1224 -0.0340 -0.1677
27945W        W44419   8.373   4.109   0.855 -0.4055 -0.1726  0.2950
27946W        W44420  14.547   4.015   0.216  0.3530  0.0229 -0.0255
27947W        W44421   4.136  13.588  13.445 -0.1702 -0.2187  0.3532
27948W        W44422  12.500  10.724   3.849 -0.2496  0.0063  0.1174
27949W        W44423   6.570   2.735  12.393  0.1998  0.2527  0.1437
27950W        W44424   0.333   9.780   1.648  0.2691 -0.2721  0.0374
27951W        W44425  14.606  14.417   0.842 -0.0881 -0.0383 -0.1547
27952W        W44426   9.621   4.797   0.766  0.0248 -0.4872  0.1072
27953W        W44427   2.383   8.079   1.185 -0.1230 -0.0529 -0.4783
27954W        W44428  13.454   0.216   1.531  0.2926  0.3015 -0.0999
27955W        W44429  18.294   3.795  11.132 -0.3075  0.1281  0.1648
27956W        W44430  11.478   3.102  13.255  0.3693 -0.0858  0.0561
27957W        W44431   6.640  14.624  14.980  0.2791 -0.2024  0.0200
27958W        W44432  17.651  12.770  14.100  0.0725 -0.0435  0.0714
27959W        W44433  16.918  17.164  12.405 -0.3094 -0.1504 -0.0145
27960W        W44434  11.567  14.688   1.697  0.1104  0.0469 -0.0158
27961W        W44435  13.237   4.032  14.039 -0.0099 -0.1710 -0.4341
27962W        W44436  12.701   8.604  14.807 -0.1888  0.0687 -0.1000
27963W        W44437   9.011   7.411   1.841  0.1439 -0.4362 -0.0498
27964W        W44438   6.764  13.886  14.511  0.1383 -0.2513  0.1128
27965W        W44439   5.249   7.332   2.230 -0.1844  0.3832  0.1436
27966W        W44440  12.638   2.885   4.194 -0.2235 -0.0685 -0.0058
27967W        W44441   6.908  15.927   1.566  0.2246  0.2363 -0.2669
27968W        W44442   3.991  18.743   1.528 -0.0187 -0.1696 -0.0542
27969W        W44443  12.156  10.655  14.141 -0.0149  0.1025 -0.1521
27970W        W44444   9.099  14.663   3.929 -0.0090  0.2893  0.1688
27971W        W44445   3.915  11.337   0.966  0.0915  0.2041 -0.0149
27972W        W44446  12.542   4.156   1.527  0.3017  0.0896 -0.1649
27973W        W44447  15.911   1.101   3.197 -0.1916  0.2322  0.0437
27974W        W44448  13.434  17.480  13.226 -0.1462  0.2815 -0.1605
27975W        W44449  10.109   9.674   3.603 -0.2815 -0.3217  0.0502
27976W        W44450   8.441  12.354   1.578 -0.0627  0.0064 -0.0227
27977W        W44451   4.694   6.228   1.150 -0.0074 -0.0780  0.1857
27978W        W44452   7.768   7.187   4.679  0.2910  0.1280 -0.0689
27979W        W44453   8.933   0.355  15.189 -0.0002 -0.1925  0.0457
27980W        W44454  14.921  12.396   4.991  0.2926 -0.0302  0.0223
27981W        W44455   7.298   8.469   3.191 -0.0346  0.3488 -0.0586
27982W        W44456   8.392   3.613  11.762 -0.0688  0.1489 -0.0901
27983W        W44457  14.830   5.332   4.393 -0.0628  0.1951 -0.2084
27984W        W44458   9.005   0.899  13.695  0.0702 -0.2457  0.0592
27985W        W44459  17.288  18.208   4.013  0.3095  0.1245 -0.0982
27986W        W44460   0.451  18.277  15.497  0.1810 -0.0521 -0.0525
27987W        W44461  12.833   3.280  12.002 -0.0571  0.0359  0.2791
27988W        W44462   8.710  16.190  12.445  0.1993  0.0637  0.1018
27989W        W44463  15.928   7.766  14.745 -0.1551  0.1191 -0.2034
27990W        W44464   8.056  13.643   1.158 -0.0645  0.0605 -0.2918
27991W        W44465   0.810  11.694  13.630  0.0606  0.1496  0.1534
27992W        W44466   2.065  17.217   2.986 -0.0598 -0.1746 -0.2216
27993W        W44467   3.372   8.181   3.273 -0.0923  0.0094  0.0984
27994W        W44468   2.491  12.240   3.060  0.4587 -0.0918  0.1009
27995W        W44469  18.401   7.277  10.653  0.0307 -0.0942  0.1070
27996W        W44470   6.365   9.243  11.897 -0.0835  0.2685  0.1926
27997W        W44471  11.391  15.693  15.060  0.2327  0.1891 -0.0603
27998W        W44472  15.311   7.323  15.531  0.4382 -0.0413  0.1071
27999W        W44473  16.985   5.798  14.601  0.0932  0.0951 -0.2088
28000W        W44474   0.353  14.632   0.408  0.0720 -0.2832 -0.2608
28001W        W44475  12.431   8.003  14.752  0.1172 -0.0217  0.0705
28002W        W44476  12.302   4.805  15.409 -0.1156 -0.1092  0.1327
28003W        W44477  15.892   2.481  11.283 -0.0571  0.0831  0.4114
28004W        W44478  18.486  15.792   0.477  0.3022 -0.0252  0.4239
28005W        W44479  14.637   5.822   3.814  0.0086  0.0798 -0.1198
28006W        W44480   5.928   9.396   0.346 -0.1406 -0.1680 -0.0411
28007W        W44481  17.167  11.677  10.660 -0.4823 -0.0570 -0.2361
28008W        W44482  17.603   0.103  12.799  0.0199  0.3722  0.1575
28009W        W44483   0.283  17.829  11.537 -0.1081 -0.1895  0.1797
28010W        W44484  11.439  18.280  11.379  0.1379  0.0629 -0.1882
28011W        W44485   9.403  10.338   3.831  0.0535  0.1601 -0.3750
28012W        W44486  17.524   7.795  14.903  0.0647  0.2172  0.0866
28013W        W44487   4.897  17.024   3.718 -0.1853  0.1857 -0.1654
28014W        W44488  11.993   0.704   4.110  0.0775 -0.0724  0.0580
28015W        W44489   3.309   9.697  11.809  0.0124 -0.0761  0.4008
28016W        W44490   8.748  13.655  14.314  0.0803 -0.0765  0.2989
28017W        W44491   1.143   2.339  12.582 -0.2282  0.0941  0.2012
28018W        W44492   9.785  10.337  11.629  0.2576 -0.0387 -0.0899
28019W        W44493  10.339  15.434  12.087 -0.0175  0.0842 -0.3202
28020W        W44494   9.690  13.479  14.691 -0.0331 -0.0148 -0.0394
28021W        W44495  17.252  17.881   1.336 -0.0773  0.1876 -0.0525
28022W        W44496   6.207  10.421  15.389 -0.1058 -0.0037  0.0626
28023W        W44497   7.711   8.342   3.375  0.0110  0.1869 -0.0002
28024W        W44498   0.352   2.482  14.741  0.0552  0.0705 -0.0795
28025W        W44499   0.689   4.931   4.007  0.0688  0.0341  0.0196
28026W        W44500   1.622  10.186  10.610 -0.0184 -0.1589 -0.0324
28027W        W44501   3.803   1.692  14.881 -0.1730  0.2866 -0.0253
28028W        W44502   6.186  15.060   1.101  0.1830 -0.0656  0.0417
28029W        W44503  10.570   1.676   2.985 -0.1544 -0.1076  0.1453
28030W        W44504  17.968  11.653   4.532  0.1970 -0.4506  0.1232
28031W        W44505   9.231   2.309   1.375 -0.1473 -0.0212  0.0669
28032W        W44506  17.186   9.622   0.833 -0.2300  0.0879  0.0844
28033W        W44507   4.988  10.481   0.065  0.0834 -0.1323 -0.3175
28034W        W44508   1.522   7.432   5.120 -0.2987 -0.5042 -0.2001
28035W        W44509   2.557   3.025   0.637  0.1636  0.1196  0.0579
28036W        W44510   9.199  14.123   5.059  0.0489  0.2643  0.0188
28037W        W44511  10.060  18.208   4.849 -0.2144  0.0359  0.0155
28038W        W44512  16.708   5.947   2.469  0.2487 -0.0046 -0.1567
28039W        W44513   4.029  15.017   1.031 -0.2403 -0.1900 -0.0275
28040W        W44514   9.420  14.552   1.614 -0.1857 -0.0972 -0.0416
28041W        W44515  15.959   0.029  13.081  0.1542  0.2183  0.2721
28042W        W44516  12.672  15.108  10.910 -0.1190 -0.2949 -0.0399
28043W        W44517  16.431  13.999  15.308 -0.0638  0.0298  0.1644
28044W        W44518  18.309   2.203  12.283 -0.1045  0.2614 -0.0431
28045W        W44519  16.804   4.812   4.026 -0.1737 -0.0118  0.1028
28046W        W44520   4.240  11.703   2.228 -0.1472 -0.0897  0.4834
28047W        W44521  16.256   8.330   5.236 -0.1192  0.0629  0.1600
28048W        W44522   5.965   2.157   3.576  0.1390 -0.0851  0.2421
28049W        W44523  13.125   2.055  14.737 -0.3064  0.1768  0.0014
28050W        W44524  12.230   9.055   2.938 -0.1142 -0.0731 -0.0629
28051W        W44525   7.212   1.931  13.433  0.0799  0.0165  0.2466
28052W        W44526  10.921  13.797   5.262  0.1130  0.2720 -0.1682
28053W        W44527  13.674  16.330   2.540  0.3250 -0.1321  0.0872
28054W        W44528   8.711   6.783  11.186  0.0334  0.4088  0.2174
28055W        W44529   7.353  11.155   0.495  0.4236 -0.0069 -0.1327
28056W        W44530  17.287  18.290  14.968 -0.1198  0.1894  0.1804
28057W        W44531   9.226  12.589   3.310  0.3512  0.1158  0.2324
28058W        W44532  14.267  10.514   2.488  0.4217  0.1326  0.0449
28059W        W44533  17.414   9.136  15.232 -0.0790 -0.2075 -0.2604
28060W        W44534   6.831   2.914  10.794  0.0480  0.0484  0.2592
28061W        W44535   2.573   7.586   0.900 -0.0098 -0.0630 -0.1219
28062W        W44536   5.133   3.076   1.727  0.1237  0.2659  0.0070
28063W        W44537  10.763   6.134  12.898 -0.2181  0.0563 -0.1172
28064W        W44538   2.339  12.629  13.647  0.2407 -0.1418  0.1274
28065W        W44539   5.113   5.057   2.359  0.0458  0.3430 -0.0092
28066W        W44540  15.531  15.000  15.315  0.0403  0.0649  0.1885
28067W        W44541  18.360   4.309   3.639 -0.1996  0.2457  0.1408
28068W        W44542   8.514   4.045  10.985 -0.0797  0.1911  0.1512
28069W        W44543   8.003  13.213   0.495  0.0259 -0.1624 -0.1710
28070W        W44544   1.436  10.542   1.516 -0.0493  0.1740  0.0495
28071W        W44545   7.987  17.489  15.081 -0.0481 -0.2549  0.2664
28072W        W44546  13.754   8.103  15.025  0.0455 -0.0888 -0.3645
28073W        W44547  18.578   4.201   3.059 -0.0536 -0.0161  0.3391
28074W        W44548  12.196  10.525   4.993  0.0403 -0.0570  0.0590
28075W        W44549  16.293   5.900  12.096  0.2865  0.0722 -0.0299
28076W        W44550   1.343   5.767   4.016 -0.0435 -0.0763 -0.1383
28077W        W44551  13.217  12.196   3.475 -0.0695  0.3546 -0.0357
28078W        W44552   0.452  11.484  15.413 -0.0663  0.1368  0.2527
28079W        W44553  13.750   1.606  13.640  0.0020 -0.2578  0.0857
28080W        W44554   2.761  16.016   2.300 -0.1926 -0.1728 -0.0226
28081W        W44555   6.193   2.208   2.528  0.0548  0.1097  0.0373
28082W        W44556   0.474   2.806  11.099  0.0477 -0.3052 -0.0404
28083W        W44557  17.390   7.203  13.091 -0.1884  0.0320 -0.0509
28084W        W44558   4.944   2.285  11.596 -0.0286  0.2335 -0.2660
28085W        W44559  15.799  12.284  14.272  0.3908 -0.0223  0.2868
28086W        W44560   6.163  12.305  12.119  0.0635 -0.0941  0.0876
28087W        W44561   2.133   8.401  12.124 -0.2448  0.0970 -0.0703
28088W        W44562   6.799   6.380  13.901  0.1568 -0.4100 -0.0163
28089W        W44563   2.753  18.332  11.428 -0.1536 -0.2108  0.1290
28090W        W44564  12.606   1.861  10.026 -0.3520  0.3029  0.0375
28091W        W44565  12.049  12.820  12.377  0.1301  0.1413  0.3352
28092W        W44566   6.513   1.866   2.333 -0.0113  0.0803  0.1436
28093W        W44567   8.034  11.193  12.259  0.0905  0.1719  0.1275
28094W        W44568   0.687   9.449  11.918 -0.0902 -0.1261 -0.1166
28095W        W44569   7.733   7.142  12.001  0.0333 -0.1411  0.0536
28096W        W44570  12.834   7.457   1.873  0.1292 -0.1554 -0.3318
28097W        W44571   4.004  17.754  13.653  0.0475 -0.0890 -0.1729
28098W        W44572   9.452  15.420  12.254  0.2198 -0.1231 -0.2738
28099W        W44573  10.334  12.959   4.154  0.3617  0.2418  0.2861
28100W        W44574  18.485   7.780   4.547  0.0230 -0.0510  0.2732
28101W        W44575   3.671  18.661  13.959 -0.1049  0.4005  0.2444
28102W        W44576   2.640  18.585  14.460 -0.0710  0.3009  0.1949
28103W        W44577   8.207   8.918  15.449 -0.0729 -0.2611  0.1194
28104W        W44578  14.887   4.804  11.858  0.3024  0.1653  0.2303
28105W        W44579  10.329  16.023   3.925  0.1937 -0.0345  0.1369
28106W        W44580  18.745  16.769   0.864  0.0459 -0.0226  0.1293
28107W        W44581  11.614   3.407  11.529  0.2939 -0.0224 -0.3553
28108W        W44582  14.476   3.340  11.254  0.0724 -0.0968  0.0846
28109W        W44583   5.573  15.089  10.779 -0.4547 -0.1157  0.4276
28110W        W44584   9.379   3.890  12.901  0.3171  0.0169 -0.0835
28111W        W44585  10.270   7.709  11.324  0.1950  0.1392 -0.2847
28112W        W44586  15.955   2.716   1.628 -0.1944  0.0614 -0.2449
28113W        W44587   1.910  15.240   5.046  0.1334 -0.2016 -0.2770
28114W        W44588   3.902  12.859   0.808 -0.0004 -0.0070 -0.2242
28115W        W44589  15.353  12.808   3.608 -0.2244 -0.3100 -0.3732
28116W        W44590  16.144  14.656  12.531  0.2330  0.1000  0.0229
28117W        W44591   6.944   4.066  14.380  0.3060 -0.1276  0.0264
28118W        W44592  17.309  15.470   0.915  0.0191 -0.5501 -0.1088
28119W        W44593  11.712   6.787   3.980  0.1402 -0.1259 -0.4335
28120W        W44594   3.776  12.584  10.418  0.1898 -0.0751 -0.1229
28121W        W44595   1.896   1.065  12.728  0.2326 -0.0019 -0.3540
28122W        W44596  13.283   8.960  14.132  0.1147  0.1225  0.0015
28123W        W44597  10.291  10.355   4.864 -0.2172  0.0737  0.2333
28124W        W44598  12.916  11.581  13.137 -0.0392 -0.0825 -0.0401
28125W        W44599  13.348   7.983   3.098 -0.4348 -0.1872 -0.2258
28126W        W44600  12.449   8.391  15.222  0.0380  0.0103  0.1753
28127W        W44601   3.208  12.371   0.332  0.0412 -0.1661 -0.0918
28128W        W44602  18.757   0.893  12.236  0.1059  0.0580  0.2566
28129W        W44603   3.450  15.371   1.286  0.0337 -0.4023  0.0516
28130W        W44604  12.614  10.216   0.496  0.0514  0.2129  0.1645
28131W        W44605  16.243   7.485  14.382 -0.0544  0.1131  0.0822
28132W        W44606   2.594   5.745  12.025 -0.0886 -0.0535  0.3238
28133W        W44607   2.721   5.729   4.643  0.5298  0.0830  0.2988
28134W        W44608  15.372  14.836  13.012  0.1189  0.0492 -0.0072
28135W        W44609  13.533   0.827  13.605 -0.1883  0.0899 -0.3087
28136W        W44610  10.410  18.171  14.105  0.1482 -0.3053  0.1364
28137W        W44611   7.282  18.505   1.139 -0.1027 -0.0919  0.1356
28138W        W44612   3.491  15.251  14.057 -0.0461 -0.1149 -0.1018
28139W        W44613  15.897  10.134  14.746  0.0702 -0.2399 -0.0934
28140W        W44614   3.178   5.405   5.446 -0.1698  0.1873 -0.2008
28141W        W44615  12.748  13.866   0.668 -0.1721 -0.1678 -0.1217
28142W        W44616   0.543  17.084  11.074  0.1630  0.2167  0.0325
28143W        W44617   6.882  10.838   3.276  0.0300  0.1430  0.0909
28144W        W44618  17.455   1.434   1.395  0.2734 -0.1010 -0.2660
28145W        W44619   6.651   0.842   4.635  0.1922  0.2084  0.0727
28146W        W44620   5.817   2.790   9.423 -0.0057  0.1116 -0.2956
28147W        W44621  16.018  10.571  14.954 -0.2172 -0.1976  0.2366
28148W        W44622   0.392   4.973   4.576 -0.1640 -0.0510  0.1248
28149W        W44623   5.045   8.643   1.962  0.1469 -0.1672 -0.0588
28150W        W44624   1.960   0.395  14.278  0.1256  0.0930  0.1936
28151W        W44625   5.461  15.936  14.994  0.0897  0.2899  0.0825
28152W        W44626  16.831   9.359   3.082 -0.3128 -0.0405 -0.1987
28153W        W44627   5.167   8.579   1.498  0.0422  0.2582 -0.0037
28154W        W44628  15.267   3.181  10.724 -0.0571 -0.0471 -0.0626
28155W        W44629   2.171   6.730   1.841 -0.1985 -0.1283  0.0037
28156W        W44630  16.566  18.187  13.488 -0.0938  0.0252 -0.0107
28157W        W44631   9.325  13.164   1.177 -0.1666  0.0367 -0.2653
28158W        W44632   2.130   5.972  12.162 -0.0176  0.1079 -0.3639
28159W        W44633   8.103   7.104   3.777 -0.1994 -0.1815  0.2254
28160W        W44634  10.999  17.343  14.817 -0.0367  0.0839 -0.1155
28161W        W44635  11.624   0.009  13.930  0.2054 -0.2219  0.0641
28162W        W44636   3.055  17.080   3.960 -0.0394 -0.1542  0.2453
28163W        W44637   8.738   6.810   1.588 -0.2401  0.2523  0.0489
28164W        W44638   8.442   9.054  13.730 -0.2499 -0.0259 -0.2057
28165W        W44639  11.890  12.246   3.490  0.1123 -0.1842  0.0080
28166W        W44640  13.978   5.004   1.805 -0.2045 -0.2748 -0.2998
28167W        W44641  16.401   8.809  10.862 -0.0212  0.0539 -0.0715
28168W        W44642   0.992   1.057  11.754  0.0793  0.0012  0.0466
28169W        W44643  10.677   9.320  11.773 -0.3664  0.1504 -0.0037
28170W        W44644   6.039   3.328   4.034  0.1260  0.3577  0.0609
28171W        W44645  12.828  13.903   2.796  0.0247 -0.1445 -0.1036
28172W        W44646  12.875   6.319  14.268 -0.0264 -0.0062 -0.1832
28173W        W44647  14.312  11.362  14.964 -0.1744  0.3996 -0.1501
28174W        W44648  13.360   5.018  13.186 -0.0786 -0.2420  0.0972
28175W        W44649  14.029  11.193   5.895  0.2190 -0.0965  0.2807
28176W        W44650   6.678  17.419  13.995  0.0283 -0.0273  0.3205
28177W        W44651  12.612   5.666   0.028  0.0387 -0.2293  0.1427
28178W        W44652   3.131   8.304   1.170 -0.0102  0.2198  0.0696
28179W        W44653   0.974   1.430  12.099  0.1059  0.3070  0.0454
28180W        W44654  14.494   8.398   2.527 -0.1763 -0.1445 -0.0738
28181W        W44655  11.766  16.109   3.807  0.0675 -0.0886  0.1372
28182W        W44656  18.079  13.402  13.338  0.1830 -0.0538 -0.1282
28183W        W44657  15.226  10.834  14.862 -0.1439  0.1258 -0.0654
28184W        W44658  15.060   5.768   0.518  0.1061 -0.0017 -0.1025
28185W        W44659   4.616   3.535  15.261 -0.1108 -0.2453 -0.2585
28186W        W44660  15.640   5.700   1.384 -0.1021 -0.0539  0.3370
28187W        W44661   7.051  16.470  13.155 -0.1875 -0.0290  0.0736
28188W        W44662   6.946  17.504   4.056  0.0825  0.0472 -0.1957
28189W        W44663   5.483  13.185  14.134 -0.2228 -0.0599  0.1150
28190W        W44664   7.311  16.670   4.832 -0.2159 -0.0120  0.3197
28191W        W44665   9.744  11.817   0.703 -0.0215 -0.0854 -0.4593
28192W        W44666   0.275   5.561   2.222  0.0370  0.1528  0.0360
28193W        W44667   7.569   3.109  11.827 -0.1159 -0.2053 -0.3362
28194W        W44668  18.472   5.603   1.385 -0.0505 -0.2141 -0.2558
28195W        W44669  17.363   3.084   2.370  0.1794  0.1782 -0.0601
28196W        W44670   8.395   7.716  11.276  0.3985 -0.0933  0.4233
28197W        W44671   0.330   4.018  12.088 -0.0269  0.0834 -0.1965
28198W        W44672  13.060  12.100  13.646 -0.1434  0.4209 -0.0666
28199W        W44673  15.988   1.791   3.717  0.0261 -0.3793 -0.1670
28200W        W44674  16.471   1.812   2.344 -0.0935  0.2636  0.1596
28201W        W44675  13.010   8.532   4.895  0.1539  0.1792  0.2121
28202W        W44676   2.636  18.640   5.002 -0.0885  0.0641  0.2411
28203W        W44677   3.249  15.700   0.488  0.0638  0.1338  0.0737
28204W        W44678   5.251   6.635   4.352  0.0902  0.1212 -0.1160
28205W        W44679   0.311   8.730  14.571 -0.1714  0.1275 -0.3066
28206W        W44680  13.137   7.658  14.406 -0.1423 -0.1374  0.0835
28207W        W44681  16.939  15.261   5.232  0.1771 -0.1234  0.2326
28208W        W44682   7.561   2.819   0.687 -0.1669 -0.1061 -0.1870
28209W        W44683  17.337   8.279  13.159  0.0410 -0.1622  0.0878
28210W        W44684  14.911  14.870  10.041 -0.0191 -0.0106 -0.2576
28211W        W44685   5.065   4.753   2.768  0.0485  0.0994 -0.0269
28212W        W44686  14.311   3.064   6.093  0.0096  0.1940  0.1384
28213W        W44687  16.080   6.026  15.147  0.0743  0.2322 -0.1899
28214W        W44688   4.581  17.154   3.206  0.0750  0.2394 -0.0850
28215W        W44689  14.409  14.540   4.947  0.0079  0.0508  0.1442
28216W        W44690   4.795  10.303  12.436 -0.0600 -0.5684 -0.1301
28217W        W44691  15.348   1.516  13.327  0.1543  0.1976 -0.0262
28218W        W44692  14.300   7.514   1.098  0.1008 -0.1107 -0.2784
28219W        W44693   8.652  12.329  13.912  0.2367  0.2332 -0.5754
28220W        W44694  15.750  15.313  14.940  0.3820 -0.1194  0.1960
28221W        W44695  15.034   6.962  13.158  0.0762  0.0283 -0.2868
28222W        W44696   8.737  17.219  15.565 -0.0328 -0.0324  0.2485
28223W        W44697  18.487  16.439  14.674  0.0458 -0.2002  0.0346
28224W        W44698  15.662  14.964   1.021  0.1029  0.1765 -0.2007
28225W        W44699  11.754   8.871  11.194 -0.1004  0.4516 -0.1503
28226W        W44700  14.121  11.881   0.132  0.3075  0.0786 -0.0044
28227W        W44701   1.560  17.946   4.417  0.1312 -0.3752 -0.0312
28228W        W44702   9.774  13.210   3.734 -0.0251  0.0361  0.1303
28229W        W44703   9.635  14.474   0.451  0.2473  0.0993 -0.1211
28230W        W44704   4.929  17.848  14.867  0.1361  0.1846 -0.0589
28231W        W44705   8.544   8.077   3.271 -0.1036  0.1360 -0.1595
28232W        W44706   2.757   5.525  10.853  0.3033  0.0320  0.2716
28233W        W44707  14.074   5.014   1.291 -0.2192  0.0908 -0.3412
28234W        W44708  18.467   2.852   0.892  0.1702 -0.0720 -0.2612
28235W        W44709   9.112   0.730  15.477 -0.2178  0.1967  0.0143
28236W        W44710  10.806  15.064  12.085  0.0082 -0.2562 -0.0489
28237W        W44711   7.440  14.095   2.607 -0.0784 -0.0264  0.2045
28238W        W44712  10.120   1.869   3.374 -0.0682  0.0030  0.0378
28239W        W44713  16.875   6.154   0.796  0.2656 -0.1259  0.1660
28240W        W44714   6.685  16.741  11.079 -0.0170  0.1497  0.1424
28241W        W44715  14.473   2.708   4.994  0.1330 -0.0742 -0.0198
28242W        W44716   5.036  12.018   4.411 -0.3115 -0.1094 -0.0136
28243W        W44717  13.161  12.379   1.719  0.2808  0.0062 -0.1009
28244W        W44718   1.081  16.510   4.168  0.0031 -0.1123 -0.1711
28245W        W44719   1.339   6.659  10.621 -0.0194 -0.0461  0.1889
28246W        W44720   4.226  13.615   4.148 -0.2837  0.0383  0.2556
28247W        W44721   2.525   1.683   5.443 -0.0802 -0.1308 -0.1949
28248W        W44722   4.803  18.448   4.006 -0.0251  0.3104  0.0425
28249W        W44723   4.611  12.063   4.701  0.1484 -0.4791  0.3312
28250W        W44724   6.137   1.700  14.409  0.0156  0.0605  0.1446
28251W        W44725  12.816   9.517   1.379  0.1271 -0.0990 -0.2651
28252W        W44726  11.543   9.655   1.118  0.1057 -0.0346 -0.0198
28253W        W44727  14.361   3.868  11.658 -0.1408  0.1950 -0.0452
28254W        W44728   5.334  14.355   2.786  0.1339  0.0449 -0.1456
28255W        W44729  17.721  15.754   1.136 -0.0968 -0.0547 -0.2146
28256W        W44730   0.843  13.051   1.417  0.6153  0.0933 -0.2962
28257W        W44731   1.082  10.255  12.148  0.1199  0.1301  0.1478
28258W        W44732   6.122   0.393   2.963  0.0105 -0.0159  0.0067
28259W        W44733   4.268   0.601   5.622 -0.0233 -0.1223  0.0878
28260W        W44734   4.411  14.004  12.055 -0.0468  0.0511 -0.1759
28261W        W44735   1.781  18.073  15.209 -0.1892  0.1020 -0.3030
28262W        W44736   5.543   1.181  12.876  0.1600  0.2244 -0.1113
28263W        W44737   5.219  17.068   1.735  0.0918  0.0532  0.2032
28264W        W44738   8.964   7.495  11.882  0.3880 -0.0109 -0.2196
28265W        W44739   7.616  15.192   2.693  0.2238  0.2639  0.0455
28266W        W44740  15.331  15.528  15.160 -0.1212 -0.0700  0.0442
28267W        W44741  12.517  18.109  11.900 -0.0729 -0.1809 -0.1757
28268W        W44742   3.941  17.137   3.987  0.2549  0.0218  0.0630
28269W        W44743   9.833   8.015   2.185  0.1808 -0.0255  0.1423
28270W        W44744   5.770   0.285  12.744 -0.1881  0.2750  0.1153
28271W        W44745   3.291   6.900   9.967  0.1602  0.1225  0.0089
28272W        W44746   6.394   8.057  11.469  0.0143 -0.2480  0.0757
28273W        W44747  12.219   5.304  15.571  0.1566 -0.0864  0.2386
28274W        W44748  10.554   4.004  13.020  0.1911  0.0307  0.1665
28275W        W44749   4.123  17.413   3.053  0.1902 -0.0630 -0.3901
28276W        W44750   4.752   0.261  12.943 -0.0743 -0.0877 -0.4914
28277W        W44751  11.920   6.875   2.669 -0.1142  0.1879 -0.0419
28278W        W44752  15.893  12.751  14.234 -0.0840  0.0159  0.2709
28279W        W44753   9.968  18.627  13.466  0.0949 -0.3938 -0.2139
28280W        W44754  13.669  16.702   3.008 -0.0635  0.0217 -0.1649
28281W        W44755  10.645   0.241   1.663 -0.0962 -0.1870 -0.3092
28282W        W44756   3.738   1.156   5.029 -0.3034 -0.1638 -0.1295
28283W        W44757  17.200  16.538  14.388  0.0824 -0.1872  0.0474
28284W        W44758  16.898   4.933  12.654  0.2227  0.1983 -0.1277
28285W        W44759   0.426  12.821  15.290 -0.0079  0.1399 -0.1203
28286W        W44760  15.273   6.508   2.449  0.3173  0.3006 -0.0570
28287W        W44761  10.583   3.438  12.368 -0.0500  0.0247  0.0555
28288W        W44762   6.541   5.312  14.579 -0.2851  0.1507  0.0315
28289W        W44763  18.009   3.832  14.049 -0.2334 -0.0810 -0.2026
28290W        W44764  13.342  11.528   0.146  0.3108  0.2190  0.1114
28291W        W44765  11.384   1.672  15.292  0.1728  0.2401  0.1825
28292W        W44766  16.552   6.355   3.998  0.1848 -0.0743 -0.0767
28293W        W44767  17.544   7.896  12.833 -0.1230 -0.0614 -0.2015
28294W        W44768  13.615   4.398  13.222  0.0609  0.0711 -0.1157
28295W        W44769   4.919  16.080   2.274 -0.1513 -0.0150 -0.0900
28296W        W44770   0.143  17.139   2.277 -0.0137 -0.0765 -0.2929
28297W        W44771   3.893   0.170   2.516  0.0034 -0.1286 -0.0621
28298W        W44772  11.541  18.374  13.615 -0.1558 -0.1834  0.3088
28299W        W44773  17.773   9.092   3.171  0.0515 -0.0984  0.1422
28300W        W44774  18.100   7.603   1.914  0.0222 -0.2678  0.0930
28301W        W44775  15.635   8.914   4.808  0.2990  0.2002  0.1415
28302W        W44776  18.785  17.816   2.977 -0.0835  0.4239  0.0872
28303W        W44777   5.855  14.907   0.679 -0.1127  0.0865 -0.0500
28304W        W44778   6.473   5.483   2.510 -0.2366  0.4831  0.0884
28305W        W44779  16.603  17.765   0.787  0.1157 -0.2683  0.1772
28306W        W44780   9.406  13.878   1.997  0.0845 -0.1306 -0.4692
28307W        W44781   6.599   6.612  15.257 -0.2965  0.4184  0.0306
28308W        W44782   9.560   6.459   0.176  0.3226  0.0391  0.1994
28309W        W44783   3.083   8.736   4.901 -0.0900  0.0566  0.4117
28310W        W44784   9.186   7.325   3.665 -0.3202  0.1440 -0.3144
28311W        W44785   0.811  17.529  14.455  0.3261 -0.1251  0.0283
28312W        W44786  14.045   5.827   1.297 -0.1327 -0.3512  0.2886
28313W        W44787   1.346   1.515  14.443 -0.1979  0.0196 -0.2070
28314W        W44788  17.559  12.132   5.602  0.1754  0.0864  0.1291
28315W        W44789   1.234  13.410   1.738 -0.0571 -0.2741 -0.1763
28316W        W44790   4.848   9.418  12.454 -0.1452  0.1515 -0.0116
28317W        W44791   1.693   3.498   3.254  0.2391 -0.0525 -0.1749
28318W        W44792   0.025   6.185   1.069 -0.0772  0.1736 -0.2515
28319W        W44793  15.903  10.339   3.054  0.0556 -0.1071 -0.2435
28320W        W44794   3.642   6.587   4.940  0.0002 -0.0334  0.0364
28321W        W44795  13.031   3.125   4.679  0.1066 -0.1150 -0.2087
28322W        W44796   1.345  11.380  10.560 -0.0160  0.1309  0.0276
28323W        W44797   4.223  10.587   3.822  0.1269  0.0457  0.1179
28324W        W44798   8.406   7.921   5.894 -0.2143  0.0577 -0.0641
28325W        W44799   0.067  15.608  15.152 -0.1026  0.0718 -0.2739
28326W        W44800   2.574  15.821   3.642 -0.1524  0.0377 -0.0595
28327W        W44801   9.142   7.531  13.185  0.1531  0.0787 -0.0081
28328W        W44802   8.766   5.906  14.398 -0.3768 -0.0055 -0.0574
28329W        W44803   9.428  18.518  12.487 -0.1855 -0.0199  0.2024
28330W        W44804   9.148  16.522   4.934  0.0498  0.1042 -0.1570
28331W        W44805   5.682   1.182   4.831 -0.2373 -0.1209  0.1150
28332W        W44806  11.378  11.244  13.107 -0.1012  0.1192 -0.2798
28333W        W44807   9.182  18.599   4.989  0.1578  0.1097  0.1798
28334W        W44808  15.435   0.462   4.668 -0.0402 -0.0683  0.1799
28335W        W44809  12.277  10.772   4.560  0.0360 -0.0838  0.0275
28336W        W44810  17.808   9.462  13.718 -0.3813 -0.1219 -0.0272
28337W        W44811   0.964   1.053   3.299 -0.2902  0.1147  0.2687
28338W        W44812   5.229   5.848   3.439  0.0025 -0.2223 -0.0171
28339W        W44813   9.397  16.860   2.853 -0.0987 -0.0973 -0.0998
28340W        W44814  16.007   0.103   4.964  0.2802  0.0519 -0.0939
28341W        W44815   7.239   6.339  11.406 -0.1165 -0.0830 -0.0528
28342W        W44816  18.507  12.842  10.962 -0.0246 -0.1332 -0.1726
28343W        W44817   3.592  14.896   0.820  0.0968  0.1448 -0.1551
28344W        W44818   1.677   1.604  12.813 -0.3495 -0.0800  0.1978
28345W        W44819   8.499  16.532  13.212 -0.0764 -0.2811 -0.1370
28346W        W44820  18.517  11.145   3.914  0.3572 -0.1928 -0.0742
28347W        W44821   8.648   3.452   0.836  0.1754  0.1780  0.1141
28348W        W44822   1.302   3.096  11.752  0.2764 -0.0248  0.0299
28349W        W44823   6.327   4.023  10.298 -0.0599 -0.2224  0.3467
28350W        W44824  12.730   7.304  13.181 -0.1339 -0.2273 -0.2169
28351W        W44825  17.278   0.432   4.255  0.0615  0.0422 -0.1473
28352W        W44826  13.180   4.649  12.857  0.0448  0.0299 -0.2143
28353W        W44827   6.534  14.555   3.725 -0.0696  0.1836  0.0722
28354W        W44828  15.765   7.662  12.584  0.0249 -0.1164 -0.2034
28355W        W44829  14.332   9.128   3.111 -0.0588  0.0542  0.0646
28356W        W44830  12.690   5.113  13.676 -0.2587 -0.2133 -0.0033
28357W        W44831   8.459  15.955   3.641  0.2994  0.0848  0.1689
28358W        W44832  17.890   5.327  12.371 -0.0968 -0.0211  0.0131
28359W        W44833  10.442   6.492   5.252 -0.1851 -0.0152  0.1143
28360W        W44834   8.447   9.108   1.587  0.0838 -0.4004  0.2943
28361W        W44835   9.156  12.280  11.340  0.2189 -0.1297  0.0538
28362W        W44836  14.304   3.798   3.642 -0.0738  0.0191  0.0519
28363W        W44837  16.495   6.510  12.223 -0.0155  0.0614 -0.0176
28364W        W44838  11.936  12.335   2.929 -0.2104 -0.1433  0.0507
28365W        W44839  16.152   2.601   2.968  0.3123 -0.1962  0.1024
28366W        W44840   9.735   2.190   1.633  0.1594  0.2824 -0.2067
28367W        W44841  12.416  11.073   5.230  0.1146  0.0602  0.0316
28368W        W44842  16.021  15.157  14.398  0.0534 -0.2492  0.0485
28369W        W44843   7.601  14.473   0.983  0.1320 -0.1260  0.1223
28370W        W44844   1.934   4.153  15.094  0.1503  0.0127  0.5046
28371W        W44845  18.387  17.035  13.899 -0.0803  0.2689 -0.0655
28372W        W44846  10.859  10.735  13.627 -0.2622 -0.0210  0.1708
28373W        W44847   9.129   8.024   3.230 -0.0026 -0.0002  0.1545
28374W        W44848   7.633  11.753   2.612  0.0183  0.0516  0.2341
28375W        W44849   6.559   8.606  11.358 -0.1749 -0.0045 -0.0255
28376W        W44850  13.902  18.284  13.379 -0.0497 -0.0342 -0.1314
28377W        W44851   7.260  14.553   2.702  0.0398 -0.0672  0.0630
28378W        W44852  16.161  15.853   0.702 -0.1095 -0.5611 -0.1193
28379W        W44853   8.229   3.317   3.536 -0.0613 -0.1786  0.3584
28380W        W44854   4.938  16.068  12.183  0.2448  0.4143 -0.0361
28381W        W44855   8.780   3.236  12.627 -0.0189  0.2901  0.5721
28382W        W44856   7.579   8.354  14.678 -0.2968  0.1387 -0.2067
28383W        W44857   5.528  18.211  13.981 -0.1335 -0.0050 -0.1130
28384W        W44858   1.002  18.007   4.536 -0.0881 -0.0918 -0.3000
28385W        W44859  13.311   0.187   4.627 -0.1849 -0.1085  0.2175
28386W        W44860   2.767   1.386   4.552  0.1787 -0.1589  0.1018
28387W        W44861  13.543   3.907   0.523 -0.0330  0.2709 -0.0972
28388W        W44862  14.687   9.802   2.056 -0.1425 -0.2675 -0.0955
28389W        W44863  10.163   4.315  13.333  0.3040 -0.0539  0.0094
28390W        W44864  11.895  16.116   1.950  0.1351  0.0502 -0.3790
28391W        W44865  15.489  17.105   2.716  0.3003  0.0944  0.2700
28392W        W44866   0.269  11.053  10.640 -0.2913 -0.2016  0.2554
28393W        W44867  10.458   3.674   1.052  0.1737  0.1644  0.4195
28394W        W44868   6.045  17.610  11.647  0.1910  0.1255  0.3887
28395W        W44869   4.280  14.149  10.848  0.1211  0.2980  0.0668
28396W        W44870   5.685   6.634  11.742  0.1739  0.0077 -0.2659
28397W        W44871   6.133  18.469  13.248 -0.0439 -0.1048  0.0742
28398W        W44872  10.495   4.149   0.875  0.2540 -0.4679  0.2356
28399W        W44873   3.039  17.787   3.462  0.2373 -0.1277  0.0748
28400W        W44874  12.890  10.470   0.140  0.2583  0.3827 -0.3872
28401W        W44875  18.314   0.062   0.353 -0.0666 -0.0647  0.1521
28402W        W44876  13.789  15.503   0.044 -0.0081 -0.0016  0.1485
28403W        W44877  18.368   5.345  13.593 -0.0638 -0.3667  0.0192
28404W        W44878   5.099   6.740   2.184 -0.2053 -0.0693  0.0817
28405W        W44879   1.522   8.734  11.626 -0.4169 -0.1022  0.0637
28406W        W44880   9.301   1.626  12.636  0.0033 -0.1764 -0.0586
28407W        W44881   1.054   3.242  14.742  0.0297 -0.4626  0.1402
28408W        W44882  12.477   2.604   3.357 -0.3333 -0.1619  0.2232
28409W        W44883  15.902   7.411  12.990 -0.1314 -0.1891  0.1393
28410W        W44884   2.759   6.677   1.875 -0.0956 -0.4261 -0.0013
28411W        W44885   9.892   0.562  11.448 -0.1555  0.3493  0.0099
28412W        W44886   2.520  10.357   0.939 -0.0162 -0.0665 -0.0949
28413W        W44887  10.841  10.177   4.205  0.1073 -0.2394  0.0261
28414W        W44888   5.660   7.049  10.744 -0.2614  0.0069 -0.3257
28415W        W44889   9.171   4.355  12.223  0.1547  0.1277 -0.0004
28416W        W44890   9.109  17.210  15.188  0.1079  0.0571  0.2684
28417W        W44891  11.020  12.502   4.782  0.1430 -0.0091  0.1159
28418W        W44892  13.956   4.685  13.950  0.1016  0.2507 -0.0977
28419W        W44893  13.303   1.236  10.525  0.2021  0.1815 -0.0578
28420W        W44894  13.958   0.619  11.357 -0.2230  0.0927 -0.1482
28421W        W44895   6.717   7.713  11.256  0.1755 -0.2844  0.3309
28422W        W44896  10.462   6.754  13.598  0.0840  0.2252  0.0648
28423W        W44897  10.662  16.247   0.447 -0.1818  0.0274  0.3469
28424W        W44898  11.017   8.990   1.301  0.0432 -0.2819 -0.0438
28425W        W44899   1.251  12.899  14.716  0.1850  0.1704  0.2905
28426W        W44900   2.774   4.272   2.705 -0.0022 -0.0177  0.1667
28427W        W44901   4.974   8.886   3.754  0.1184 -0.1235  0.3373
28428W        W44902   6.745  16.870   2.825  0.1620  0.0887  0.0455
28429W        W44903  10.357  18.389  11.875 -0.2211 -0.2168  0.1830
28430W        W44904   8.893   4.320   1.615  0.0684 -0.1228  0.0020
28431W        W44905   8.404   4.640  12.183 -0.0317 -0.2119  0.0574
28432W        W44906   9.459   8.514   0.700 -0.2911  0.1227  0.4429
28433W        W44907   8.350  12.999  11.188 -0.0264 -0.2718  0.0275
28434W        W44908   3.154   4.099   3.685 -0.1516 -0.0881  0.1020
28435W        W44909   2.479   7.810  13.998  0.0859 -0.0151 -0.1806
28436W        W44910  12.149  16.196  10.027 -0.0865  0.0688  0.1448
28437W        W44911   0.030  13.051  14.833 -0.0166 -0.3731  0.1889
28438W        W44912  12.984  12.422   2.238  0.1633  0.2744 -0.2761
28439W        W44913  10.932   7.907  15.550 -0.1248  0.1102  0.1132
28440W        W44914   9.745  10.562   4.333 -0.0004 -0.2148  0.1435
28441W        W44915  14.761  15.221   2.474  0.1125 -0.3373  0.1900
28442W        W44916   6.959  13.951  11.344  0.2257 -0.0912 -0.1055
28443W        W44917  12.973   0.640  11.327  0.2465  0.3290  0.0356
28444W        W44918   0.479  11.911  12.138 -0.2007 -0.0007 -0.2104
28445W        W44919  10.726  10.128  13.497  0.0933  0.0513 -0.0825
28446W        W44920   8.263   4.242   3.103  0.1209 -0.0343  0.1570
28447W        W44921  18.121  16.260  14.391  0.0016  0.2097 -0.0636
28448W        W44922   5.489   2.843  15.113  0.1410 -0.0419 -0.0442
28449W        W44923   9.099   2.075   4.564 -0.1198 -0.0151 -0.0607
28450W        W44924   1.721   4.550  14.866 -0.1986  0.0496 -0.0980
28451W        W44925  14.375  18.003  15.375  0.1053  0.0240  0.1299
28452W        W44926   3.969   5.348  12.802 -0.3978  0.0405  0.1723
28453W        W44927   1.715   6.846  13.680 -0.1028  0.0006 -0.3718
28454W        W44928  13.965  12.938   4.317 -0.2469 -0.3507 -0.0860
28455W        W44929  15.279   6.031  13.069 -0.0645 -0.2619 -0.1180
28456W        W44930  18.189   7.509  11.514  0.1019 -0.1796  0.2565
28457W        W44931   5.236   7.286   0.063  0.2313 -0.1756  0.0435
28458W        W44932  11.084   6.753  11.747  0.2236  0.1559  0.2786
28459W        W44933  13.464   4.553  14.024  0.0620  0.1266 -0.1865
28460W        W44934  14.843   2.990  15.311 -0.1009 -0.1023 -0.1627
28461W        W44935   8.685   9.457   0.494 -0.0782  0.2755  0.0914
28462W        W44936   2.954   5.550  14.083  0.0015 -0.3775  0.0143
28463W        W44937   5.778  13.249   0.498 -0.1007  0.0034  0.0762
28464W        W44938   7.837  14.689  14.354  0.4737 -0.0127 -0.3220
28465W        W44939  10.185   5.841  15.229  0.1779 -0.4408 -0.1307
28466W        W44940   7.356   0.920  13.316  0.1960  0.0882 -0.3387
28467W        W44941   4.155   3.874   2.310 -0.0504 -0.1448 -0.3174
28468W        W44942  18.646   5.364   4.055  0.0638  0.1192  0.3474
28469W        W44943   5.693  13.340  12.421 -0.0817  0.0771  0.0673
28470W        W44944   7.696   0.552  14.803  0.2275 -0.2949  0.3101
28471W        W44945   8.664  17.856   1.948  0.0068 -0.1921 -0.0298
28472W        W44946   5.869   2.609   3.280 -0.0335 -0.2289  0.0143
28473W        W44947   5.913   7.511  14.669  0.0875  0.0641 -0.4248
28474W        W44948   3.287  13.312   5.477 -0.1716 -0.3703 -0.1654
28475W        W44949   2.834   1.145   1.410  0.2480  0.5684 -0.2260
28476W        W44950   6.131  11.284  12.600 -0.2013 -0.0935 -0.1120
28477W        W44951   5.782   8.449  12.112 -0.0222 -0.1271  0.4980
28478W        W44952   1.787   0.863   3.873  0.2525 -0.2811  0.1477
28479W        W44953   5.957  16.632   3.517  0.1674 -0.4885 -0.4127
28480W        W44954  15.949   4.063   2.345  0.0821 -0.1788 -0.0074
28481W        W44955   2.981  11.340   0.900  0.1612 -0.0392  0.2184
28482W        W44956   2.529  11.383  14.108  0.0399  0.2889 -0.2427
28483W        W44957   4.293  11.960  14.389 -0.0638  0.2460 -0.1097
28484W        W44958   4.932  13.507  13.559  0.2071  0.0851  0.0985
28485W        W44959  14.671   0.353   5.245  0.0139 -0.0514  0.0599
28486W        W44960  14.037   3.027   2.410  0.3505  0.0649 -0.0142
28487W        W44961  17.414  16.677  15.515 -0.3566 -0.0028  0.0372
28488W        W44962  10.119  11.565  14.549  0.1219  0.0605 -0.2767
28489W        W44963  15.378   9.398  11.429  0.0330 -0.1562  0.0646
28490W        W44964   5.851   0.781   3.963 -0.3399  0.0743 -0.0959
28491W        W44965  14.127   5.798  12.441 -0.1794 -0.2199 -0.1063
28492W        W44966   0.484   2.356   1.292 -0.1331  0.1223  0.0296
28493W        W44967   4.873  15.998   3.581 -0.0596  0.1543  0.0088
28494W        W44968  10.527   5.301   3.884  0.0326 -0.1842  0.0974
28495W        W44969   0.937   4.839  12.913  0.1601 -0.0510 -0.0562
28496W        W44970   3.475  13.644   2.071  0.1907 -0.2862 -0.2908
28497W        W44971   5.810   1.576  13.687  0.0385 -0.0364  0.0351
28498W        W44972  13.889   6.642   4.216  0.1724 -0.1853 -0.1236
28499W        W44973  13.527   6.108  11.813 -0.2624  0.0676  0.0195
28500W        W44974  10.302  12.160   4.449  0.2432  0.3041  0.0126
28501W        W44975  10.131  17.227   2.885 -0.3101  0.1527  0.1950
28502W        W44976   8.085  14.229  14.137 -0.2555  0.0564 -0.1120
28503W        W44977  12.943   0.643  13.669  0.2442 -0.1049 -0.0563
28504W        W44978  12.000   7.668  15.022 -0.1662 -0.1785  0.2653
28505W        W44979   5.675   9.136   2.618 -0.0094  0.2396 -0.2170
28506W        W44980  15.550  10.690   4.637 -0.4898  0.0540 -0.4125
28507W        W44981  10.250  13.534   0.864 -0.3208 -0.4575 -0.0667
28508W        W44982   8.591  18.199   3.584  0.1872  0.1597 -0.1952
28509W        W44983  10.905  17.049   5.497  0.1297 -0.2370  0.1272
28510W        W44984   0.975  10.758   1.350  0.0196 -0.1962 -0.2058
28511W        W44985   4.510   4.191   4.010 -0.2361  0.0854  0.1839
28512W        W44986   2.988  15.279  13.992  0.0221  0.0088 -0.0756
28513W        W44987   9.975  10.701   3.361 -0.1491 -0.1116 -0.1330
28514W        W44988   7.483  16.439  15.505 -0.0850  0.0071  0.0175
28515W        W44989   7.204  18.576   4.784  0.0073 -0.1902  0.1699
28516W        W44990   2.089  13.610   0.014  0.1083  0.0238  0.0074
28517W        W44991  14.141   6.866  15.348 -0.2045  0.1857  0.1222
28518W        W44992  12.109   7.427   1.443  0.0533  0.1406 -0.2391
28519W        W44993  11.953  15.314   3.956  0.2933 -0.2198  0.0344
28520W        W44994  14.176   4.771  12.720  0.0902 -0.0257  0.1341
28521W        W44995  16.243   4.267  14.345 -0.1558  0.2575  0.2451
28522W        W44996  16.177  13.271   0.438  0.2103 -0.0538 -0.1609
28523W        W44997  15.036   2.087  14.413 -0.2198 -0.1703 -0.0730
28524W        W44998  14.697   8.264  15.114  0.2796 -0.0959 -0.0906
28525W        W44999   0.308   8.787   1.556 -0.0450 -0.1334  0.0962
28526W        W45000  10.487  11.665   0.317 -0.1035 -0.1579 -0.2286
28527W        W45001   1.973  12.354   9.891  0.0661 -0.0310 -0.2572
28528W        W45002   3.335   0.729  12.415  0.2110  0.1214  0.2525
28529W        W45003  17.544  16.274   4.495 -0.1929  0.1114 -0.3679
28530W        W45004   1.616   3.215   2.380 -0.1750  0.0163 -0.2627
28531W        W45005   3.396   2.714  12.943 -0.1734  0.1359 -0.1325
28532W        W45006   9.715   5.882   3.946 -0.1104  0.0084  0.0298
28533W        W45007   4.640   0.804  10.648 -0.0939 -0.2317 -0.2279
28534W        W45008  14.245  10.884   2.935 -0.0738  0.0341 -0.1211
28535W        W45009  18.500  13.107  11.766 -0.1327 -0.1407 -0.0022
28536W        W45010   1.073  12.661   4.836 -0.0239  0.1263 -0.0437
28537W        W45011  16.289   2.940  14.146 -0.2226  0.0809 -0.0677
28538W        W45012   1.119   1.018   0.978 -0.2482  0.1862 -0.3350
28539W        W45013  14.808  16.675   1.929  0.1674 -0.2659  0.0102
28540W        W45014  13.262  17.841  15.455  0.2675 -0.2721  0.0590
28541W        W45015  17.105  16.091   1.785  0.4406  0.2167 -0.1555
28542W        W45016  10.799  13.464   2.109  0.2244  0.1457 -0.2706
28543W        W45017   4.183  12.212   1.530 -0.2945  0.1026  0.2829
28544W        W45018  18.018  18.509   1.997  0.1769  0.0887  0.1090
28545W        W45019   5.319   2.155   2.842  0.2226  0.1069  0.0086
28546W        W45020   3.914  14.611  12.477 -0.0208 -0.0336  0.0523
28547W        W45021   8.001  10.186   0.014 -0.1114 -0.2295 -0.0890
28548W        W45022   7.946   3.581  12.042  0.0061 -0.0516  0.0752
28549W        W45023  11.995   1.738   1.872 -0.0724  0.2042 -0.0102
28550W        W45024   9.409  13.359  15.063  0.5626  0.0317 -0.0331
28551W        W45025  15.545  10.803  12.709  0.1765 -0.1842 -0.0223
28552W        W45026   7.314  16.151  13.957 -0.0485  0.2565 -0.2860
28553W        W45027   5.951   2.022  11.220 -0.0157 -0.1032  0.1371
28554W        W45028  11.704   5.188   1.290 -0.1002  0.0446 -0.0759
28555W        W45029  18.507   3.750  12.327  0.2322 -0.2528  0.1124
28556W        W45030   8.648   8.120  11.513 -0.2531  0.4196  0.1430
28557W        W45031   4.595  16.941   0.421 -0.1336  0.2671 -0.2066
28558W        W45032  13.068   8.762  12.047  0.2511 -0.3346 -0.3549
28559W        W45033  11.610  14.138   4.329  0.1024  0.3387 -0.0762
28560W        W45034  12.184  13.137   1.216 -0.2026  0.2150  0.0614
28561W        W45035   5.414   1.000  13.346 -0.1338 -0.0659  0.2894
28562W        W45036  16.945   0.340  10.723 -0.1728 -0.1543  0.1939
28563W        W45037   6.169   4.890  13.678 -0.2567  0.1252  0.0756
28564W        W45038  12.675  15.579   4.500 -0.0855 -0.0406 -0.0962
28565W        W45039   5.998  13.727  13.848 -0.0042  0.2317 -0.1698
28566W        W45040   8.774   2.552  11.098 -0.1933  0.2653  0.0583
28567W        W45041   3.584  17.285  10.267 -0.1015 -0.0389  0.0664
28568W        W45042  14.393  17.973   3.519 -0.0084 -0.3018 -0.0644
28569W        W45043   1.882  15.920  11.548 -0.4167 -0.2633 -0.2247
28570W        W45044  11.214  11.585  11.536 -0.0069  0.0697 -0.1313
28571W        W45045  12.820  13.510  13.946  0.0969 -0.0097  0.1716
28572W        W45046  12.056  12.503  15.261  0.0141  0.0529  0.1336
28573W        W45047  10.228   2.303  13.243  0.1589  0.0630 -0.2879
28574W        W45048   2.050  11.487  11.368  0.1507 -0.1899  0.0174
28575W        W45049   9.570   7.319   2.794  0.1766 -0.0972  0.0832
28576W        W45050   6.990   2.875   1.692 -0.0616  0.2332  0.2031
28577W        W45051   6.911  10.219   0.276  0.0061 -0.1236 -0.3268
28578W        W45052  10.093  13.866  12.438  0.0180 -0.1418  0.0160
28579W        W45053   1.094   0.208   2.085  0.1551 -0.0708 -0.0090
28580W        W45054  13.422   1.921   2.981  0.2311 -0.1856 -0.0206
28581W        W45055   7.615  11.853  15.513  0.3833 -0.2279 -0.1274
28582W        W45056  17.304  14.172   3.320 -0.1799 -0.1213  0.1016
28583W        W45057   5.892  16.086   4.325 -0.0240  0.1236  0.2378
28584W        W45058   6.897  18.710   0.927  0.1549 -0.3049 -0.2774
28585W        W45059   3.131   2.775  14.396 -0.0842  0.0419 -0.0395
28586W        W45060   8.121   5.498  11.835 -0.0070 -0.1799 -0.1508
28587W        W45061  14.200   1.311   5.561  0.2719  0.0487 -0.1889
28588W        W45062   7.506   5.421  14.896  0.3069 -0.0770  0.2377
28589W        W45063   2.421   3.420   0.364  0.0723 -0.0782  0.1688
28590W        W45064   5.015   9.505  15.267  0.0862  0.0604  0.0027
28591W        W45065   6.093   7.389   3.516  0.0223  0.1141  0.2854
28592W        W45066  13.453   1.840  12.673 -0.0607  0.0461  0.2204
28593W        W45067   8.509  18.441   5.780 -0.5188 -0.0625  0.0289
28594W        W45068   5.373   7.118   4.206  0.1489 -0.0494  0.1161
28595W        W45069   6.705  11.181   2.495  0.2576  0.1019 -0.1201
28596W        W45070  16.472   5.108  10.902 -0.0854 -0.0340  0.0053
28597W        W45071   5.453  18.270  11.766  0.2800 -0.4290 -0.1091
28598W        W45072   6.146  14.844   3.679 -0.2474 -0.0036 -0.1276
28599W        W45073   9.759  17.584  15.209  0.1004 -0.0930 -0.0446
28600W        W45074   1.317   6.791  12.389  0.2338 -0.2636 -0.2612
28601W        W45075   7.589   4.322   1.039  0.0756  0.1828 -0.1872
28602W        W45076   4.713   1.531  12.464  0.3459  0.0807 -0.0667
28603W        W45077  10.717  12.199   1.934 -0.0711  0.1752  0.1301
28604W        W45078   1.085  17.618  11.055 -0.0952 -0.0282  0.1117
28605W        W45079  13.409   7.701   2.635 -0.0136  0.0962  0.3347
28606W        W45080   0.376   7.192  14.712 -0.1467  0.0771  0.1656
28607W        W45081  11.818  17.893   0.397  0.0636  0.1712 -0.2032
28608W        W45082   6.513   6.470   2.148 -0.0011 -0.2356 -0.2744
28609W        W45083   5.711   1.522   0.585 -0.0323  0.0154  0.1867
28610W        W45084  16.015  14.016   4.967  0.0997 -0.0779 -0.1652
28611W        W45085   8.969   9.581   0.867 -0.1008  0.0450  0.2743
28612W        W45086   0.227   4.499   0.080  0.1232 -0.0493 -0.0056
28613W        W45087   1.145  18.514   4.796  0.2000  0.2132 -0.1564
28614W        W45088   0.797  18.451   4.240  0.0665 -0.1916 -0.0041
28615W        W45089   0.518   8.083  15.308 -0.0954 -0.0782 -0.3028
28616W        W45090   0.593  13.478  14.200  0.1783 -0.0370  0.0479
28617W        W45091  14.622  16.364   1.381 -0.0033  0.1802 -0.0018
28618W        W45092  14.348   5.633  11.505  0.0948  0.0658 -0.0779
28619W        W45093  16.966   0.901  13.602  0.0757 -0.2942 -0.1581
28620W        W45094  15.142  11.298   1.418  0.3333  0.0386  0.0941
28621W        W45095  15.363   4.562   4.616  0.0310  0.0134  0.3876
28622W        W45096  17.814  17.819  14.191 -0.0410 -0.0739  0.1808
28623W        W45097   9.580  15.135  11.894 -0.2757 -0.0469  0.1172
28624W        W45098   9.680   2.759   3.595  0.3315  0.1080  0.1665
28625W        W45099  13.177  18.271  10.565 -0.2779  0.0232 -0.3597
28626W        W45100   2.422   1.179   0.719 -0.2570  0.1030  0.0096
28627W        W45101  10.892  16.064  12.291 -0.0261  0.0157 -0.2213
28628W        W45102   0.820  13.900   4.248  0.1054  0.0462 -0.1574
28629W        W45103   0.970  11.839   1.236  0.1488  0.1616 -0.0787
28630W        W45104   6.937   9.624  14.941  0.0721  0.3447  0.2058
28631W        W45105   7.946  15.946  12.990 -0.1777  0.3198  0.1011
28632W        W45106   6.707  18.160  10.765 -0.0850  0.2371 -0.2971
28633W        W45107  14.938  17.939  13.244  0.1718 -0.1055 -0.1417
28634W        W45108   3.723   8.919   2.104 -0.2187 -0.1483  0.0553
28635W        W45109   0.915  13.492  14.972  0.0549 -0.1434 -0.1278
28636W        W45110   9.046  12.291   1.684  0.1240  0.0914  0.0668
28637W        W45111   3.780   2.354  12.722  0.2591 -0.0486 -0.0798
28638W        W45112  10.223   1.208   2.642 -0.0498 -0.1655 -0.1760
28639W        W45113  12.754   4.681  15.195  0.1544 -0.0337 -0.2371
28640W        W45114   7.558  14.043   3.896 -0.1801  0.3364  0.0861
28641W        W45115   0.086  11.772   0.607  0.3807  0.1754 -0.1623
28642W        W45116  14.624  11.637   0.097  0.1520 -0.4209 -0.0696
28643W        W45117   8.510  16.492   3.210 -0.1834 -0.0548 -0.0656
28644W        W45118  12.189  17.411   1.112 -0.1258 -0.3007 -0.5721
28645W        W45119   9.786  17.438  12.384 -0.1919  0.0471 -0.2774
28646W        W45120   0.180  13.357   3.725  0.5036 -0.1142  0.0486
28647W        W45121   6.822  12.782   3.454 -0.0843 -0.0572 -0.3604
28648W        W45122   8.434  16.405   0.514 -0.3208 -0.1204 -0.2450
28649W        W45123  10.334   0.792   0.475 -0.1955  0.0615 -0.0314
28650W        W45124  11.183   6.338  12.681  0.0195 -0.1036 -0.1002
28651W        W45125  18.025  15.762   2.849 -0.2347 -0.1337 -0.2032
28652W        W45126   2.123   4.679   0.643  0.0304 -0.0163  0.1689
28653W        W45127  14.664   5.163  12.848 -0.0485 -0.1593  0.1966
28654W        W45128   2.559  16.766  14.845 -0.1156 -0.0249  0.2644
28655W        W45129  10.203   9.715   0.872 -0.1446 -0.1056 -0.0446
28656W        W45130   7.499   6.025  11.123  0.3625  0.1287 -0.5711
28657W        W45131   9.139  15.317  11.840  0.1673 -0.3568 -0.0226
28658W        W45132  12.732  17.620   1.863 -0.1209 -0.0001  0.0265
28659W        W45133  10.856   9.109  12.790  0.0557  0.0580  0.0761
28660W        W45134   9.030  18.089   0.069  0.1961  0.2444 -0.4900
28661W        W45135  10.856   8.349  13.357 -0.1478  0.0900  0.0157
28662W        W45136  16.563  18.774   4.113 -0.1515 -0.2803 -0.0670
28663W        W45137  12.693   8.026  11.971  0.0102 -0.1904  0.1788
28664W        W45138   3.801  18.263   4.020  0.2044  0.0108  0.1706
28665W        W45139   9.356   8.316   2.395  0.0011 -0.1082  0.1685
28666W        W45140   5.319  14.783   2.489 -0.0519 -0.0669  0.1191
28667W        W45141   6.455   3.903  12.204 -0.0709 -0.0518 -0.0390
28668W        W45142  18.441   5.133  12.209 -0.2789 -0.4254 -0.1662
28669W        W45143  13.174  14.269   3.288  0.3422  0.0131  0.1719
28670W        W45144  16.676   7.193   1.075  0.0590  0.2613  0.2310
28671W        W45145  12.992   5.578   1.570 -0.0088 -0.2389 -0.0635
28672W        W45146   5.480   7.249   0.844  0.0583  0.0538  0.4114
28673W        W45147  16.710  11.360   4.878 -0.0094  0.1143 -0.0375
28674W        W45148  12.399  15.260   2.144  0.0068 -0.0347  0.2510
28675W        W45149  13.492  18.403  13.673 -0.0317  0.1966 -0.1792
28676W        W45150   7.172   8.768   1.287  0.4843  0.2424  0.0573
28677W        W45151  15.691  12.787  15.499 -0.1558  0.2464 -0.3927
28678W        W45152  12.747   3.593  14.565  0.1510 -0.1664 -0.3154
28679W        W45153   9.557  11.444  14.513 -0.0250 -0.0494 -0.3169
28680W        W45154  16.645   1.340  14.886  0.0356 -0.1329 -0.2074
28681W        W45155  10.500   9.859   2.834  0.0037 -0.0273 -0.2985
28682W        W45156  16.370   0.176   2.964 -0.0479  0.0517  0.3219
28683W        W45157  14.162  14.219  14.282  0.1293 -0.2616 -0.1473
28684W        W45158  15.666  14.101  13.032  0.3122 -0.3983 -0.1452
28685W        W45159  16.013   4.113   0.415  0.2611 -0.3072  0.0246
28686W        W45160   7.754   3.743   0.021  0.0384  0.0050 -0.2697
28687W        W45161  13.216  17.198   2.032 -0.0189 -0.3391  0.0930
28688W        W45162  12.100  16.561  14.649 -0.0862  0.1088  0.0767
28689W        W45163  13.051  17.283   9.547  0.0735  0.1682 -0.1047
28690W        W45164   1.613  13.828  13.210  0.0862  0.1621 -0.1386
28691W        W45165  18.750  11.362  12.321  0.0079 -0.2849 -0.0531
28692W        W45166   9.313   5.434  12.782  0.0996  0.0058  0.0206
28693W        W45167  14.091   3.013   4.737 -0.1117  0.1912  0.0007
28694W        W45168  12.381  12.239   4.331 -0.1929  0.1513 -0.0360
28695W        W45169  11.207   8.738  12.894  0.0045  0.1807 -0.2269
28696W        W45170   3.169  11.838  10.037 -0.2308  0.0668 -0.1459
28697W        W45171  13.202   8.808   1.309  0.1563 -0.1586  0.0293
28698W        W45172  10.258   5.072   2.791 -0.0817 -0.0628 -0.1459
28699W        W45173   3.698  12.600   9.434 -0.1004 -0.0716 -0.1203
28700W        W45174   7.197  13.734   3.936  0.1564 -0.1936 -0.5949
28701W        W45175   1.099  10.529  13.877 -0.0684  0.0304 -0.0658
28702W        W45176  13.547  11.142  15.459  0.0976  0.1033  0.1361
28703W        W45177  16.504   6.922   3.305 -0.0388 -0.0881 -0.1164
28704W        W45178  10.307  16.985  14.313 -0.0437 -0.1434 -0.0461
28705W        W45179  13.548  18.299   0.031 -0.1332 -0.0334  0.0860
28706W        W45180   7.511  16.319   3.840 -0.2636 -0.1011 -0.0969
28707W        W45181   9.194   3.244   0.986  0.0665 -0.2748 -0.1159
28708W        W45182   5.887  10.537   0.966  0.0670  0.0348  0.0942
28709W        W45183  18.349   1.756  13.931  0.1323  0.1881 -0.0337
28710W        W45184  12.797   6.142   0.805 -0.1962  0.1247  0.2536
28711W        W45185   7.498   4.333   0.327 -0.3050 -0.1516 -0.0234
28712W        W45186  13.587  14.435  15.496  0.0759 -0.2335 -0.3317
28713W        W45187  16.216   4.626   4.823  0.1074  0.1440  0.2797
28714W        W45188  18.712   7.454   3.591 -0.3591 -0.1588  0.2128
28715W        W45189   5.467   2.427  11.435  0.2511 -0.0154  0.0336
28716W        W45190   8.061  17.597  10.341 -0.1818  0.1659 -0.0091
28717W        W45191  16.450   9.762   1.290  0.0454  0.2399 -0.0726
28718W        W45192   7.126   6.161   2.492 -0.1453  0.1414  0.0825
28719W        W45193   5.807  10.453  14.517 -0.1765  0.1788 -0.0486
28720W        W45194   1.787  17.276  10.791 -0.1921  0.1080  0.4035
28721W        W45195   5.681   7.778  14.297  0.1247  0.2837 -0.2202
28722W        W45196   3.198   1.637  12.229  0.1703  0.0193  0.1451
28723W        W45197  18.100   8.949  12.334  0.0840  0.0404 -0.2787
28724W        W45198  16.250  17.407   5.340 -0.2029  0.1048 -0.0952
28725W        W45199   1.381   1.798  11.291  0.3207 -0.2660 -0.1284
28726W        W45200   2.159  16.167  13.045 -0.0424 -0.0042 -0.0367
28727W        W45201   0.526  10.518  14.657  0.3352  0.2223  0.3092
28728W        W45202  13.246   4.200  14.994 -0.1099  0.1372 -0.0926
28729W        W45203   1.108  13.580  11.951  0.2811 -0.2555  0.1337
28730W        W45204  15.384  11.288  12.870  0.0230 -0.1598 -0.7184
28731W        W45205   0.830  11.139  12.177 -0.0322  0.1314 -0.1042
28732W        W45206   3.247  13.102  11.793 -0.4682  0.0946 -0.1479
28733W        W45207   5.970   2.937   3.653  0.1526 -0.2344  0.1725
28734W        W45208   6.405  15.788   0.732  0.1225 -0.2686 -0.3884
28735W        W45209  12.689   6.338  11.371 -0.0376 -0.1069  0.0805
28736W        W45210  18.035  10.200   9.912  0.0207  0.1124 -0.0964
28737W        W45211   3.193  18.096  11.663 -0.2018  0.2116 -0.4580
28738W        W45212  18.336   5.732   3.691 -0.1933  0.2218  0.0134
28739W        W45213   7.035  10.228   2.140  0.0229  0.1715 -0.0480
28740W        W45214   8.653   4.121   3.416 -0.4218  0.0089  0.1547
28741W        W45215  17.412   2.520   3.670  0.0246  0.0571  0.2094
28742W        W45216   6.967   9.665   3.873  0.0979 -0.0191  0.0049
28743W        W45217   8.597  15.577   1.817  0.0815 -0.2884  0.1840
28744W        W45218  16.333  16.068  12.337 -0.0101 -0.0499  0.0449
28745W        W45219   1.939   9.572  14.040 -0.0366  0.1721  0.2652
28746W        W45220   2.126   6.600  12.776  0.1744  0.0597 -0.0473
28747W        W45221   4.130  16.982   3.320  0.4441  0.1867 -0.0128
28748W        W45222  11.194   4.859   5.017 -0.0633  0.0253  0.0199
28749W        W45223  15.339   3.303   4.449  0.4300  0.1390 -0.0275
28750W        W45224  12.390   7.903   0.169  0.2010 -0.0060  0.0087
28751W        W45225  17.748  18.105   3.890 -0.1869  0.1012  0.2492
28752W        W45226   4.186   6.273  13.596 -0.2650 -0.1744 -0.2201
28753W        W45227   0.465  14.983  13.032 -0.2937  0.1789 -0.1196
28754W        W45228  12.736   5.422   4.114  0.1954 -0.4729  0.1022
28755W        W45229  15.809   6.766   3.508 -0.3173 -0.1434 -0.2167
28756W        W45230  15.034  18.529   1.335  0.0677  0.1107  0.2157
28757W        W45231   5.249  18.606   1.141  0.1135 -0.1145  0.1355
28758W        W45232  12.716  16.992  10.766 -0.3644 -0.0127 -0.4374
28759W        W45233  11.648  14.781  11.919 -0.3361 -0.0974 -0.0531
28760W        W45234   1.498  17.675   0.489 -0.2094  0.0309 -0.0897
28761W        W45235   9.308   3.309   2.796 -0.2698 -0.1683 -0.2173
28762W        W45236   5.395  11.193   3.782  0.0855 -0.0057 -0.1446
28763W        W45237   5.074  14.917   4.325 -0.4360 -0.0600  0.1541
28764W        W45238  13.343  13.246  14.494 -0.1807  0.2684  0.1202
28765W        W45239  17.984  16.622  14.824 -0.0940 -0.3343  0.2083
28766W        W45240  12.289  12.631  11.879 -0.1464  0.2683 -0.0325
28767W        W45241   4.612  18.532  13.286  0.2105 -0.0686  0.4445
28768W        W45242   7.481   0.438   3.126 -0.1928 -0.0433 -0.0667
28769W        W45243   8.145  16.426   5.117 -0.0388  0.3166 -0.0165
28770W        W45244  15.704  10.713  11.145  0.0869 -0.1645  0.0166
28771W        W45245   3.759   3.025   2.259 -0.0353 -0.2293 -0.0553
28772W        W45246  16.948  18.094   0.994 -0.3222 -0.0744  0.0352
28773W        W45247  15.593  13.968   5.352  0.1523 -0.1037  0.0163
28774W        W45248  12.240   9.341   5.253  0.1634  0.0625  0.0426
28775W        W45249  12.148   0.460  13.410  0.0480  0.0187 -0.0251
28776W        W45250   7.435   1.894  14.882  0.4106 -0.0197 -0.0375
28777W        W45251  15.914   5.095  15.376 -0.0151  0.0129  0.1487
28778W        W45252  13.359  10.359  14.438  0.1504 -0.2031 -0.1283
28779W        W45253   2.030   3.080   0.316 -0.1313  0.1896  0.0749
28780W        W45254   1.268   8.754  12.930  0.0490 -0.0287  0.2198
28781W        W45255   7.148  10.565  11.270  0.2033  0.0239  0.1491
28782W        W45256  14.712   8.941   4.366 -0.0814  0.1418 -0.2624
28783W        W45257   1.581   1.339   2.521 -0.0789 -0.0082 -0.1356
28784W        W45258  17.243   1.313  14.814 -0.2151  0.0306  0.0378
28785W        W45259  14.863   1.034   2.357  0.3502  0.0969 -0.4214
28786W        W45260  16.735  12.092   2.297 -0.0262  0.1965 -0.1044
28787W        W45261   4.160   1.695  11.508  0.0230 -0.1838 -0.1107
28788W        W45262  14.825  12.523  12.840  0.6493  0.1262  0.3370
28789W        W45263  10.433   2.413   5.854 -0.1961  0.1002  0.0063
28790W        W45264  17.152   8.812   1.887  0.1397 -0.0658 -0.1935
28791W        W45265  12.248  16.992   3.715  0.2277 -0.1647 -0.2900
28792W        W45266  13.327   6.705   1.360 -0.0572 -0.0517  0.2290
28793W        W45267   7.030  12.191   4.193 -0.4867  0.0355 -0.1680
28794W        W45268   8.806   3.514  12.189 -0.1162  0.2097 -0.0602
28795W        W45269   3.044  15.089   3.651  0.4680 -0.0560  0.1928
28796W        W45270   6.543   3.128  14.723 -0.1404  0.0107  0.2004
28797W        W45271   5.218   3.018   3.404 -0.3655  0.0132  0.0083
28798W        W45272  15.076  13.028  10.274 -0.1350 -0.1845 -0.0194
28799W        W45273   9.336   3.218   1.473  0.1363  0.0774 -0.1741
28800W        W45274   9.060   5.731   2.622 -0.0726  0.1367  0.2406
28801W        W45275  18.183   0.433  13.037  0.1019 -0.0449 -0.2628
28802W        W45276   2.083   7.314  10.473  0.2559 -0.2423 -0.1404
28803W        W45277  11.511   6.379   2.279  0.0464 -0.0123  0.0616
28804W        W45278  18.729  10.692  11.663  0.3443 -0.1069 -0.0960
28805W        W45279  12.655   5.323   3.623  0.2495 -0.0135 -0.2259
28806W        W45280   8.457  13.521   0.401 -0.2914  0.2816  0.2771
28807W        W45281  10.986   0.820  14.870 -0.0521  0.0261 -0.1713
28808W        W45282   2.155   4.530   1.478  0.0360  0.1331 -0.0417
28809W        W45283   2.379  13.263  12.089  0.2491  0.1469  0.2340
28810W        W45284   0.865  14.885  12.758 -0.1553 -0.2250 -0.2104
28811W        W45285  14.445   0.829   4.892 -0.0087  0.1478 -0.0124
28812W        W45286   3.168  10.542  11.515 -0.2726 -0.0004  0.1709
28813W        W45287   6.733   8.913  14.927  0.1843  0.0917 -0.1727
28814W        W45288   8.486   2.644  14.374  0.1034  0.1178  0.0657
28815W        W45289   7.548  17.708   9.448 -0.3056 -0.2243  0.1448
28816W        W45290  14.670  10.559   5.261 -0.0799 -0.2784  0.3892
28817W        W45291   3.747   6.393   4.017 -0.2679  0.1190  0.3603
28818W        W45292   0.408  18.487  13.559 -0.1216 -0.1986 -0.1525
28819W        W45293   9.797   0.877   1.765 -0.4475 -0.0502  0.1258
28820W        W45294   1.840   8.687   0.462  0.0046 -0.0756 -0.0517
28821W        W45295   0.505   3.193   0.390  0.0031  0.2648 -0.0767
28822W        W45296   8.041   6.096  11.070 -0.1307 -0.1130  0.1839
28823W        W45297  16.384  13.770  14.824  0.2695  0.2436 -0.2013
28824W        W45298  12.105  14.680  12.300 -0.2299  0.1257  0.0323
28825W        W45299   0.344   4.692  15.227  0.1664  0.0865  0.0894
28826W        W45300   3.569  15.266  12.018  0.0223  0.0322  0.2995
28827W        W45301  12.802  12.937   5.439 -0.1915 -0.2408  0.1121
28828W        W45302   7.915   9.474   4.812 -0.1448 -0.1376  0.1380
28829W        W45303   9.527   3.629  14.334 -0.0608  0.2098 -0.0285
28830W        W45304  12.964   1.288   4.593 -0.1179 -0.0274 -0.1341
28831W        W45305   7.081  15.087  15.015  0.1935 -0.0773  0.1128
28832W        W45306  14.197   2.497   1.157  0.0105 -0.3464  0.0480
28833W        W45307   9.273   4.610  13.055 -0.0592 -0.0727 -0.0911
28834W        W45308  10.793   7.672   1.481 -0.2401  0.0037  0.0225
28835W        W45309   7.700   4.191  13.639  0.0968 -0.2194  0.0371
28836W        W45310  15.629   3.131   3.903  0.2439  0.2511  0.1198
28837W        W45311   9.036   3.505   1.813  0.1375 -0.0922  0.1232
28838W        W45312   1.080   8.138   4.359  0.1198  0.1205  0.1719
28839W        W45313   0.869  11.216  14.596 -0.1321 -0.0075 -0.1188
28840W        W45314  13.923  10.468   2.970 -0.3412  0.0517  0.0786
28841W        W45315   2.356  13.431   3.623  0.0620 -0.3385 -0.0742
28842W        W45316   6.713  18.264   2.807  0.2007 -0.0018  0.1763
28843W        W45317  11.962   3.342   5.759  0.0354  0.3658  0.2533
28844W        W45318   2.843   9.158  11.561 -0.2890  0.2878  0.2210
28845W        W45319  12.491  13.056   1.641 -0.0550  0.0045  0.1445
28846W        W45320   7.639   7.717  15.045  0.2198 -0.1075  0.0729
28847W        W45321  10.618   4.280  14.033 -0.1730 -0.0035 -0.4211
28848W        W45322   4.709   1.876   3.887 -0.0306 -0.3128 -0.0551
28849W        W45323  15.173  16.928  14.061 -0.0883  0.1966 -0.1748
28850W        W45324  15.797   4.017  13.579  0.3410  0.1130 -0.0126
28851W        W45325  13.911   1.515  14.195 -0.1165  0.1195 -0.0340
28852W        W45326  10.325  18.538   0.956  0.1932 -0.0867 -0.1914
28853W        W45327   5.286   8.204  14.842 -0.0130  0.0924  0.1791
28854W        W45328   0.389  14.142   5.531 -0.0524  0.0225 -0.1222
28855W        W45329  16.061   5.020   5.070  0.2857 -0.1308 -0.5097
28856W        W45330  12.247  14.244  14.621 -0.1531 -0.1573  0.2817
28857W        W45331  12.483   0.693   0.103  0.2223  0.0713  0.2603
28858W        W45332  14.180  18.496  14.306  0.0538 -0.1891  0.0167
28859W        W45333  17.193   2.761   1.502 -0.1855  0.1742 -0.2278
28860W        W45334   1.610  14.995   3.092  0.0432 -0.2358 -0.0214
28861W        W45335   0.164  18.448   3.625  0.0087 -0.0681 -0.0114
28862W        W45336   0.055   0.566   3.888 -0.2486  0.0880  0.2375
28863W        W45337   9.361   0.184   3.115  0.0093 -0.1356  0.3979
28864W        W45338   2.676  10.524  13.120 -0.0864 -0.1243  0.1505
28865W        W45339  14.313   7.043   0.952 -0.1374  0.0583  0.0550
28866W        W45340  14.399  18.366   0.165  0.1921 -0.2723  0.1880
28867W        W45341   2.442   8.981   1.310 -0.1778 -0.0665 -0.2765
28868W        W45342   3.907   5.216   0.127  0.2125 -0.1737  0.1718
28869W        W45343   0.493  16.005   4.757  0.5306  0.2672  0.0942
28870W        W45344   2.660   5.884   2.097 -0.0710  0.1485  0.2054
28871W        W45345   3.165  13.158  13.694  0.0813  0.2298  0.3230
28872W        W45346   4.781   9.702   3.130 -0.0266  0.1341  0.2663
28873W        W45347  11.541  11.063  12.163 -0.2836  0.0618 -0.0249
28874W        W45348  11.046   8.542  13.821  0.1323  0.1731 -0.0795
28875W        W45349   1.934  12.284   0.832  0.1643 -0.1122  0.0975
28876W        W45350   3.421  16.160  15.205  0.0944  0.0643 -0.3317
28877W        W45351  14.386   1.739  15.461  0.0943  0.0276 -0.0412
28878W        W45352   0.615   1.863   3.520  0.1586 -0.0129 -0.1536
28879W        W45353  17.727   5.053  12.893  0.3708 -0.1446  0.0317
28880W        W45354   1.784   6.682   1.345  0.2869  0.1179  0.1501
28881W        W45355   3.029   8.465  12.983 -0.0579  0.3202 -0.2981
28882W        W45356   1.013   0.087  11.651 -0.0471 -0.3126 -0.1276
28883W        W45357  10.794   8.645  15.037  0.3146 -0.3090 -0.0523
28884W        W45358  13.961   5.575   2.739  0.1057 -0.0784  0.0519
28885W        W45359   9.485   4.620   3.365 -0.4808  0.0829 -0.0549
28886W        W45360  12.343  10.029  10.548  0.1194 -0.2382 -0.2050
28887W        W45361  17.831  14.536  11.400  0.2175  0.2359  0.1676
28888W        W45362   6.420  14.921  10.185 -0.0818  0.1492 -0.2508
28889W        W45363   8.014   9.689  11.973 -0.0623 -0.0219  0.0198
28890W        W45364  14.449  12.980  11.505  0.0404 -0.0961 -0.2126
28891W        W45365  12.576  17.398  10.459 -0.0189  0.1918  0.3146
28892W        W45366   4.881  14.110   4.356  0.1261  0.0636 -0.1861
28893W        W45367   8.887   8.697   2.200 -0.1565  0.0264 -0.0038
28894W        W45368   5.683   8.811  10.458  0.2017  0.2581 -0.0713
28895W        W45369  12.423   1.068   0.950 -0.3286  0.0057  0.0616
28896W        W45370  11.959   7.354   0.896  0.0305  0.1464 -0.0254
28897W        W45371  17.776  13.847   0.817  0.0109 -0.1111  0.3040
28898W        W45372  15.960   1.575   0.410 -0.0590 -0.3393 -0.1559
28899W        W45373   9.583  17.218   3.803 -0.0513  0.1416 -0.4982
28900W        W45374   7.768   1.964   0.452 -0.0690 -0.0730  0.1639
28901W        W45375  11.342  17.204   5.216 -0.1318  0.0015 -0.0940
28902W        W45376   7.011  10.884  12.504 -0.0604 -0.3008 -0.2810
28903W        W45377   0.538   2.318   0.120 -0.1556  0.1633  0.0824
28904W        W45378  16.607   2.827   3.784 -0.3253 -0.0749  0.1281
28905W        W45379   1.691   9.406   0.573 -0.0437 -0.0480 -0.0186
28906W        W45380   9.561   5.033  12.876  0.1047  0.0934 -0.3163
28907W        W45381  11.533   6.275   3.806  0.0159  0.0550  0.0924
28908W        W45382  10.695  18.648   2.617 -0.1224  0.0034 -0.0265
28909W        W45383   3.521   8.125   4.509  0.1150 -0.0831 -0.1840
28910W        W45384  16.999  18.413   1.412 -0.2725 -0.2119 -0.5242
28911W        W45385  14.992  16.050   3.427 -0.1009  0.0130 -0.1621
28912W        W45386  13.251  10.801   5.573  0.0515  0.1466  0.1005
28913W        W45387  10.160  14.635  13.674  0.2663  0.3172  0.1734
28914W        W45388   2.079   7.360   3.608 -0.1205  0.3672 -0.2577
28915W        W45389   8.804   4.523   4.522  0.2670  0.0725 -0.4478
28916W        W45390   8.307   1.550   2.456  0.2842  0.1415  0.2002
28917W        W45391   4.650   4.973  14.075 -0.1013  0.0907  0.0171
28918W        W45392  17.782   3.382   5.405 -0.2136 -0.3070 -0.0557
28919W        W45393   5.615  14.402   4.758 -0.0186 -0.0089  0.2521
28920W        W45394   6.040   4.342  12.926  0.2810 -0.0284 -0.2345
28921W        W45395   9.609   3.660  14.810  0.0233  0.0423  0.0787
28922W        W45396  13.482   8.547   3.175 -0.0218 -0.0713 -0.3201
28923W        W45397   2.027   8.560   2.059 -0.0357 -0.0556 -0.0595
28924W        W45398  15.111   8.305   3.721  0.0437 -0.0332 -0.0658
28925W        W45399   8.029  10.933   4.743 -0.1553  0.2763  0.0221
28926W        W45400   3.266  12.995  13.124 -0.1896  0.1259 -0.2531
28927W        W45401  13.055  15.720  15.437 -0.1622 -0.2385  0.2131
28928W        W45402   9.900  10.105   2.155  0.0260  0.1506  0.1730
28929W        W45403   8.512   9.640  15.077  0.1322  0.2595 -0.2237
28930W        W45404  13.329   0.329   3.057 -0.1654  0.2660 -0.0516
28931W        W45405  13.962  15.954   0.139  0.1640 -0.0862 -0.1116
28932W        W45406  15.639  14.278   6.112 -0.0011  0.2159  0.0633
28933W        W45407   3.499   6.444  10.965  0.0288  0.0351  0.0069
28934W        W45408  12.854  12.425  12.775  0.0787 -0.0787 -0.1441
28935W        W45409   0.293   4.100   2.738  0.0587  0.0481 -0.1796
28936W        W45410   9.880  15.414  15.309  0.0342  0.1839 -0.2061
28937W        W45411   3.923  11.438   2.540 -0.1365 -0.1108  0.1905
28938W        W45412  14.198   6.504  14.442  0.1254  0.0993 -0.1318
28939W        W45413  18.487  14.552   0.769 -0.1358  0.0827  0.0105
28940W        W45414   5.358  12.601  12.965  0.0949  0.1232 -0.2141
28941W        W45415   9.711  11.648  12.426 -0.0253  0.1092  0.2643
28942W        W45416   5.968   4.276   4.090 -0.4375 -0.1480 -0.1329
28943W        W45417   2.660   4.086  14.623 -0.0921  0.2143 -0.1417
28944W        W45418   8.308  10.466   1.634 -0.1509 -0.1223 -0.1228
28945W        W45419   0.125   0.285  12.279  0.1567 -0.3806 -0.0577
28946W        W45420   6.732   0.001   4.881  0.0026  0.1332  0.0622
28947W        W45421   7.807  13.565  11.778  0.2672  0.2871  0.0361
28948W        W45422   7.224  14.001   0.571  0.3124 -0.4590 -0.0802
28949W        W45423  14.929   1.417   6.023 -0.1741  0.2877 -0.0254
28950W        W45424  14.690  12.108  11.294  0.1739  0.0479  0.0488
28951W        W45425   3.217   4.238   2.311  0.1098  0.3149 -0.1689
28952W        W45426   4.389  15.170  14.074  0.3276  0.1265 -0.2821
28953W        W45427  14.727  10.792  12.490  0.0041  0.2357  0.0943
28954W        W45428  12.078   5.804   1.792 -0.3548  0.0056  0.4788
28955W        W45429  13.170   8.424   1.062 -0.0308  0.0052  0.1826
28956W        W45430   7.865   0.548   2.334 -0.1578 -0.1613  0.3384
28957W        W45431   3.571  15.808  13.975  0.0785 -0.3437  0.0831
28958W        W45432  12.584  13.390   1.017 -0.0178  0.3178  0.1100
28959W        W45433  10.043  16.274   2.521  0.1037  0.4964 -0.0368
28960W        W45434   9.845  15.349   1.233 -0.0432 -0.2175 -0.1168
28961W        W45435   5.187  14.247   2.322 -0.0786  0.3016  0.0483
28962W        W45436   9.173  14.851  13.781  0.0026  0.1930 -0.0896
28963W        W45437   4.437  13.857   3.230 -0.2616  0.1278 -0.1173
28964W        W45438  11.481  17.823   1.600  0.0915 -0.0681  0.0610
28965W        W45439   4.517  16.925  15.035 -0.0356  0.1369 -0.0354
28966W        W45440   3.480   5.211  13.540  0.0454 -0.0334 -0.1557
28967W        W45441   4.658  11.691  12.295  0.1256  0.2236  0.0836
28968W        W45442  14.468   6.050  14.629 -0.0163  0.2702  0.0007
28969W        W45443  16.094  10.848  13.839 -0.0874 -0.0686  0.3917
28970W        W45444  15.939  12.623   2.935  0.1084  0.0850 -0.0127
28971W        W45445   2.367  18.028   2.441  0.0856  0.3915 -0.1433
28972W        W45446  18.411  16.920  12.295 -0.3084 -0.2182  0.0565
28973W        W45447   4.585   6.621   0.390  0.1157 -0.0824 -0.0501
28974W        W45448   8.795   8.294  13.513 -0.0742  0.1607  0.1630
28975W        W45449  17.837  14.746   2.990  0.2764  0.1099 -0.0825
28976W        W45450   7.436  16.510   3.345 -0.0998 -0.2653 -0.1302
28977W        W45451  13.333  18.268  14.639  0.0355 -0.2763  0.1631
28978W        W45452  11.409   2.320  13.516 -0.0667 -0.2064  0.4076
28979W        W45453   2.972   6.446  13.943  0.3154  0.3480 -0.3102
28980W        W45454  16.677  18.282  12.846  0.0519 -0.1531  0.0122
28981W        W45455   2.227   1.961   4.760 -0.2043  0.0586 -0.0432
28982W        W45456  14.800   1.949  12.818  0.0452  0.0159  0.2561
28983W        W45457   0.081  16.268  13.141  0.2414  0.0329  0.4682
28984W        W45458  14.455   0.277   1.270  0.3529 -0.1822  0.5368
28985W        W45459  11.807  16.156  13.334 -0.0357  0.0173  0.2403
28986W        W45460   7.036   4.912  13.960 -0.2815 -0.1026 -0.1204
28987W        W45461   8.565   4.547  10.659  0.3561 -0.1255  0.0175
28988W        W45462  11.779  13.770  14.248 -0.2908 -0.2654 -0.1261
28989W        W45463   3.047   0.401  10.874 -0.2005 -0.0624  0.0582
28990W        W45464  17.002   9.561  12.181 -0.2928  0.1319  0.2576
28991W        W45465   7.054   6.827   2.458  0.0218  0.1034 -0.0650
28992W        W45466   1.687  18.280   3.477 -0.1008  0.0219  0.0343
28993W        W45467  17.103  16.829  11.445  0.1553  0.0065 -0.0034
28994W        W45468  13.303   7.249   5.494 -0.0925 -0.0709  0.0638
28995W        W45469  16.001  16.497  15.499  0.0745  0.0475 -0.0463
28996W        W45470  15.699   3.571  14.868 -0.1860  0.2301  0.1451
28997W        W45471  16.551   4.491   3.288  0.1912  0.1399  0.0374
28998W        W45472   7.003   7.301   3.729  0.2400 -0.3091  0.1219
28999W        W45473  18.335   9.911   5.107 -0.0164  0.2985 -0.0117
29000W        W45474  12.554   7.572  11.264 -0.0434  0.6342 -0.1830
29001W        W45475   5.106  15.742   1.873  0.0963  0.2847 -0.0961
29002W        W45476   5.452  18.025   4.325 -0.2666 -0.1546  0.1199
29003W        W45477  16.302   1.376  13.113 -0.2334 -0.1013  0.0190
29004W        W45478  16.623  18.156   2.720  0.1182 -0.2547  0.1794
29005W        W45479  16.671   3.352   5.740 -0.1364 -0.2450  0.1479
29006W        W45480  17.657   6.172  11.574  0.0161  0.1353  0.2262
29007W        W45481  11.475  16.924   4.247  0.1648 -0.1237  0.1400
29008W        W45482   5.867   1.629   2.270 -0.1250 -0.0249  0.2521
29009W        W45483   8.487  17.704  11.655  0.0300  0.0583  0.0860
29010W        W45484   6.729   1.046   1.143  0.0297  0.2534  0.2969
29011W        W45485   5.714  16.889   1.639  0.0706  0.2738 -0.1739
29012W        W45486  16.711   0.420  12.614 -0.2128  0.3118 -0.0043
29013W        W45487  18.586  10.915   4.564  0.1056  0.0871 -0.0059
29014W        W45488   8.923   3.824  13.627 -0.0183  0.0945  0.1542
29015W        W45489   7.570   7.876  13.177 -0.2088  0.1904  0.1957
29016W        W45490  12.198   6.832   0.777 -0.2524 -0.3034  0.1468
29017W        W45491  12.605   6.501   4.135  0.0904  0.1043 -0.3047
29018W        W45492  10.011  13.045  13.044 -0.0379  0.0916  0.1881
29019W        W45493  14.612   0.527  12.646  0.2801  0.0491  0.1296
29020W        W45494   7.902  15.290  10.497 -0.1284 -0.3539 -0.1421
29021W        W45495  16.076  17.662   1.226 -0.0522 -0.2544  0.1579
29022W        W45496   7.170   3.559  11.722 -0.2836  0.0514 -0.0188
29023W        W45497  16.117  11.923   0.467  0.2930  0.0038  0.0812
29024W        W45498   2.283   2.476  15.444 -0.1117  0.5050  0.0937
29025W        W45499  17.389   4.626  11.227 -0.1663  0.2388  0.2552
29026W        W45500   5.789  13.188   4.716 -0.0505 -0.2235  0.0526
29027W        W45501   1.825   1.201  14.478 -0.0010 -0.1915 -0.3798
29028W        W45502  16.675   1.042   1.063  0.0896  0.0412  0.0879
29029W        W45503  17.646   9.866   0.800 -0.1312  0.0038  0.0397
29030W        W45504  11.330   9.732  12.217 -0.0186 -0.1007 -0.0459
29031W        W45505   1.724  11.432   4.550 -0.0469 -0.3772  0.0382
29032W        W45506  12.375   3.094   0.298 -0.1360 -0.0070 -0.1287
29033W        W45507   9.494  10.417  10.864 -0.1119 -0.1485 -0.0051
29034W        W45508  17.464  13.490  13.575 -0.0025 -0.0077 -0.0430
29035W        W45509  11.177   3.769  13.840 -0.0695  0.1850  0.1650
29036W        W45510   3.180   4.761  14.308 -0.2354  0.0210 -0.1627
29037W        W45511  12.444  10.193  15.512 -0.2592 -0.0419 -0.1402
29038W        W45512   0.853  12.878  10.711  0.2233 -0.0576 -0.0602
29039W        W45513  12.477   1.672  11.203  0.1489  0.1361 -0.3207
29040W        W45514  14.259   4.231  11.049 -0.4141 -0.2913  0.1511
29041W        W45515  10.895   2.776  10.721 -0.0648 -0.0405  0.2474
29042W        W45516   0.393  11.993   5.330  0.1175 -0.2435  0.1475
29043W        W45517  11.696   6.393  13.562 -0.0021  0.0584 -0.1484
29044W        W45518  15.531   5.118  13.483 -0.2588  0.2337 -0.1490
29045W        W45519   7.196  12.820   3.032  0.2936 -0.0291  0.1758
29046W        W45520   2.280  13.120   1.289  0.0614  0.0120 -0.0483
29047W        W45521  18.738   4.902  12.824 -0.1217  0.0501  0.0242
29048W        W45522   5.656  17.473  11.304 -0.2463 -0.1061  0.0810
29049W        W45523   2.302   2.641   2.297  0.1000 -0.0053 -0.1403
29050W        W45524  18.263   5.348   4.392 -0.0819 -0.1476 -0.0792
29051W        W45525   1.063  14.889   1.077 -0.0666  0.1227 -0.0149
29052W        W45526  12.098  11.868  12.688  0.3530 -0.1729  0.2531
29053W        W45527   6.040  13.539   2.972  0.0527 -0.0287  0.3095
29054W        W45528  13.570  17.863   5.458  0.0702 -0.1338 -0.0660
29055W        W45529  17.063   3.968  13.055 -0.2542  0.2225  0.0184
29056W        W45530   4.862   8.583  15.030 -0.0819 -0.0879  0.0153
29057W        W45531   7.694  14.060   4.824 -0.1307  0.2285 -0.1291
29058W        W45532   4.118  15.419   3.197  0.0970  0.1359 -0.0044
29059W        W45533   4.938  11.681  15.378  0.0207 -0.1791 -0.0448
29060W        W45534  18.513  14.575  12.185 -0.2853  0.1024 -0.0568
29061W        W45535  10.402   6.468   2.497  0.0561  0.0600  0.0443
29062W        W45536   1.818  11.361  14.559 -0.0638 -0.1252  0.0360
29063W        W45537   8.369   4.370   9.898 -0.1139  0.0907 -0.0451
29064W        W45538   7.355   1.853   3.878  0.3133  0.0995 -0.1704
29065W        W45539   3.185  16.926  10.262  0.1290  0.1220 -0.0497
29066W        W45540  11.234  15.198  14.340  0.0262  0.0378  0.0291
29067W        W45541  10.107   3.491  11.583  0.0656 -0.3168 -0.0713
29068W        W45542   5.492   5.957  11.085  0.1051  0.0507 -0.0674
29069W        W45543   5.941   3.294  11.121 -0.4095  0.2209 -0.0493
29070W        W45544  16.577   1.361  13.523 -0.2076  0.0618 -0.0193
29071W        W45545   4.317  16.909   1.763  0.0337  0.2228 -0.0158
29072W        W45546   8.838  15.318  14.945 -0.0064  0.5661  0.1696
29073W        W45547   8.103  14.478   2.945 -0.1617  0.0062 -0.2548
29074W        W45548   4.370   6.676  14.560  0.3593 -0.1821  0.2862
29075W        W45549   2.152   4.454  11.613 -0.0711  0.0973 -0.0299
29076W        W45550  17.018   5.393  13.492  0.0987 -0.1085  0.1451
29077W        W45551   6.457   0.589  14.694  0.0523  0.1842 -0.1881
29078W        W45552  11.562  13.252   5.124 -0.0644 -0.0225  0.1034
29079W        W45553  11.791   9.112   4.289  0.1158 -0.0689 -0.0826
29080W        W45554   8.658   2.931  13.539  0.1125 -0.2998 -0.1944
29081W        W45555  13.562  11.831   1.102  0.1416  0.1019  0.0239
29082W        W45556  18.210   9.020   5.362 -0.1920  0.0018 -0.4827
29083W        W45557   4.502  13.519   1.457 -0.1601  0.0239 -0.2514
29084W        W45558  12.039   6.953  14.533  0.1472  0.1244 -0.3300
29085W        W45559   1.547  15.617   4.007  0.1235  0.0395 -0.1766
29086W        W45560  10.863   1.215   2.996  0.0248  0.2716 -0.0712
29087W        W45561  18.013   2.255   4.328  0.1239  0.1358 -0.0548
29088W        W45562   4.063  15.513   0.771 -0.2787 -0.0814  0.0323
29089W        W45563  10.948  17.013  10.818 -0.0023  0.2640  0.2717
29090W        W45564  12.933   5.358   1.097 -0.2691  0.0678 -0.1592
29091W        W45565  15.516   0.140  14.887 -0.0907 -0.3900 -0.1967
29092W        W45566  16.214   8.731   1.959 -0.1158  0.2311  0.0023
29093W        W45567   7.297   8.417   2.368 -0.4061 -0.2226 -0.0777
29094W        W45568   3.540   6.128  15.469  0.1984  0.0836 -0.1327
29095W        W45569   1.344  10.761  14.209 -0.0755 -0.3768 -0.1078
29096W        W45570  11.578   5.070   4.567 -0.0477  0.2693 -0.0178
29097W        W45571   3.181   6.050  14.126  0.1873  0.2501 -0.0214
29098W        W45572   9.888  18.723   1.300 -0.1917  0.0671 -0.0667
29099W        W45573   1.396  16.915  15.395  0.1207  0.0013 -0.2587
29100W        W45574  18.601  13.835   0.207  0.1610 -0.1014 -0.1625
29101W        W45575  10.932  14.307   4.928 -0.1438 -0.1730 -0.3118
29102W        W45576   8.108  17.853   4.498  0.1536 -0.0920 -0.0151
29103W        W45577   1.962  13.170   0.864  0.3430  0.1107  0.0678
29104W        W45578   6.828   2.656   4.392 -0.1251 -0.0537  0.3808
29105W        W45579   8.205  13.429  13.712 -0.1800  0.0516 -0.0923
29106W        W45580  13.603  12.663   1.577  0.1548 -0.0030  0.0994
29107W        W45581   4.170  11.115   4.898  0.1480  0.2440  0.1167
29108W        W45582  16.968  14.725  11.816  0.0327  0.1942 -0.3000
29109W        W45583  15.986  12.099  10.402  0.0708 -0.4104  0.3352
29110W        W45584   3.621   2.365  10.830  0.0533  0.0033 -0.1171
29111W        W45585   4.899  18.379  11.900 -0.0369  0.3010  0.3258
29112W        W45586   7.472   7.915   3.443 -0.2448 -0.1156  0.0028
29113W        W45587  14.443   0.259   3.055  0.3072 -0.3368 -0.3783
29114W        W45588   5.967  14.194   0.515 -0.0584  0.2056 -0.1556
29115W        W45589  16.960   8.345  14.663  0.2195  0.1346 -0.0723
29116W        W45590   2.597   6.771  12.171  0.0831 -0.3370  0.0414
29117W        W45591   9.092  14.464   4.734  0.1587 -0.0149 -0.1560
29118W        W45592   8.029   2.809  13.497  0.0849 -0.0981  0.0091
29119W        W45593   2.087  18.621   3.362 -0.3003 -0.0085 -0.0016
29120W        W45594   3.307   2.209  13.242 -0.1567 -0.1514  0.2115
29121W        W45595   1.583   2.115   4.041  0.0294 -0.3945 -0.2837
29122W        W45596  13.826  11.528  14.122  0.1795 -0.3405 -0.0631
29123W        W45597   4.748  13.184   3.667 -0.1398 -0.0165  0.0344
29124W        W45598  13.473   8.655   0.685  0.3217  0.0827 -0.3576
29125W        W45599  16.246  15.185   3.708 -0.1098  0.2657  0.2224
29126W        W45600   2.696  18.338  10.877 -0.0401  0.1472 -0.3544
29127W        W45601  11.439  14.206   3.402  0.0859 -0.0284  0.2981
29128W        W45602  14.848   7.460  13.209 -0.2365  0.3750 -0.1960
29129W        W45603  14.408   4.351   1.033 -0.0398  0.2609 -0.0098
29130W        W45604  18.327   2.753  15.257 -0.0624  0.2022 -0.0959
29131W        W45605   7.255  10.487   2.644 -0.1081 -0.1154  0.1061
29132W        W45606   2.042   7.792  14.334 -0.1246  0.0459  0.0303
29133W        W45607   5.374  15.810   4.202  0.1212  0.0933  0.0345
29134W        W45608  11.593  18.024   2.079  0.0658 -0.2680 -0.1678
29135W        W45609   8.769  16.945  14.921 -0.4447 -0.0147  0.1336
29136W        W45610   8.870  14.980  12.052 -0.0505 -0.2728  0.0370
29137W        W45611  15.518  16.507  11.159 -0.2320  0.1121  0.2473
29138W        W45612   7.072  10.928   2.775 -0.0344  0.2799  0.2369
29139W        W45613  13.173   7.682   3.457  0.0563  0.0480  0.0725
29140W        W45614   6.595   6.009   2.508 -0.1574  0.5709  0.1029
29141W        W45615  17.489   1.593  14.265 -0.1406  0.0108  0.0853
29142W        W45616   5.827  12.736  12.252 -0.0785 -0.1254 -0.2951
29143W        W45617   3.478   6.815   4.090 -0.1299  0.2078 -0.3359
29144W        W45618   6.391  13.426  14.012 -0.0449  0.2694 -0.0938
29145W        W45619   2.317   2.001  11.729 -0.0386  0.1187 -0.2272
29146W        W45620   9.149  12.306   4.765  0.4103 -0.0460  0.5215
29147W        W45621  12.661   5.681   2.942 -0.1233 -0.0167 -0.0286
29148W        W45622   4.895  16.457  12.710 -0.1057 -0.4554  0.0878
29149W        W45623   4.601   7.674   2.051  0.1474  0.1058 -0.0670
29150W        W45624   0.516  18.209  13.957 -0.0186  0.1871 -0.2623
29151W        W45625   1.756   9.051  13.576  0.0120 -0.2228  0.0628
29152W        W45626   1.416  12.324   4.065 -0.0149  0.1205 -0.2454
29153W        W45627   0.017   0.885   0.039  0.0791  0.0670  0.2997
29154W        W45628   1.476   4.100  13.994 -0.2725  0.0618 -0.0007
29155W        W45629   5.644   5.855  11.584 -0.1240  0.0164 -0.0420
29156W        W45630   3.884  11.713  14.180  0.0518 -0.2296 -0.0572
29157W        W45631  17.739   0.952  12.415 -0.0307  0.2338 -0.0384
29158W        W45632   2.549   1.621   4.955  0.1657  0.1513 -0.1343
29159W        W45633   6.185  16.308  14.884  0.2793  0.1191  0.0317
29160W        W45634   9.506  16.409  13.408 -0.1898  0.1646 -0.0547
29161W        W45635   9.820  16.324   5.600  0.1495 -0.0360 -0.1167
29162W        W45636  13.732   3.543  11.570  0.1679  0.1861 -0.1417
29163W        W45637  15.541   9.395   2.182 -0.4705 -0.0696  0.1109
29164W        W45638   5.408  17.773   4.718 -0.0351  0.2702 -0.0475
29165W        W45639   4.447   9.084  12.474  0.1253 -0.0087  0.0691
29166W        W45640  14.113  18.658  12.637  0.1289 -0.0226 -0.3066
29167W        W45641   1.259   7.130   4.861 -0.1665 -0.1598 -0.1244
29168W        W45642   7.203   8.097  14.413  0.0105 -0.1048 -0.1278
29169W        W45643   6.004  15.383   3.493 -0.3851 -0.0410  0.0815
29170W        W45644  11.588  18.526  13.170 -0.1880 -0.1970 -0.2501
29171W        W45645   8.408  13.670  14.750  0.3682  0.1719 -0.1751
29172W        W45646   1.893  16.072  12.078  0.0416 -0.0406 -0.0148
29173W        W45647  13.544  14.152  12.413 -0.0421 -0.0173 -0.0378
29174W        W45648  12.610   2.322   1.908 -0.3242 -0.0701  0.1587
29175W        W45649   7.398  18.394  13.589 -0.0649 -0.1783 -0.0885
29176W        W45650   3.294   7.722   2.586 -0.1236  0.1293  0.0578
29177W        W45651   9.721   4.072  15.189  0.0020  0.3819 -0.1135
29178W        W45652   4.449  14.176   2.745  0.0050 -0.2724  0.0717
29179W        W45653  15.899   1.022  15.004 -0.3158 -0.2710 -0.0227
29180W        W45654   3.782  10.075   0.204 -0.2999 -0.1541  0.0094
29181W        W45655   7.769   4.274  14.953 -0.1112  0.1555  0.0677
29182W        W45656   9.181  17.280  12.039 -0.0729 -0.0626 -0.0466
29183W        W45657  18.599   0.705   0.997 -0.3848 -0.1497 -0.0538
29184W        W45658  17.413   6.553  11.341 -0.3515  0.1068  0.1731
29185W        W45659  18.498   5.554   4.770 -0.4182 -0.1520 -0.1352
29186W        W45660   7.121   0.186  15.415 -0.2307 -0.3883 -0.1803
29187W        W45661  12.816   4.749   4.590  0.1449 -0.1602  0.0134
29188W        W45662  10.695  16.104  11.437  0.2109  0.0564 -0.0905
29189W        W45663  16.419   0.168   0.337  0.0033  0.0152 -0.2289
29190W        W45664   6.700   1.385   3.878 -0.0863  0.2021 -0.0373
29191W        W45665   7.056   8.443   1.671  0.2151 -0.1034  0.0181
29192W        W45666   2.160   8.994  12.341  0.1231  0.0667  0.0247
29193W        W45667  12.291  18.331   2.970  0.2417 -0.0578  0.1090
29194W        W45668   8.365   8.360   5.069  0.0079  0.2087  0.1083
29195W        W45669  17.696   8.704   4.853  0.1217  0.0593  0.1144
29196W        W45670   3.593   9.499   1.458  0.2637 -0.0537  0.0869
29197W        W45671  16.001   5.908   1.054 -0.1567 -0.0201  0.2011
29198W        W45672  14.933  14.097  15.001 -0.1374 -0.1951 -0.1133
29199W        W45673   6.505   8.162   3.389 -0.2413  0.1457 -0.0790
29200W        W45674   8.779   4.961   0.695 -0.0217 -0.0088 -0.0240
29201W        W45675  11.455  17.451   3.412 -0.0337  0.0347 -0.0552
29202W        W45676   3.957  13.727   1.992  0.2608 -0.0065 -0.2265
29203W        W45677  10.678   7.792  14.234  0.3815  0.2239 -0.1716
29204W        W45678   0.517   0.073   1.466 -0.2139  0.1121  0.2365
29205W        W45679  17.146  15.740  12.426  0.2111  0.0473 -0.0740
29206W        W45680   5.694  13.277   3.918 -0.1625 -0.3891  0.0435
29207W        W45681  16.038  17.834  14.348  0.1173 -0.2024  0.1925
29208W        W45682   6.694  15.028  14.686  0.0202  0.1128  0.2369
29209W        W45683  18.524   3.901  14.438 -0.2263 -0.0442  0.1144
29210W        W45684   5.957  15.893   2.892 -0.1443  0.2443  0.2727
29211W        W45685   2.965   7.224   1.891  0.0241 -0.0706 -0.0578
29212W        W45686   5.726  11.397  12.346  0.2574 -0.0995 -0.0160
29213W        W45687   2.646  11.204   1.256 -0.2245  0.0908 -0.1661
29214W        W45688  12.572  14.982  14.155  0.0881 -0.1801 -0.1126
29215W        W45689   3.945   1.835   0.777 -0.1931 -0.0754 -0.0691
29216W        W45690  10.107  16.103   3.475 -0.0679 -0.2345 -0.1633
29217W        W45691   0.610   5.057  12.566 -0.0936  0.0937 -0.0895
29218W        W45692   1.416  15.919  13.491 -0.1269  0.0379 -0.1528
29219W        W45693   7.237   3.239   3.382  0.0540 -0.0251  0.2143
29220W        W45694   6.504   8.721  11.836  0.2298  0.2330  0.0304
29221W        W45695   0.846   6.005   2.757  0.1650 -0.0958  0.0598
29222W        W45696   2.980  10.682  11.946  0.0205 -0.2321 -0.0931
29223W        W45697  11.133  10.688  11.805 -0.0910 -0.0265  0.0631
29224W        W45698  17.220   0.378   3.334 -0.0961 -0.0522 -0.0985
29225W        W45699  11.747   5.893   1.032  0.0675 -0.0950  0.1641
29226W        W45700   2.089  13.309   2.667  0.3084 -0.0238 -0.3714
29227W        W45701   2.743  12.356  14.380 -0.0154  0.0188  0.1752
29228W        W45702   5.579  18.443   1.402 -0.0719 -0.5550 -0.2369
29229W        W45703   5.439   2.299   2.045 -0.2646  0.1363 -0.0983
29230W        W45704  17.162  10.474  11.050  0.0003 -0.2438  0.1302
29231W        W45705  12.016  18.477  14.029  0.1425 -0.2116 -0.1913
29232W        W45706  15.569   0.341   2.800 -0.0582 -0.0161 -0.0681
29233W        W45707   8.962  13.026   5.431  0.0733  0.0191 -0.0415
29234W        W45708   4.254  17.360   1.548 -0.2445  0.0194 -0.1999
29235W        W45709  10.128  11.808   2.351 -0.2366  0.2163 -0.2202
29236W        W45710  15.645  10.470  13.994 -0.2593 -0.4547  0.2384
29237W        W45711   5.634  14.995   5.991 -0.0130 -0.3671 -0.1452
29238W        W45712  14.465  11.887  14.237 -0.1258 -0.1836  0.2289
29239W        W45713  13.989  10.866   4.866 -0.2048 -0.1439 -0.0554
29240W        W45714   5.862   6.804   1.495  0.1687  0.1668 -0.0046
29241W        W45715   0.117   1.690   2.299 -0.0461  0.0416  0.1404
29242W        W45716   4.599   0.576  12.501  0.0554  0.0133 -0.5364
29243W        W45717   4.374  18.173  13.613 -0.1666 -0.0538 -0.1240
29244W        W45718  11.001  17.026  12.537  0.0275  0.0179  0.1068
29245W        W45719   4.318   6.900   2.917 -0.1797  0.1331  0.0545
29246W        W45720   6.492   1.625  12.346  0.1535 -0.2289  0.0418
29247W        W45721  12.475  10.715  13.770 -0.0090  0.0149 -0.2239
29248W        W45722   9.635  14.720  12.651 -0.2189 -0.1591 -0.0079
29249W        W45723  14.804  11.024  14.370  0.1979  0.1149  0.1651
29250W        W45724  16.500  12.049   0.083  0.1307  0.0817  0.1668
29251W        W45725  10.869  13.491  13.177  0.1339 -0.2085  0.1040
29252W        W45726   5.116   4.016   0.301 -0.0421  0.0603 -0.1739
29253W        W45727   8.392   7.750  12.704 -0.1208 -0.5696  0.4251
29254W        W45728  15.795  15.644  14.519  0.0292 -0.0849 -0.1771
29255W        W45729   9.994   9.216   1.002  0.1987 -0.1272  0.6074
29256W        W45730   2.298   7.564  11.375  0.0733  0.1880  0.3134
29257W        W45731   2.937  14.869   5.639  0.1625  0.0846 -0.2046
29258W        W45732   3.464  17.956  12.067  0.0011  0.2071  0.1184
29259W        W45733   3.685  15.695   4.513  0.3199  0.2448 -0.1182
29260W        W45734   9.488   8.285  14.380  0.3087  0.2927  0.0373
29261W        W45735  14.286   7.664   2.733  0.0651  0.0411 -0.0022
29262W        W45736  17.730  17.056   0.467 -0.0447  0.1729 -0.1651
29263W        W45737  13.670   4.685   4.441  0.1766 -0.1726  0.1058
29264W        W45738   4.072   3.906  13.832 -0.0708  0.3100  0.2809
29265W        W45739  16.610   2.288   2.053 -0.0788  0.2259  0.0546
29266W        W45740  14.991   5.350  14.675  0.0946  0.0291  0.0660
29267W        W45741  11.736  13.538  11.766  0.0322  0.1965 -0.3081
29268W        W45742   1.595  11.183   5.454 -0.1866 -0.0124  0.0646
29269W        W45743   7.274  17.789  12.810 -0.0433 -0.2772  0.1823
29270W        W45744   9.906  13.265   6.110 -0.1894 -0.0024  0.2243
29271W        W45745   4.457  13.881   1.860  0.3722 -0.0629  0.1275
29272W        W45746  12.859  17.094   1.706 -0.3420 -0.0054  0.2630
29273W        W45747  18.596   8.773  14.652  0.0968  0.3830 -0.1720
29274W        W45748  14.452   3.997  12.456  0.3014 -0.1158  0.0736
29275W        W45749  15.622  18.654   5.199  0.0103 -0.0178  0.1114
29276W        W45750  15.650   7.607   3.988 -0.1451  0.0127 -0.0694
29277W        W45751   9.018  14.214   1.796 -0.2518 -0.2216 -0.0288
29278W        W45752  11.783  10.049   0.803 -0.0414 -0.0169  0.1301
29279W        W45753  10.027  18.425  11.419  0.0124 -0.1339  0.0384
29280W        W45754   0.191  14.780   2.335 -0.1151 -0.0332 -0.0787
29281W        W45755  16.840   0.943   2.596  0.0294  0.0222 -0.1536
29282W        W45756  17.064  18.113   3.535  0.3622 -0.0189 -0.0415
29283W        W45757   5.269  18.088  10.756 -0.1577  0.0086 -0.2977
29284W        W45758  17.125   9.130  11.044 -0.0163 -0.0350 -0.2680
29285W        W45759   5.494  17.874   3.081 -0.3090  0.0710  0.1518
29286W        W45760   0.098   9.510   0.750  0.1397  0.1140  0.1330
29287W        W45761   9.357  13.221  11.425 -0.1980 -0.0037  0.1781
29288W        W45762   2.811  12.290   3.874 -0.1029  0.0967 -0.0638
29289W        W45763  15.672  18.595   3.674  0.0290  0.2848  0.2330
29290W        W45764  11.260   6.586   4.533 -0.1976  0.1539 -0.1360
29291W        W45765   8.455   0.644   2.420 -0.2476 -0.0762 -0.2850
29292W        W45766  18.505   9.250   1.595 -0.1838 -0.1193 -0.0238
29293W        W45767   6.396  16.598   5.762 -0.1181 -0.0318 -0.2836
29294W        W45768  16.962  12.960  14.935  0.1627 -0.2650  0.0246
29295W        W45769  12.085  15.899  12.927 -0.2529  0.0948  0.2770
29296W        W45770   2.887   7.036   0.011  0.0488 -0.0457  0.1453
29297W        W45771   1.040  12.864  12.143  0.4907 -0.0179 -0.4987
29298W        W45772   2.205  10.271  13.109  0.1027  0.1404 -0.1312
29299W        W45773   2.542   8.472  12.456 -0.1097  0.1468  0.0478
29300W        W45774   5.088   4.638  10.241  0.4013  0.1443 -0.0993
29301W        W45775  11.430   1.015  10.444 -0.1933  0.1696  0.1854
29302W        W45776   5.949  17.175   5.062 -0.2520  0.1594  0.0364
29303W        W45777   7.768   8.223  15.120 -0.0098 -0.4086 -0.2366
29304W        W45778  12.038   2.957   1.100  0.0723 -0.2648  0.0751
29305W        W45779   2.535  14.900  13.681 -0.2485  0.4673 -0.5860
29306W        W45780  15.206  12.835   0.148  0.1896  0.0782 -0.1153
29307W        W45781   0.021  17.422  10.800  0.0830 -0.2168  0.0718
29308W        W45782   0.623   5.788   4.229  0.3026  0.1713  0.2331
29309W        W45783   8.113  16.052   3.982 -0.1552 -0.3230 -0.0743
29310W        W45784   0.553   7.519   4.290 -0.3994 -0.2016 -0.2689
29311W        W45785  10.953  15.800  12.721  0.0437  0.0428 -0.0522
29312W        W45786   0.047  16.713   4.108 -0.0119  0.1689 -0.0060
29313W        W45787   9.246   0.640  12.761  0.1488 -0.2946 -0.0194
29314W        W45788  12.942   3.008   5.563 -0.1663 -0.7891 -0.0345
29315W        W45789  16.452   1.673  12.240  0.2117 -0.1907 -0.0266
29316W        W45790   0.330  13.207   4.236  0.0632 -0.1789  0.1251
29317W        W45791  10.506   4.760  14.159 -0.1448 -0.0771 -0.3864
29318W        W45792   5.323  13.095   1.129  0.2018 -0.1978 -0.0764
29319W        W45793  15.351  17.599  13.414  0.1489  0.0826  0.1286
29320W        W45794  17.912  11.305  11.118 -0.0518 -0.2121 -0.1743
29321W        W45795   1.477  17.278   2.895  0.0969 -0.0663 -0.1583
29322W        W45796   6.588   2.363   4.792  0.1502  0.1054  0.2359
29323W        W45797   5.930   3.878   0.002 -0.1885 -0.3685  0.3038
29324W        W45798   7.736   5.678   9.156 -0.1242 -0.1979  0.1299
29325W        W45799   0.566  18.483  15.016  0.0140  0.0999 -0.0658
29326W        W45800   7.052   7.356  13.951  0.4008  0.3604  0.2524
29327W        W45801   0.711  13.535   4.651 -0.1664 -0.2556  0.0535
29328W        W45802   0.516  13.878  10.986  0.2153 -0.1492 -0.4289
29329W        W45803  11.550  10.345  13.874  0.3784 -0.1367 -0.0852
29330W        W45804  17.798  13.873   3.488  0.2316  0.1101 -0.2585
29331W        W45805  16.845   4.825  14.787 -0.0531  0.0452 -0.0357
29332W        W45806  14.495   4.740  13.093 -0.2046 -0.1054  0.1044
29333W        W45807   9.958  11.243  12.527 -0.2146 -0.0802 -0.1377
29334W        W45808   7.958  14.129  15.540  0.1157  0.1974 -0.1582
29335W        W45809   0.013  16.009  10.022 -0.0981  0.2692  0.0271
29336W        W45810  11.821   8.571   4.427 -0.0112  0.0133  0.0287
29337W        W45811   9.590   6.475   9.962 -0.0510  0.1281 -0.0244
29338W        W45812   9.642   3.921   1.328 -0.1356 -0.3492 -0.0524
29339W        W45813   4.486  18.727   0.647  0.4201 -0.1413 -0.0435
29340W        W45814   5.460  11.713   2.854  0.1253 -0.0685 -0.0171
29341W        W45815   3.828   1.341   4.557  0.0161  0.0263  0.0669
29342W        W45816  12.454  18.751  13.370 -0.1297  0.0470 -0.0580
29343W        W45817   0.113   5.187  15.358 -0.3407  0.3258 -0.2055
29344W        W45818   4.195  16.369   4.206 -0.0362 -0.1578 -0.1549
29345W        W45819   5.712  16.350   3.067 -0.0680  0.0807  0.0805
29346W        W45820  10.608  12.984   4.631 -0.0862  0.0716 -0.0873
29347W        W45821   0.650   4.911   0.066  0.0499 -0.1046  0.0869
29348W        W45822   0.772   8.491  14.531 -0.0649 -0.1529 -0.1162
29349W        W45823  17.995   2.513   3.752  0.1899  0.1341  0.2554
29350W        W45824   0.178  11.299  10.207  0.3194  0.0081 -0.2680
29351W        W45825  12.512   2.601   2.776 -0.0810  0.0917  0.1316
29352W        W45826   4.470  10.801   1.945 -0.1082 -0.2115  0.0009
29353W        W45827   6.559   8.907   5.133  0.0759 -0.0521  0.0055
29354W        W45828   2.803  16.869   3.287  0.0004 -0.4449 -0.1196
29355W        W45829   6.574  17.708   2.406 -0.1865  0.2113  0.1484
29356W        W45830  17.403  13.048   5.151  0.1510  0.0230 -0.1306
29357W        W45831  15.336   2.794   0.319 -0.1335 -0.0197 -0.1741
29358W        W45832   4.828  13.656   3.826  0.1627  0.2857 -0.1557
29359W        W45833  16.702  11.958   3.849  0.1388 -0.2037  0.1554
29360W        W45834  10.561   9.991   3.855 -0.3993 -0.2488  0.0297
29361W        W45835   1.122  12.862   4.066  0.0839  0.0671  0.2750
29362W        W45836  17.171   5.131   4.239  0.4397  0.0550  0.4975
29363W        W45837   4.534   9.602  10.376  0.5348  0.1108  0.1412
29364W        W45838  14.244  18.515   4.742 -0.4182  0.0627 -0.3060
29365W        W45839  16.790  10.103  11.776 -0.0712  0.1784  0.2345
29366W        W45840  12.678  17.217  11.913  0.0386 -0.3117  0.0985
29367W        W45841  14.998   4.889  15.515  0.2252 -0.0642  0.2187
29368W        W45842   4.041  15.470   3.739 -0.1759 -0.1087 -0.0655
29369W        W45843  11.091  11.071   4.773 -0.2047  0.0874 -0.1021
29370W        W45844  10.422   4.059   1.736  0.0215 -0.0020  0.2844
29371W        W45845   6.600  10.963   0.769 -0.0068 -0.0364 -0.2890
29372W        W45846   4.115   1.966  12.041 -0.2378 -0.2504 -0.1782
29373W        W45847   2.032   8.141  14.697  0.0947  0.1750 -0.3054
29374W        W45848   8.452   0.950  11.499 -0.0224 -0.1615  0.1011
29375W        W45849   6.172   8.691  14.128 -0.2595  0.1999  0.2822
29376W        W45850   8.516   5.264  12.165 -0.0142 -0.2247 -0.0054
29377W        W45851   0.587   2.344   4.556 -0.0696  0.0001  0.1492
29378W        W45852   1.545   7.156   0.772  0.1523  0.2035 -0.1523
29379W        W45853  18.619  18.728  10.831  0.0191  0.0052 -0.3336
29380W        W45854  11.566  16.185   0.209 -0.2226  0.0945 -0.1922
29381W        W45855   4.160  11.987   3.732 -0.1679  0.1131 -0.2989
29382W        W45856   3.761   7.820  14.901  0.2036  0.0641 -0.0174
29383W        W45857  15.016  15.100  15.366 -0.1517 -0.0501  0.0097
29384W        W45858  17.846   4.891  14.481 -0.2173 -0.3715  0.1221
29385W        W45859  11.397   3.093   5.333  0.1654  0.1051  0.2651
29386W        W45860   4.354  10.780  14.392  0.3583  0.3775 -0.0586
29387W        W45861   0.160  14.043  14.809 -0.2473  0.3210 -0.0383
29388W        W45862  16.121  13.704   1.376  0.0408 -0.3451 -0.5812
29389W        W45863  13.388   9.189   4.468  0.1485  0.1043 -0.1391
29390W        W45864   0.689  10.076   1.456 -0.0917 -0.1902  0.3585
29391W        W45865  13.654   8.676   1.884 -0.2696  0.2078 -0.2808
29392W        W45866   4.196   5.396   4.673 -0.0720 -0.1489  0.3125
29393W        W45867   3.137   1.092  10.200  0.4601 -0.0104 -0.1137
29394W        W45868   3.238   3.589   2.424 -0.3529 -0.0966 -0.1137
29395W        W45869   3.981  17.964  11.969  0.0478 -0.1984 -0.0294
29396W        W45870   5.361  14.103   5.077  0.0798 -0.0622 -0.1002
29397W        W45871   7.938   7.430  11.132  0.0665 -0.0032  0.2043
29398W        W45872  11.090   1.964   3.900  0.3424  0.0465  0.0311
29399W        W45873  12.059  13.837   3.588  0.2097 -0.1289 -0.3298
29400W        W45874   2.933   9.855  13.259  0.0300 -0.1763  0.2366
29401W        W45875   9.491  10.801   4.959  0.0182  0.3122 -0.0190
29402W        W45876  13.603  17.849   4.001 -0.2063 -0.0906 -0.2643
29403W        W45877  13.043  15.859  14.020 -0.1006  0.2863 -0.0807
29404W        W45878  17.076   7.397   2.855  0.0031 -0.1324  0.5584
29405W        W45879  16.071  10.550   1.796  0.0341 -0.3653  0.0559
29406W        W45880  14.314   3.093  13.626 -0.2590 -0.2488 -0.1352
29407W        W45881  18.425   4.797  13.551 -0.0286 -0.3280  0.1799
29408W        W45882   9.434   7.104  10.905  0.0960 -0.1388 -0.0851
29409W        W45883  18.702   4.189  12.237  0.1398 -0.0327 -0.2219
29410W        W45884   6.362   8.026   0.685  0.2283  0.0572 -0.1432
29411W        W45885  14.015   9.441   1.600  0.1994 -0.0130  0.1075
29412W        W45886  12.551   1.842   2.292  0.0038  0.3420  0.2909
29413W        W45887   2.841   4.670   4.781 -0.0217  0.0422 -0.2414
29414W        W45888  13.670   9.613  14.771 -0.1972  0.1134 -0.3347
29415W        W45889  15.285  16.758   1.697  0.4861  0.0503  0.0307
29416W        W45890   0.241  15.706   3.124 -0.0259 -0.0350 -0.3851
29417W        W45891   9.005  10.654   0.250  0.0050 -0.0652  0.2178
29418W        W45892   8.224  16.250   2.924 -0.0956  0.0735  0.3913
29419W        W45893   0.467   6.582  12.817  0.0125 -0.0260 -0.4451
29420W        W45894  14.231   0.273   5.008  0.2318  0.2316 -0.1457
29421W        W45895   1.768  18.218  13.158 -0.1299 -0.1382 -0.0911
29422W        W45896  11.848  12.643   1.139 -0.1278 -0.2274  0.4194
29423W        W45897   7.575  14.392   5.984 -0.0008  0.0737 -0.1516
29424W        W45898  16.908   9.229   0.573 -0.1147  0.2440 -0.2490
29425W        W45899  12.495  15.131  15.094 -0.1668  0.0225 -0.3997
29426W        W45900  11.529  12.961  11.625  0.1208  0.0856  0.2093
29427W        W45901   5.337  12.838   1.577 -0.2629  0.0961 -0.4933
29428W        W45902   9.938   2.449   4.614 -0.0389 -0.2243 -0.1163
29429W        W45903   9.834  13.716  10.690  0.0919 -0.0128 -0.2555
29430W        W45904   7.765   2.579   3.609 -0.2623  0.1082  0.0587
29431W        W45905  16.746  13.144  14.173 -0.0577 -0.1258 -0.1141
29432W        W45906  12.860  15.325  12.787  0.0663  0.0492 -0.0170
29433W        W45907  11.697  14.613   5.110 -0.0581 -0.2154  0.1485
29434W        W45908   4.923   1.291   5.413  0.0769 -0.2472 -0.0635
29435W        W45909   6.539   2.953   0.638 -0.0255 -0.0532  0.2272
29436W        W45910   4.995   0.013  10.245 -0.2705  0.2035 -0.1527
29437W        W45911   4.541  11.238  12.029 -0.1518 -0.2247 -0.0128
29438W        W45912  18.011  16.022  11.550  0.0747  0.1287 -0.1775
29439W        W45913   5.505   5.894   9.380  0.1880  0.2629  0.0574
29440W        W45914   8.516  16.711   2.208 -0.1752  0.1806  0.1054
29441W        W45915   5.795   8.975   3.707 -0.1160 -0.0941  0.2252
29442W        W45916  15.305   9.595  15.255 -0.2730  0.4568 -0.1118
29443W        W45917   7.767   7.498   0.103 -0.0634  0.1429 -0.0585
29444W        W45918   0.192  11.590   4.485  0.0716  0.2145 -0.0612
29445W        W45919  13.884   8.480   2.314 -0.0728 -0.1287 -0.0583
29446W        W45920  14.075   8.351   1.831  0.0871  0.2181  0.0854
29447W        W45921  16.224   8.005   3.744  0.1532 -0.0151  0.0464
29448W        W45922   8.934   5.810   3.071  0.1265  0.1331 -0.0260
29449W        W45923   9.792   2.327   3.300 -0.1354  0.1529 -0.1441
29450W        W45924  14.167   0.422  14.225 -0.1103  0.2230  0.0703
29451W        W45925  11.049   6.260  14.182  0.2397 -0.2234  0.4488
29452W        W45926   9.926   7.054  13.477  0.1684  0.0876  0.0066
29453W        W45927   2.578  15.684  13.914  0.2972  0.1929 -0.0362
29454W        W45928  11.679   3.683  13.886 -0.1004 -0.1277  0.0857
29455W        W45929  14.747   8.150  14.093 -0.3665 -0.0983 -0.0144
29456W        W45930   4.152  14.293  13.559  0.2192 -0.0823 -0.2603
29457W        W45931   0.471   7.835  13.047 -0.0833  0.0350  0.0669
29458W        W45932   1.609   7.189   3.597 -0.1572 -0.1659  0.3358
29459W        W45933  11.253  16.280  12.640  0.1628 -0.0591  0.1916
29460W        W45934  13.368  18.315   2.908 -0.1368 -0.1228  0.1798
29461W        W45935  13.496  14.616  14.714  0.4849  0.1901  0.1342
29462W        W45936  17.871  17.335  11.684  0.0771  0.0542  0.6053
29463W        W45937   7.665  11.400   1.836  0.1793  0.1693  0.0400
29464W        W45938   8.318  15.145   1.763 -0.0234  0.0999  0.3806
29465W        W45939  10.636  16.658   1.244  0.2570  0.0046  0.3108
29466W        W45940   3.697   5.955   3.757 -0.3176  0.1006 -0.2014
29467W        W45941  15.158   3.409  15.296  0.3222 -0.0028  0.1393
29468W        W45942  15.653  17.972  14.611 -0.1809 -0.2363 -0.0533
29469W        W45943   1.069   6.479   4.542  0.4001 -0.5596  0.1116
29470W        W45944  11.254  18.639  11.677 -0.2578 -0.4551  0.0783
29471W        W45945  13.139  13.291   3.679 -0.0028 -0.1715  0.2443
29472W        W45946   4.735  11.171   4.800  0.0012  0.3314  0.0942
29473W        W45947  12.211   7.179  12.482 -0.0255 -0.2063 -0.0742
29474W        W45948   2.934  17.715  12.534  0.0210  0.1867 -0.1502
29475W        W45949  16.539   2.750  13.313 -0.3480  0.1186  0.0565
29476W        W45950  15.101  18.559  12.360  0.1588  0.1234  0.1323
29477W        W45951   7.278   7.751   2.861  0.0137  0.0129  0.1193
29478W        W45952  11.262  16.697   3.800  0.0687 -0.0153 -0.3340
29479W        W45953   8.458  15.959   1.000  0.0956 -0.2996  0.2184
29480W        W45954   2.925  10.810   3.231  0.1011 -0.0940 -0.0873
29481W        W45955   1.658   8.571  10.929  0.2612 -0.0913 -0.0685
29482W        W45956  11.100  13.816   1.462 -0.2737  0.0082 -0.0098
29483W        W45957  12.694   1.892   4.388  0.0179  0.2391 -0.1380
29484W        W45958   3.359   5.668  12.375 -0.1030 -0.1875  0.1374
29485W        W45959   5.469  15.884   0.394 -0.0413 -0.1375  0.0303
29486W        W45960   2.979   0.037   0.978 -0.1487 -0.1303 -0.0250
29487W        W45961  13.148  10.010  14.740  0.0408 -0.1873  0.0886
29488W        W45962   1.249   3.237  13.720 -0.1435  0.2224  0.3173
29489W        W45963  14.497  12.703   1.486  0.0857 -0.2195  0.1442
29490W        W45964   3.430  11.348  11.301 -0.0452  0.1518  0.0149
29491W        W45965  10.897  16.521   0.857  0.3975  0.0416 -0.0414
29492W        W45966   8.958   4.928   1.568  0.0288  0.0095  0.1782
29493W        W45967   9.732  11.125   1.950 -0.0668 -0.0719 -0.1058
29494W        W45968   1.340  11.252  12.074 -0.3361 -0.0780 -0.0665
29495W        W45969  11.201   6.370  13.720 -0.0714 -0.2860 -0.2907
29496W        W45970   3.464  18.074  13.122 -0.2198  0.0181  0.3630
29497W        W45971  14.307   0.572  11.773  0.1350 -0.2567 -0.1202
29498W        W45972  16.740  14.850  11.355  0.6062  0.0153  0.1395
29499W        W45973   0.128  10.173  10.904 -0.0946  0.2680 -0.4315
29500W        W45974  12.387  13.862  14.341  0.2025  0.1120  0.1511
29501W        W45975   5.864  17.739   2.626  0.0524 -0.0566 -0.3311
29502W        W45976   4.640   2.815   1.729 -0.2286 -0.1480  0.4418
29503W        W45977  18.041   6.271   5.650 -0.0844 -0.2792 -0.1206
29504W        W45978   1.061  14.754   3.000  0.0873 -0.3159 -0.1204
29505W        W45979   1.759  15.589  14.099  0.0134  0.2238  0.4824
29506W        W45980   2.543   6.138  11.219  0.2212 -0.1400  0.1485
29507W        W45981  17.008  15.398   4.582  0.0341  0.0011  0.0565
29508W        W45982   4.859   0.861  10.226  0.0017 -0.3461 -0.0750
29509W        W45983  13.849   6.043  13.600 -0.2853 -0.1935 -0.1657
29510W        W45984   5.636  18.451   5.278  0.0771 -0.2093  0.1119
29511W        W45985   4.185   0.135   5.421  0.0929 -0.1621  0.0124
29512W        W45986   8.536   1.173  10.638  0.0711  0.3483 -0.0786
29513W        W45987   4.967   6.183  15.222 -0.4600  0.1545  0.0680
29514W        W45988   4.004  17.907   4.416 -0.1858  0.2720 -0.1649
29515W        W45989  16.711  14.894   4.307  0.0069 -0.0716 -0.0755
29516W        W45990   9.843  14.391   1.943 -0.2036 -0.1881 -0.2664
29517W        W45991   1.016  13.218  14.390 -0.1680  0.3466  0.0118
29518W        W45992  15.683  16.231   2.938 -0.0372 -0.0720  0.2454
29519W        W45993  14.163   1.252  12.938  0.5923  0.2463  0.1093
29520W        W45994  12.558  13.056  11.717 -0.1843  0.1310  0.2617
29521W        W45995   1.879   2.184  11.910  0.0583  0.1443 -0.3514
29522W        W45996  16.642  17.027  15.106 -0.0825 -0.0603  0.5614
29523W        W45997  18.499   3.425   1.778 -0.1324 -0.2685 -0.2903
29524W        W45998   7.688  16.519   0.482 -0.2035  0.0153  0.1144
29525W        W45999   3.570   9.926  15.250 -0.2244  0.1056  0.0945
29526W        W46000  17.622  12.835  15.306 -0.1168  0.1315 -0.1945
29527W        W46001  12.975   7.277   3.322  0.1071  0.0390  0.2657
29528W        W46002   9.274  11.031   1.095  0.2306 -0.2370  0.3831
29529W        W46003  18.317   8.266   1.233  0.0286 -0.0935  0.2160
29530W        W46004  11.950  14.271   1.151 -0.2408  0.1354 -0.1428
29531W        W46005   7.438   4.576   2.254  0.2552 -0.2942  0.1938
29532W        W46006  13.584  14.199   5.253  0.2106 -0.2208 -0.0375
29533W        W46007  13.325   4.533   5.113  0.1553 -0.1138  0.0532
29534W        W46008  18.457   8.746   1.005  0.1253 -0.1345 -0.0342
29535W        W46009  12.616   9.824  11.924 -0.1794  0.0025 -0.1111
29536W        W46010  12.918   8.983  14.496 -0.2764  0.2669 -0.1875
29537W        W46011   7.553  11.434  11.370  0.1121 -0.2675 -0.1508
29538W        W46012   1.485  10.163  12.829  0.1424  0.2054 -0.2389
29539W        W46013   2.319  14.134   0.023 -0.3491  0.4199 -0.1032
29540W        W46014  14.879  12.016   0.503  0.3442 -0.3308  0.1091
29541W        W46015  14.273  17.031   2.371 -0.0759 -0.1207 -0.0111
29542W        W46016  14.188  15.146   0.205 -0.0714  0.1353 -0.2370
29543W        W46017   7.844  12.265  11.654 -0.0192 -0.2940  0.1191
29544W        W46018  14.532  14.773   2.628 -0.1586 -0.0116 -0.0427
29545W        W46019  12.095   3.487   1.186 -0.0206 -0.4925  0.2308
29546W        W46020   4.952   6.232  12.905  0.1408  0.0986  0.0132
29547W        W46021   1.339   1.101   3.846  0.0825  0.0760  0.1248
29548W        W46022   8.219   6.355  10.599 -0.0832  0.2340  0.0646
29549W        W46023   2.171   3.846  14.442 -0.1735 -0.0539 -0.1015
29550W        W46024   9.627   1.949  14.026  0.0262  0.1937  0.2896
29551W        W46025   1.017   7.043  13.418  0.2166 -0.0934  0.1357
29552W        W46026   9.061  10.548  12.188  0.0933 -0.0671 -0.1294
29553W        W46027   1.816  14.722  12.306 -0.1857  0.2066  0.1361
29554W        W46028   6.529   9.526   3.195 -0.0541 -0.2182  0.0921
29555W        W46029   0.719  16.129  12.506  0.0117 -0.2159 -0.0631
29556W        W46030  13.575   2.336   1.987 -0.4522  0.3062  0.2863
29557W        W46031  14.928   4.233   5.024  0.1968  0.2395  0.0059
29558W        W46032   3.346   8.298   4.944 -0.1215 -0.4001  0.1296
29559W        W46033  14.372   9.501  12.342 -0.2452  0.0893  0.0823
29560W        W46034  11.771  13.354  10.828  0.1407  0.0763  0.1986
29561W        W46035   0.633   7.756   0.082 -0.1175  0.0269 -0.1432
29562W        W46036  13.278  17.122  13.620  0.1217 -0.0602 -0.0872
29563W        W46037  17.191   5.064  11.452  0.2988  0.0590  0.2671
29564W        W46038   3.073  18.656  10.715 -0.0626  0.2500  0.0862
29565W        W46039  13.482  15.985  15.558 -0.0028 -0.0468  0.0411
29566W        W46040  11.396   2.395  11.750 -0.0328  0.0466 -0.0723
29567W        W46041  15.064  11.560  14.307  0.1535 -0.0376 -0.2702
29568W        W46042  17.639  18.069  10.697  0.0127  0.1468  0.0634
29569W        W46043   2.212   9.848   3.705  0.0147  0.0334 -0.0993
29570W        W46044   0.665   1.196   2.813  0.2112 -0.1468  0.1590
29571W        W46045   4.498  13.061  14.275 -0.0581 -0.0302 -0.0639
29572W        W46046   6.683   5.136  13.582 -0.0584 -0.0447  0.0745
29573W        W46047  15.286  12.798   0.688  0.2078  0.1777  0.1383
29574W        W46048  18.711  18.753   3.990 -0.0963 -0.4681 -0.2556
29575W        W46049  11.163   3.657   2.575 -0.0774  0.1319  0.2043
29576W        W46050   0.836   2.937  10.817 -0.0259  0.1763 -0.1644
29577W        W46051  17.822   6.393   1.443 -0.2079 -0.0026  0.0744
29578W        W46052  14.621  12.219  15.126 -0.1690 -0.1933 -0.0789
29579W        W46053   8.555   6.234  11.004  0.3160  0.2202 -0.2054
29580W        W46054   4.287   7.735   3.309 -0.1728  0.0131  0.0699
29581W        W46055  12.035   9.769   1.193 -0.0084 -0.1160 -0.1001
29582W        W46056   4.410  15.272  11.412  0.3454  0.1282 -0.0136
29583W        W46057  13.283   4.807   4.722 -0.0985  0.3948  0.1500
29584W        W46058   9.289  14.096   0.159  0.0089  0.3049 -0.0141
29585W        W46059  11.445   6.507   0.117 -0.1499  0.6590  0.1862
29586W        W46060  18.150  17.877  13.034 -0.1772  0.2042 -0.0956
29587W        W46061   3.285  16.905  13.603 -0.3373 -0.0453  0.1284
29588W        W46062   1.971   0.841  12.219  0.0703  0.1626 -0.0648
29589W        W46063   7.223  12.351  14.087  0.1525 -0.2088 -0.1044
29590W        W46064   6.249   7.811   1.755  0.1614 -0.1013 -0.0065
29591W        W46065   5.872  18.218  14.379  0.1938 -0.1793  0.1236
29592W        W46066   3.990  16.272   0.615  0.3298 -0.0541 -0.0783
29593W        W46067  12.716  12.668   0.927 -0.2994 -0.1023 -0.1444
29594W        W46068  13.720  16.214  13.966  0.1777 -0.0927 -0.1726
29595W        W46069  15.526   3.832   2.750  0.0136 -0.1679 -0.2894
29596W        W46070  10.256  16.639   0.286 -0.1650 -0.1945 -0.1655
29597W        W46071   3.940   3.392   5.284  0.4422 -0.2553 -0.0657
29598W        W46072   6.536  10.849  12.031 -0.0255  0.1820 -0.1360
29599W        W46073  18.090  18.758  13.377  0.3971  0.0951  0.0077
29600W        W46074   2.154  12.832  11.276  0.7154 -0.0285  0.1725
29601W        W46075   6.982  10.161  14.668 -0.2774 -0.4109  0.0762
29602W        W46076  12.359  16.256   2.313  0.1290  0.0777 -0.1900
29603W        W46077  18.279   8.937   3.949 -0.2487 -0.1069  0.1352
29604W        W46078   3.661   0.685  13.888  0.2842 -0.1591  0.1139
29605W        W46079   6.223  14.603   0.923  0.0213  0.2319  0.0128
29606W        W46080  12.536  11.483   1.849  0.0286 -0.1810 -0.2009
29607W        W46081   9.337   0.853   4.456 -0.2640  0.0201  0.2365
29608W        W46082   8.974  17.944  11.237  0.1521  0.1100  0.0915
29609W        W46083   5.363  16.560   1.441  0.3702 -0.0931 -0.1748
29610W        W46084  17.109  15.709  15.381  0.1580 -0.0373  0.0205
29611W        W46085   8.663   3.835   0.531 -0.2882  0.0389 -0.1125
29612W        W46086  13.666   6.969  10.782  0.0539  0.3585 -0.0508
29613W        W46087   3.745   8.566   1.811 -0.1492  0.0279 -0.2419
29614W        W46088  14.429  13.238   2.549 -0.1508  0.0540 -0.0589
29615W        W46089  10.831   7.935   3.610 -0.2943  0.0371  0.3831
29616W        W46090  12.879  10.486  12.581  0.0903 -0.3833 -0.0819
29617W        W46091  18.707  10.797   5.448  0.2242 -0.0917  0.0252
29618W        W46092   7.583   2.236   4.059  0.0307 -0.0715  0.0095
29619W        W46093   2.656  16.819   0.902 -0.1029  0.1488  0.0494
29620W        W46094  18.705  16.785   2.024 -0.2592 -0.1012 -0.0157
29621W        W46095  17.275   1.225  12.422 -0.1222  0.0695  0.2139
29622W        W46096  16.016  11.753   3.062  0.0003  0.1990 -0.0862
29623W        W46097   2.756   2.427  14.575  0.2346 -0.3215 -0.2703
29624W        W46098   3.447   2.702   0.451  0.2900  0.2579  0.3160
29625W        W46099  17.753   7.903  15.358 -0.4114  0.1944  0.2664
29626W        W46100   9.997  14.870   1.948 -0.0141 -0.3911  0.3313
29627W        W46101   5.648   5.500   0.106 -0.3439 -0.3072  0.0619
29628W        W46102  11.878   9.551   0.016 -0.0988 -0.3120 -0.1934
29629W        W46103   3.855   2.172   1.364 -0.1388 -0.0755  0.0241
29630W        W46104  16.190   1.520   5.311  0.1267 -0.3347  0.1766
29631W        W46105   1.935   0.939   2.684 -0.0728  0.0377  0.1271
29632W        W46106  14.930  11.015  11.485  0.0264  0.2274  0.4424
29633W        W46107  11.965  15.133  15.021 -0.0203 -0.1269 -0.0165
29634W        W46108   3.268  16.575   9.818 -0.1875  0.1561  0.2489
29635W        W46109  10.264  14.074   2.050  0.0939 -0.0920  0.0522
29636W        W46110   2.636  15.558  10.860 -0.1062  0.0713 -0.3039
29637W        W46111   7.838   1.580  12.724  0.1396 -0.1286 -0.1110
29638W        W46112  10.517   9.568   1.967 -0.0350  0.2147  0.0959
29639W        W46113   9.595  17.885  13.670  0.1189  0.1303 -0.1010
29640W        W46114   4.362   9.616   1.522 -0.1017  0.1286  0.1777
29641W        W46115   5.862  11.882  11.929  0.0470 -0.0363 -0.2655
29642W        W46116  16.018   1.731   4.611 -0.3399  0.1344 -0.3255
29643W        W46117   4.533   8.343   4.570  0.5051  0.0311 -0.0923
29644W        W46118  10.336   8.785   3.965  0.1561  0.0201 -0.0954
29645W        W46119   6.435  14.822  13.392  0.1385 -0.0669 -0.2208
29646W        W46120   1.187  11.218   1.194 -0.2625 -0.1213  0.2007
29647W        W46121   9.263  11.280   4.929 -0.2758  0.1573  0.0005
29648W        W46122  11.084  18.523  10.267  0.2619  0.0114 -0.2683
29649W        W46123   8.378   3.253  12.178  0.1476  0.3334 -0.3711
29650W        W46124  12.820  11.973   5.743  0.1835 -0.0506  0.1379
29651W        W46125   2.049   0.125  11.025 -0.2815  0.0866  0.1055
29652W        W46126   8.047  18.591  10.694  0.0526  0.0348  0.4478
29653W        W46127   0.119  13.922  14.321 -0.0062  0.1312 -0.0342
29654W        W46128   9.664  15.892   1.668 -0.3222 -0.1914 -0.0164
29655W        W46129   0.633   4.654   0.978 -0.0496  0.2889  0.2204
29656W        W46130   8.865   6.895   2.903 -0.0525 -0.0105  0.1490
29657W        W46131   0.773   1.171   5.101 -0.2564  0.0430 -0.0309
29658W        W46132  18.406  14.153   2.435 -0.1521  0.0736  0.0659
29659W        W46133   5.869  18.436   2.355  0.1723  0.0383  0.0945
29660W        W46134  10.034   3.409   0.187  0.2964 -0.2464 -0.0449
29661W        W46135   7.525   5.834   9.998 -0.3662 -0.0311 -0.1672
29662W        W46136   8.036  15.696  13.720 -0.0312 -0.1377  0.0194
29663W        W46137  16.623   0.633  14.410 -0.5247  0.1762 -0.2297
29664W        W46138  14.429  17.549   0.045 -0.2117  0.0275 -0.1374
29665W        W46139   3.903   3.796   1.880  0.1234  0.1750 -0.0988
29666W        W46140   0.190   1.630  11.826  0.0638  0.1534  0.2364
29667W        W46141   6.736   0.748  13.158 -0.2566  0.3417  0.1638
29668W        W46142   8.046  14.699   5.230 -0.0973  0.1309 -0.1277
29669W        W46143  10.051   8.531  12.903  0.0096 -0.2415 -0.0487
29670W        W46144   1.947  10.742   4.766  0.1759 -0.1407  0.1347
29671W        W46145  16.180  15.557   4.040  0.3043  0.0610  0.0843
29672W        W46146  17.101   7.653   1.724 -0.1876 -0.0719 -0.2042
29673W        W46147   6.018   0.635   9.816 -0.3214 -0.0025  0.1220
29674W        W46148  14.151  16.705   2.786 -0.2439 -0.3201  0.2718
29675W        W46149  12.894   6.690  12.355  0.0037 -0.0596  0.0689
29676W        W46150  18.144  11.232   3.289  0.0790 -0.0415 -0.1175
29677W        W46151   2.945   6.186   1.224 -0.1443  0.1461  0.4092
29678W        W46152   8.537   5.791   4.861  0.2210 -0.1671  0.2462
29679W        W46153   6.762   2.696  13.303 -0.2610 -0.0712 -0.1120
29680W        W46154  10.683   1.236  14.849  0.1400 -0.2542 -0.0737
29681W        W46155   2.708   7.311   5.286 -0.2454 -0.0021  0.0413
29682W        W46156  13.935  17.570  11.712  0.4696 -0.1639 -0.0540
29683W        W46157  15.559   5.337  13.042 -0.2253 -0.1486  0.1348
29684W        W46158  10.684  16.632  12.432 -0.4866  0.1137  0.2198
29685W        W46159   8.791   3.837   1.508  0.0491  0.2308 -0.2126
29686W        W46160  10.895   1.102   2.271  0.1077 -0.0397 -0.0281
29687W        W46161  15.072  14.446   1.145 -0.1301 -0.1085 -0.1857
29688W        W46162  15.119   9.475   1.043  0.2142 -0.0218  0.0935
29689W        W46163  11.964  16.705  12.552  0.2213 -0.1162 -0.3316
29690W        W46164   4.612  11.293  15.152  0.1468 -0.1499  0.0174
29691W        W46165  12.483  17.556  11.311 -0.0641 -0.2630 -0.0612
29692W        W46166  16.866   7.487  10.944 -0.1773  0.4599 -0.1189
29693W        W46167  13.860  18.091  11.130 -0.1165 -0.4533  0.0604
29694W        W46168  13.697  10.213  13.487  0.0020 -0.0310  0.2316
29695W        W46169   8.666   4.739  13.890 -0.1307 -0.2382  0.0047
29696W        W46170   4.980   8.334   2.364  0.3505  0.3511  0.1801
29697W        W46171  11.980  13.511   2.822 -0.2358 -0.0102  0.0373
29698W        W46172   6.118   8.854   1.553  0.0483  0.0209  0.0123
29699W        W46173   7.132  14.119   3.009  0.3019 -0.1038 -0.0765
29700W        W46174   2.008   0.765  15.444 -0.0896  0.0450  0.0431
29701W        W46175  15.871   7.297   4.400 -0.1097  0.1847 -0.0822
29702W        W46176   2.450   8.501  11.235 -0.0126  0.0472  0.2068
29703W        W46177   6.299  18.770   4.002 -0.3862 -0.3162 -0.0574
29704W        W46178   6.490   8.639   1.860  0.1269 -0.0273 -0.0577
29705W        W46179   6.583  16.206  14.492 -0.0529  0.2467 -0.2757
29706W        W46180   6.035  10.633   1.837 -0.2905 -0.1453 -0.0922
29707W        W46181  18.176  17.940   3.979  0.2418  0.1998 -0.1155
29708W        W46182  16.921   3.124  12.680 -0.1983  0.1045 -0.3182
29709W        W46183   4.201  10.059   1.429  0.0592  0.1860  0.0407
29710W        W46184   4.275   6.760  13.680  0.3296  0.0757 -0.0821
29711W        W46185  16.930   7.966   2.500  0.2311 -0.0054  0.0562
29712W        W46186   8.964  10.655   3.840  0.2379 -0.1041 -0.0163
29713W        W46187  16.020  18.429   5.138 -0.2103  0.1527  0.0533
29714W        W46188  12.993  14.796   5.372 -0.0271  0.0363  0.0823
29715W        W46189  17.960  10.575   2.059  0.0792 -0.1964  0.0191
29716W        W46190   6.997  17.856   2.680  0.1572  0.0114  0.2148
29717W        W46191   7.023  14.129  13.108 -0.2509 -0.3217 -0.0318
29718W        W46192  12.097  11.883  13.631 -0.1559  0.0767  0.0331
29719W        W46193   2.539  13.086   0.809 -0.2621 -0.2563  0.2731
29720W        W46194   1.466   9.250  13.178  0.1290  0.1327  0.0722
29721W        W46195  11.026   6.606   2.340  0.0121 -0.1450  0.1506
29722W        W46196  15.312  15.398   1.451 -0.0541 -0.0543 -0.0640
29723W        W46197   4.320   9.999  10.591 -0.2053 -0.2798  0.3079
29724W        W46198   0.857   9.285   5.763 -0.1121 -0.2237 -0.0563
29725W        W46199  17.387   2.213   4.983  0.0938  0.2720 -0.2090
29726W        W46200  17.856  16.751  13.169  0.0241  0.1988 -0.1064
29727W        W46201   3.553   0.026  10.649  0.0418 -0.2816 -0.0420
29728W        W46202   5.480   0.708   4.846 -0.3031  0.1280  0.0545
29729W        W46203   2.148  18.172   3.220 -0.4620 -0.1253  0.0650
29730W        W46204  12.006  18.607   0.639 -0.2092 -0.1621 -0.0090
29731W        W46205   6.130  10.828  14.392  0.5986  0.2292  0.4306
29732W        W46206  15.642   3.853   1.297 -0.1905 -0.1405  0.1128
29733W        W46207  10.881   1.241   1.371 -0.2573  0.2750 -0.0921
29734W        W46208  10.655   6.965   4.674 -0.1075  0.0956  0.0393
29735W        W46209  14.802   0.330  13.814 -0.1401 -0.0871 -0.0254
29736W        W46210  12.586   4.435   2.000  0.1138  0.0886 -0.0283
29737W        W46211   3.468   6.683  12.622 -0.0968  0.1232 -0.2174
29738W        W46212  14.070  14.045   2.083  0.2839 -0.1355  0.3550
29739W        W46213  11.798   9.428  11.111 -0.2328  0.1984  0.2536
29740W        W46214   2.647   8.310  14.098  0.1395 -0.0547 -0.0326
29741W        W46215  15.597  17.674   2.181  0.3421 -0.0566 -0.1949
29742W        W46216  11.805   1.041  13.887 -0.3254 -0.4019 -0.1550
29743W        W46217   3.899   0.385   1.078 -0.0746 -0.1105 -0.1839
29744W        W46218   2.696  11.022  13.273 -0.0145  0.0688  0.1148
29745W        W46219  12.387   8.833   2.504 -0.0485  0.0057  0.0927
29746W        W46220  14.964   8.352  12.736  0.1759  0.0575 -0.2235
29747W        W46221   5.858  10.144  10.941  0.1599  0.2465 -0.3211
29748W        W46222   5.827   6.048   2.820  0.0641 -0.1618  0.1580
29749W        W46223   1.286  18.417   4.346  0.2056 -0.1367 -0.0483
29750W        W46224  14.557   1.462  11.562  0.3073  0.0424  0.1957
29751W        W46225  16.917   9.169  11.545  0.2860 -0.2121  0.1312
29752W        W46226  15.286   3.578  11.388  0.1483 -0.0397 -0.0177
29753W        W46227   4.570   8.801   2.452 -0.1805  0.2063 -0.0252
29754W        W46228  13.443  10.060   5.165 -0.0253 -0.0131 -0.2057
29755W        W46229  13.551  15.658  15.189 -0.0546 -0.0985  0.0260
29756W        W46230  13.961  17.175   5.159 -0.1733  0.0043 -0.0341
29757W        W46231   4.862   2.382  11.139  0.1143 -0.1600  0.0268
29758W        W46232  12.580   5.333  14.658  0.0079 -0.2036 -0.1145
29759W        W46233  15.363   1.749  14.124  0.3082  0.2237 -0.0990
29760W        W46234  15.913  14.885  12.109  0.0897 -0.1104  0.1262
29761W        W46235   0.805   2.055   1.959  0.0041  0.1205  0.2545
29762W        W46236  15.031  18.603   3.974 -0.1052 -0.1513 -0.1115
29763W        W46237  15.083   0.698   0.701 -0.2006 -0.1736 -0.0589
29764W        W46238  15.559   8.895  11.441 -0.0261 -0.3415 -0.1028
29765W        W46239  18.515  10.327  11.940 -0.0558 -0.0624  0.1157
29766W        W46240   5.156  13.994  13.554  0.1412 -0.0738 -0.2571
29767W        W46241  16.197   9.694  11.189  0.1609  0.0383 -0.0443
29768W        W46242  11.319  11.490  14.795 -0.1362  0.3573  0.0465
29769W        W46243   6.877   1.777  13.109  0.0486 -0.3567  0.1406
29770W        W46244   6.248  16.368   2.679  0.1388  0.3593 -0.0678
29771W        W46245   5.268  16.878  15.275  0.0052  0.0967 -0.2197
29772W        W46246  13.262   6.556  12.793  0.3012  0.1579  0.0601
29773W        W46247   1.117   3.999  13.575  0.0192 -0.0445  0.5183
29774W        W46248  13.615   5.087   3.859  0.0114 -0.0022 -0.0058
29775W        W46249   5.538   4.771   2.839 -0.1564 -0.2711 -0.4551
29776W        W46250  15.323  12.251   2.069  0.2437 -0.1012 -0.0960
29777W        W46251  10.062   1.720  15.111  0.3501  0.0021  0.1350
29778W        W46252   7.394  14.184  13.411 -0.4823  0.0015 -0.2335
29779W        W46253   7.623   6.652   0.517  0.2246  0.0424  0.2430
29780W        W46254  14.787   6.797  12.005  0.1635 -0.2634  0.1822
29781W        W46255  17.883   7.239  10.809  0.0732  0.3813  0.3842
29782W        W46256   0.307  13.133   1.475 -0.1533  0.2532 -0.2524
29783W        W46257   5.898   0.362  11.610  0.0871  0.0249  0.1433
29784W        W46258   9.231   4.151   4.538 -0.2731  0.0678 -0.1057
29785W        W46259  10.770  16.877   5.949  0.1369 -0.0118 -0.0508
29786W        W46260  13.541  13.288   0.665  0.1113  0.0373 -0.0134
29787W        W46261  13.716   0.031   4.239  0.0640 -0.1169  0.0293
29788W        W46262   0.615  18.000   4.275  0.0420  0.0621  0.0587
29789W        W46263   1.191  12.911  11.616 -0.1704  0.0847 -0.0528
29790W        W46264   0.791   1.646  13.521  0.3934 -0.0109  0.1719
29791W        W46265  17.408  17.189  14.682  0.3328 -0.0421  0.1051
29792W        W46266  11.077   0.246  11.941 -0.0285 -0.0863  0.1963
29793W        W46267   8.151   0.297   3.168 -0.0650 -0.0791 -0.0631
29794W        W46268   4.050  10.877   3.230  0.2076 -0.2022  0.3086
29795W        W46269  14.257   6.947   3.498  0.1162 -0.0332  0.0282
29796W        W46270   3.493  16.708   2.092 -0.1151 -0.0181 -0.0925
29797W        W46271  18.458   2.975   1.898  0.0568 -0.1600 -0.0528
29798W        W46272  14.545   3.247   0.666 -0.1705  0.3006  0.1801
29799W        W46273   6.938  17.066   3.844 -0.3533 -0.0026  0.2477
29800W        W46274  13.948   7.966   3.772 -0.2681 -0.0140  0.1212
29801W        W46275  10.451   3.956   3.497  0.1883  0.0132  0.0038
29802W        W46276   7.336   1.846  11.513  0.0208 -0.3140  0.0339
29803W        W46277   5.695   2.590  11.840 -0.1637 -0.2082 -0.2457
29804W        W46278   7.332   6.139  15.379  0.4447  0.1031 -0.0391
29805W        W46279  12.395  11.095  14.169 -0.0142 -0.2834  0.0624
29806W        W46280   8.336  18.360   1.606  0.0242  0.1396 -0.1188
29807W        W46281  11.221   7.011  13.994  0.1329 -0.1518  0.0346
29808W        W46282  13.577   8.153   1.920 -0.0907  0.0939 -0.0084
29809W        W46283  16.556   0.015   3.407  0.4692  0.0580  0.0906
29810W        W46284  13.708  13.763  15.003  0.0021  0.0531  0.0004
29811W        W46285  15.517   1.861   4.229  0.2449 -0.1261 -0.2483
29812W        W46286  12.357  13.737   2.391 -0.1481  0.0638  0.0407
29813W        W46287  12.570   9.125  14.889 -0.1275  0.1978 -0.0052
29814W        W46288   7.811   0.233   2.820 -0.2951  0.0141 -0.2432
29815W        W46289   1.098   8.243   3.664 -0.0739 -0.2532  0.1613
29816W        W46290  15.776  14.672  14.044 -0.2935  0.2937 -0.2474
29817W        W46291  15.042  17.374  12.982 -0.1846  0.1032 -0.2972
29818W        W46292   2.319   4.234  12.693  0.2460  0.0022  0.0914
29819W        W46293   0.923   0.388  13.963  0.0925 -0.1507 -0.0834
29820W        W46294   4.364  18.684   2.546  0.0952 -0.1589 -0.3387
29821W        W46295  17.033  14.922  14.396 -0.0111  0.0846  0.0413
29822W        W46296   4.642   1.704   0.999 -0.0892  0.0877  0.3011
29823W        W46297   5.572   8.970  12.860  0.1380 -0.0937  0.1670
29824W        W46298   0.578  15.622  15.025 -0.0561 -0.3149  0.0294
29825W        W46299  17.319   1.725  12.296  0.2933  0.2854  0.3156
29826W        W46300  10.261   3.931  14.284 -0.0932 -0.0749  0.0225
29827W        W46301   6.354   3.900  10.870 -0.1957 -0.0368 -0.2990
29828W        W46302   1.835  15.910   4.290  0.1557 -0.4061  0.1472
29829W        W46303   1.737   5.907  15.304  0.0748  0.4771 -0.0376
29830W        W46304   4.488  15.621   3.945  0.0814 -0.1018  0.1586
29831W        W46305  16.057   0.786  13.863 -0.0339 -0.0522  0.2167
29832W        W46306   0.191   6.026   1.916  0.1025  0.1058 -0.0507
29833W        W46307   8.729   3.866  11.441 -0.2346  0.0515 -0.0654
29834W        W46308  11.272   7.588  14.064 -0.0790 -0.2998  0.2507
29835W        W46309  14.516  15.979  14.574  0.1444  0.1076 -0.1424
29836W        W46310   8.049  10.056   2.025 -0.0498 -0.0347  0.2963
29837W        W46311  13.713   5.312  13.268  0.2014  0.2355 -0.0914
29838W        W46312  13.258  18.519  12.872 -0.0889  0.1302 -0.3130
29839W        W46313   3.219  15.131  10.731  0.1782  0.1108  0.2071
29840W        W46314  13.288   5.912  10.897  0.2554  0.0764  0.2682
29841W        W46315  13.789  10.946   3.520 -0.2350 -0.2497  0.0931
29842W        W46316   5.666   0.116   1.072 -0.1180 -0.3105 -0.0915
29843W        W46317  13.283  16.329   2.874 -0.1525 -0.3005  0.1624
29844W        W46318  11.878  15.600   0.752 -0.3318  0.0614 -0.0299
29845W        W46319  15.095   1.537   2.891 -0.2241  0.0274  0.0367
29846W        W46320  14.613   3.979   4.659 -0.1660  0.3747  0.0062
29847W        W46321  17.076   5.182   2.201 -0.0860  0.2791 -0.2481
29848W        W46322   8.684  15.159   0.138 -0.0212  0.0502  0.0918
29849W        W46323   4.914  15.623   0.419  0.3055  0.1563  0.0974
29850W        W46324  17.413  16.711   4.323 -0.4140 -0.0396 -0.4961
29851W        W46325   1.416   3.940  12.672  0.1223  0.2337 -0.0769
29852W        W46326  13.366  15.109   4.344 -0.1652  0.1993  0.1174
29853W        W46327   0.458  14.175   0.144 -0.1107 -0.0665 -0.2524
29854W        W46328  11.811  16.969   1.090 -0.2867 -0.0076  0.0890
29855W        W46329  16.982  14.903  15.021  0.2583 -0.0156  0.0598
29856W        W46330  16.285  12.930   3.899  0.2321 -0.1871  0.0313
29857W        W46331  17.393   1.813  14.698 -0.2723 -0.1638  0.0581
29858W        W46332  11.163  17.108   0.438  0.2062  0.3700 -0.0136
29859W        W46333  11.087   9.483  11.538 -0.3221  0.1089 -0.2162
29860W        W46334  10.937  16.504  13.258 -0.3025 -0.1113 -0.2115
29861W        W46335  13.400   0.214   3.628 -0.1448 -0.1290 -0.0826
29862W        W46336   4.617  10.806   1.509 -0.1009  0.1258  0.0608
29863W        W46337  14.169   4.278  12.780 -0.2563  0.1417 -0.2842
29864W        W46338  13.773   4.699  14.404 -0.0946 -0.1369 -0.3055
29865W        W46339  16.376   7.355   3.001  0.2822  0.2065  0.0803
29866W        W46340  13.144   0.154   0.729 -0.0986  0.5088  0.1251
29867W        W46341  16.212   7.335  11.468  0.0134 -0.4089  0.0104
29868W        W46342   6.862  12.976  10.979  0.1113 -0.1934 -0.0891
29869W        W46343   4.736  17.300   0.746  0.1644 -0.1602  0.1590
29870W        W46344  10.926   8.219   2.520  0.0244 -0.4214  0.0667
29871W        W46345  10.262   5.138  13.922 -0.2154  0.1263 -0.0791
29872W        W46346  13.912   5.633   4.566 -0.2683 -0.2454 -0.1749
29873W        W46347   6.153   8.937   0.229  0.1047 -0.1316 -0.1359
29874W        W46348   2.042   9.558   4.084 -0.0424 -0.4458 -0.2784
29875W        W46349   3.068   8.853  14.320  0.0110 -0.0564  0.0677
29876W        W46350   4.857   5.755   3.834 -0.0118  0.0523  0.1062
29877W        W46351   0.696  11.468  14.144 -0.0692 -0.3801  0.3464
29878W        W46352   9.619   5.287   1.118  0.3421 -0.0946 -0.5036
29879W        W46353  13.530   9.001   2.233 -0.1771 -0.0878 -0.3582
29880W        W46354   4.812  12.983  13.684  0.3601 -0.0782 -0.1603
29881W        W46355  17.123  17.352  13.958  0.3201  0.1685 -0.1303
29882W        W46356   1.348  14.069   1.800 -0.0221 -0.1419 -0.0664
29883W        W46357   0.357   5.888  11.370 -0.1555  0.2711 -0.0713
29884W        W46358   1.338   5.502  11.090 -0.0092 -0.0177  0.0572
29885W        W46359  15.361  11.900   0.804 -0.0264  0.0492  0.2288
29886W        W46360  16.472  13.076   4.672 -0.0360 -0.2544 -0.1438
29887W        W46361   3.533   4.156   1.737 -0.1238  0.1094  0.1461
29888W        W46362  17.058   1.298   5.111  0.1362 -0.2274 -0.0257
29889W        W46363  12.892  14.958   1.283 -0.2546  0.1400  0.1048
29890W        W46364   1.237   6.977   4.419  0.1724  0.2212 -0.0018
29891W        W46365   1.882   0.507  12.643  0.2532  0.0691  0.0764
29892W        W46366   1.448  15.916  12.603 -0.0543  0.0797 -0.1734
29893W        W46367  17.997   8.030   5.025 -0.0085 -0.0098  0.3337
29894W        W46368  17.166  10.763   1.585 -0.0656 -0.1231  0.1499
29895W        W46369   1.935   7.797  11.030  0.0464 -0.4743 -0.0055
29896W        W46370  17.494  12.144   1.462 -0.1717  0.0868  0.3322
29897W        W46371  12.572   5.103  12.864  0.0394 -0.0515  0.2329
29898W        W46372  11.494   2.089  12.777 -0.1617  0.0198  0.0537
29899W        W46373   1.857   0.318   4.089 -0.0755  0.2050  0.1336
29900W        W46374   6.050  17.485  10.768 -0.2842  0.1292  0.2813
29901W        W46375  15.727  11.158  12.456 -0.0672 -0.3977  0.0258
29902W        W46376  18.460  17.542  10.413  0.0826 -0.2395  0.1686
29903W        W46377   2.135  14.994   2.151 -0.0409 -0.2123  0.0737
29904W        W46378  10.785  10.703  14.881 -0.0523  0.0290  0.0474
29905W        W46379  13.163   7.408  13.588  0.1812 -0.2787 -0.0963
29906W        W46380  11.120   1.021   1.834  0.1042  0.1912 -0.2054
29907W        W46381  11.813  17.297  12.062  0.1297 -0.0079  0.1669
29908W        W46382   9.432  10.853   1.536 -0.1193 -0.0510 -0.0495
29909W        W46383  18.065  12.291   4.412 -0.0797 -0.1084  0.1405
29910W        W46384   4.893   5.159  13.137  0.1166  0.1234  0.0445
29911W        W46385  11.766  12.168   0.956  0.0155 -0.0095  0.5879
29912W        W46386  12.640  14.342  14.321  0.1187 -0.2338 -0.1044
29913W        W46387  15.876  11.004   4.517  0.2910  0.0756  0.3969
29914W        W46388   6.204  10.076   3.305  0.2400 -0.2683  0.1317
29915W        W46389  10.590   8.223  15.253  0.1961 -0.0468 -0.1868
29916W        W46390   9.755   7.652   4.178 -0.0213  0.2089 -0.0853
29917W        W46391  10.353   3.038   0.517  0.0283  0.2968 -0.0536
29918W        W46392  13.741   2.932  10.186 -0.0642  0.1322 -0.3116
29919W        W46393   0.551   2.087  13.703 -0.0607 -0.0544 -0.1885
29920W        W46394  11.299   6.194   4.888 -0.0656 -0.1907  0.1023
29921W        W46395   8.811   1.216  11.107 -0.2534  0.0928  0.0328
29922W        W46396  11.630   6.863   2.209 -0.1309 -0.4478  0.0976
29923W        W46397   3.539  12.913   4.918  0.1112  0.0479  0.1519
29924W        W46398  12.019   0.072  11.733 -0.1645 -0.0989 -0.2359
29925W        W46399  17.666  15.057   4.484  0.0108  0.0809 -0.1485
29926W        W46400  13.941  17.949  14.962 -0.2481 -0.0177  0.0290
29927W        W46401  16.333   1.660  14.292  0.0229 -0.2710  0.4376
29928W        W46402   9.645  14.091   5.657  0.0732  0.1103 -0.1423
29929W        W46403   5.703   6.061   0.800 -0.0981  0.0059  0.0812
29930W        W46404   3.286  13.291   1.649 -0.0610  0.2416  0.5089
29931W        W46405  15.219   0.161   0.118  0.0480  0.2725  0.1690
29932W        W46406   1.116  15.004   5.338  0.1950 -0.3341  0.0802
29933W        W46407   8.705   5.101  11.626 -0.0700 -0.2966 -0.1388
29934W        W46408   4.354  13.557  12.874 -0.0258  0.1680  0.2676
29935W        W46409  17.391  10.559  12.128 -0.1938  0.2214 -0.1600
29936W        W46410   0.129  15.795  10.775 -0.2287  0.0774 -0.1926
29937W        W46411   5.175  17.077   2.249  0.1158 -0.3337 -0.2061
29938W        W46412   8.405  10.686   3.906 -0.1930 -0.0348  0.1593
29939W        W46413   7.021  12.986   5.085 -0.2093  0.2237 -0.0962
29940W        W46414   0.334  15.653  10.293  0.3010  0.0974 -0.1305
29941W        W46415  14.430  12.898  12.655 -0.1354 -0.1593  0.2014
29942W        W46416   6.938   8.944  11.426  0.2498 -0.0684  0.1238
29943W        W46417  10.513  13.550  12.253  0.1853 -0.3527  0.0109
29944W        W46418   1.074   7.482   0.122 -0.0481  0.0452 -0.2062
29945W        W46419   5.167  18.706  14.760  0.2098 -0.1841 -0.2790
29946W        W46420   7.806  14.425   2.561 -0.1998 -0.3569 -0.1185
29947W        W46421  15.460   5.385   0.541 -0.2172  0.0291 -0.0691
29948W        W46422  11.254  17.186  13.797  0.3831  0.2384  0.3364
29949W        W46423  14.837   0.497   1.083  0.0757 -0.1376 -0.1077
29950W        W46424   2.755  11.401  12.435  0.1107  0.0394 -0.1782
29951W        W46425  15.882   3.668   0.244 -0.0786 -0.0062  0.0466
29952W        W46426   8.292   9.691  14.656  0.0302  0.0553 -0.0246
29953W        W46427  10.828   0.975  15.314 -0.1077 -0.0855  0.2095
29954W        W46428   0.147  12.722   4.338 -0.1053 -0.2992  0.0482
29955W        W46429  17.711  13.459  12.527 -0.0521 -0.3431  0.0897
29956W        W46430   0.972  15.289   0.772  0.0859  0.1048 -0.0986
29957W        W46431  13.812  13.901   1.395 -0.3257 -0.1277  0.2127
29958W        W46432  16.944  15.603  12.854 -0.3190  0.0786 -0.1372
29959W        W46433  11.069  12.962   1.510  0.1078  0.0602  0.0330
29960W        W46434  14.357   0.124   2.036  0.1109 -0.2040 -0.0633
29961W        W46435  10.751  11.088   3.633  0.0860  0.1227 -0.4036
29962W        W46436  15.800   0.366   1.601 -0.1075 -0.0746  0.1031
29963W        W46437  16.962   2.791  13.654 -0.1520  0.0820  0.3183
29964W        W46438   4.211  12.508   2.333 -0.0966 -0.2109 -0.1506
29965W        W46439   9.084   9.769  12.744 -0.3484 -0.1295 -0.0872
29966W        W46440  14.798   5.489   4.893  0.0420 -0.3772 -0.0809
29967W        W46441   0.123   7.064   0.737 -0.0892  0.1023  0.2578
29968W        W46442  11.988   1.964   0.873 -0.0081  0.0191 -0.0244
29969W        W46443  13.596  12.432  14.204  0.3260 -0.0150  0.0163
29970W        W46444  10.985   3.407  12.667  0.3613 -0.1535  0.0466
29971W        W46445   1.970   1.740   3.873  0.0357 -0.0403 -0.2412
29972W        W46446  10.548  12.024   3.229 -0.0389 -0.3438 -0.0465
29973W        W46447   1.131   9.593  12.174  0.0548  0.0220 -0.0542
29974W        W46448   3.782  17.995  15.170  0.1106  0.0943 -0.0454
29975W        W46449   6.336   0.624  11.574  0.0077  0.2738 -0.0399
29976W        W46450  16.797   6.933  14.102 -0.0691 -0.0788 -0.2701
29977W        W46451   6.475   3.116  12.042 -0.1644  0.3351 -0.1183
29978W        W46452   8.787  16.801   3.545  0.0985  0.2179 -0.2392
29979W        W46453   1.930  14.525   2.908  0.1186 -0.1399  0.1879
29980W        W46454  12.458  15.539  12.606  0.3213  0.2657  0.0974
29981W        W46455  17.534   0.462   2.386 -0.0501 -0.3448  0.3178
29982W        W46456  12.102  16.121   0.233 -0.1147  0.3399  0.0255
29983W        W46457  12.309  18.153   4.118 -0.2517 -0.0506  0.0704
29984W        W46458   2.998  15.428   5.465  0.1480 -0.0920 -0.0819
29985W        W46459   7.910   8.572   3.810 -0.0684  0.0063  0.0193
29986W        W46460   6.166   6.113   2.278  0.1208 -0.2479 -0.2567
29987W        W46461  16.060  11.126   2.369  0.0314  0.0247  0.2303
29988W        W46462  16.872  10.232   3.300 -0.0717 -0.0032  0.3446
29989W        W46463  10.186   5.211   0.393  0.0810 -0.0305  0.1845
29990W        W46464  17.981  10.783  14.809 -0.2368  0.1100 -0.1652
29991W        W46465  11.127   3.125   0.112 -0.0065  0.0197 -0.0187
29992W        W46466   6.340  11.826  14.053 -0.0062 -0.4282  0.0312
29993W        W46467   2.419   5.639  12.529  0.1107 -0.1905 -0.1418
29994W        W46468  10.404  16.466   3.637 -0.1177  0.3755 -0.0764
29995W        W46469   3.751   7.672   4.398 -0.2586  0.0529 -0.1846
29996W        W46470  15.015  16.809   0.861  0.2501 -0.0346 -0.0679
29997W        W46471   9.299   3.946  13.884 -0.3072 -0.0520  0.0109
29998W        W46472  12.602  16.439   1.044 -0.3333  0.2791  0.0523
29999W        W46473   7.096   8.974   4.443 -0.0531 -0.0362 -0.3652
30000W        W46474   8.871  12.331  14.624  0.0956  0.1121 -0.0421
30001W        W46475  14.277   3.372   1.671  0.0489 -0.1913  0.1791
30002W        W46476   2.619   2.862   4.265  0.1998  0.0057 -0.2758
30003W        W46477  12.369   6.803  15.247  0.2353  0.2032  0.1462
30004W        W46478   8.840   0.958   4.596  0.0767  0.1839 -0.1466
30005W        W46479  11.955  17.423  11.572  0.0261  0.2496 -0.1517
30006W        W46480   3.519   9.803  14.526  0.0722 -0.0611  0.3185
30007W        W46481   9.918   1.048  14.457 -0.0166 -0.0343 -0.1047
30008W        W46482   3.489  12.583  12.800 -0.0204  0.0616  0.0308
30009W        W46483   3.893  15.216  13.015  0.2569  0.0830  0.0381
30010W        W46484   4.610  10.265   1.285 -0.0346 -0.3485  0.0187
30011W        W46485   5.125   5.329  14.160  0.0431  0.4124 -0.1013
30012W        W46486   5.818  10.199  12.730 -0.1410  0.0956  0.0706
30013W        W46487  16.232  10.396   0.362 -0.0550  0.1327  0.3243
30014W        W46488  13.584   2.950  14.566 -0.0009  0.1624  0.0147
30015W        W46489   6.492  17.708  11.525 -0.1302 -0.0426  0.1692
30016W        W46490   0.123   5.661  11.008 -0.3326 -0.1251 -0.1490
30017W        W46491  15.169  12.016   2.900 -0.0091  0.1318  0.0457
30018W        W46492   1.313  10.937  14.760  0.1219 -0.1233 -0.0557
30019W        W46493  15.749   0.484  14.212  0.0144  0.3532 -0.0330
30020W        W46494   2.097  16.274   2.896 -0.0384 -0.3855  0.0164
30021W        W46495  15.889   2.271   3.579  0.0920 -0.1942  0.0546
30022W        W46496  11.255  16.829  11.275 -0.0233  0.0990  0.0799
30023W        W46497   5.544   7.046  13.769  0.0577 -0.2716  0.0734
30024W        W46498   9.934   1.253  15.278  0.0801 -0.0938  0.0126
30025W        W46499   8.626   6.457   1.141 -0.0409 -0.0475  0.1809
30026W        W46500   0.295  12.495   0.146 -0.1961 -0.1561  0.2500
30027W        W46501  17.663  11.742   2.757  0.0029 -0.0050  0.1671
30028W        W46502  15.999   3.743   5.905  0.1232  0.1751 -0.0058
30029W        W46503  13.477  16.732  13.884 -0.1998 -0.1129  0.1347
30030W        W46504   4.033  10.893  13.345  0.0232  0.1083 -0.1260
30031W        W46505  15.596   6.966  14.333  0.1850 -0.0793 -0.1081
30032W        W46506  16.323   0.494   5.851 -0.1892  0.2313 -0.2705
30033W        W46507   8.078   3.221  11.711  0.0220  0.0136  0.3302
30034W        W46508  14.897   1.465   0.081 -0.2071 -0.0391 -0.2987
30035W        W46509   8.767   1.774  11.682  0.0320  0.2033 -0.2347
30036W        W46510   6.723  11.721   2.733 -0.1529 -0.2916  0.2267
30037W        W46511  17.723   2.956  13.712  0.3044 -0.1104 -0.0204
30038W        W46512  10.349  13.417  13.648 -0.1881  0.0200  0.0387
30039W        W46513   0.393   1.836   1.323  0.1145  0.2189  0.0397
30040W        W46514  11.950   4.867  12.284  0.2945 -0.0316 -0.0398
30041W        W46515   1.134  17.383   3.818  0.2013 -0.0394 -0.1596
30042W        W46516  11.991   0.825  15.477 -0.1373 -0.1981  0.0560
30043W        W46517   7.297   1.465  12.927  0.1062  0.1502  0.1097
30044W        W46518  16.238   4.674  11.495  0.0808 -0.0180  0.1966
30045W        W46519  16.625   8.159  11.758  0.0054 -0.0644  0.2947
30046W        W46520   7.448  10.546  12.393 -0.0962 -0.1562  0.2918
30047W        W46521   2.435  16.112   4.957  0.0981  0.3887  0.0193
30048W        W46522   8.459   3.564   4.965 -0.0391  0.0815  0.0151
30049W        W46523  14.720  14.878   2.119  0.0573  0.0908  0.1855
30050W        W46524  15.234  12.927   2.778  0.1824 -0.3957 -0.1384
30051W        W46525   6.292   3.000   5.244  0.2513 -0.0782 -0.3223
30052W        W46526   7.814  11.537   4.046  0.2401  0.0350  0.1954
30053W        W46527  14.656  14.980   0.862 -0.0464  0.0203 -0.2931
30054W        W46528  12.812   0.633  11.862  0.0309 -0.2968  0.0452
30055W        W46529   7.737  18.560   0.411  0.0746 -0.3623  0.0431
30056W        W46530  14.995   7.342   5.079 -0.0838  0.2997 -0.0812
30057W        W46531   2.735  12.914   1.970 -0.0502 -0.1448  0.0808
30058W        W46532   9.617  18.705   0.146  0.0401 -0.1710  0.0349
30059W        W46533  13.769   2.564   0.363  0.3313  0.0559  0.4733
30060W        W46534   8.229  16.352  10.143 -0.4501 -0.0245  0.0418
30061W        W46535   6.749  13.849   0.763  0.0538  0.0244 -0.3747
30062W        W46536  16.067  16.928  11.616  0.2053 -0.0921  0.3333
30063W        W46537   1.244  13.119   4.653  0.2023  0.0177  0.0701
30064W        W46538   3.472   8.773  12.839 -0.3367 -0.0633  0.2007
30065W        W46539  16.273   8.828  14.530 -0.0626 -0.0705 -0.2860
30066W        W46540   6.056   7.147   0.595  0.2864  0.3814 -0.3181
30067W        W46541   6.978   7.805   1.655  0.1050  0.1305  0.1900
30068W        W46542  18.139   5.745  15.212  0.3126  0.2007 -0.2306
30069W        W46543   3.508   6.653  12.091  0.0471  0.0713 -0.0056
30070W        W46544  17.386  14.027  11.643  0.2397 -0.0239 -0.2721
30071W        W46545   1.240   2.572   0.504 -0.2685 -0.0615  0.0472
30072W        W46546  10.925  11.916   0.495  0.1377  0.0675 -0.2309
30073W        W46547  14.411  15.534   4.227 -0.1802  0.0031 -0.0606
30074W        W46548   9.060   9.859  11.399  0.3265 -0.1288 -0.1312
30075W        W46549  16.185  11.270   5.150 -0.0990 -0.1221 -0.0021
30076W        W46550   0.694  12.820   0.150 -0.0561 -0.2971 -0.0866
30077W        W46551  18.695   4.427   1.595 -0.3183  0.1784  0.0087
30078W        W46552   8.435  15.729   0.214 -0.3249  0.0678 -0.0528
30079W        W46553  16.797  13.580  15.386 -0.2838  0.2099  0.1207
30080W        W46554  13.138  16.706   0.509  0.2653 -0.1331  0.3905
30081W        W46555  12.503  12.364   0.573  0.3785  0.1539  0.1528
30082W        W46556   2.696  16.647  11.607 -0.2847  0.1806 -0.0888
30083W        W46557  14.456   3.658   2.835  0.0208  0.0871  0.1075
30084W        W46558  17.606  15.875   0.595  0.0196 -0.0645 -0.1544
30085W        W46559   7.533  18.687   3.123  0.1311 -0.1180  0.1413
30086W        W46560  18.171   6.032   1.332  0.2147 -0.1014  0.0716
30087W        W46561   3.169   3.816  12.448 -0.1994 -0.1250 -0.1380
30088W        W46562  17.104   5.238  14.500 -0.1502 -0.1166  0.1621
30089W        W46563  10.053  10.491   1.136 -0.2832  0.0562  0.0408
30090W        W46564  15.061   1.037  13.356  0.1055  0.2253  0.2142
30091W        W46565  11.411  10.091   2.276  0.1460  0.1500  0.1042
30092W        W46566   6.907   4.299  11.324 -0.1276 -0.1191  0.0520
30093W        W46567   5.604   9.037   0.612 -0.0364  0.1491  0.1963
30094W        W46568  16.861   7.917   0.064 -0.2461 -0.2442 -0.1500
30095W        W46569   3.504   9.328  14.149  0.2126  0.4028 -0.0944
30096W        W46570   2.035  11.922   3.341  0.0137  0.1473 -0.0426
30097W        W46571   2.597   7.299   3.144  0.4884 -0.0212 -0.2767
30098W        W46572  13.295  15.360  14.142  0.1171 -0.1451 -0.0686
30099W        W46573   1.919  17.329  12.559 -0.1831 -0.0755 -0.0739
30100W        W46574   0.673   0.222  10.589 -0.5300 -0.0445 -0.0828
30101W        W46575   8.856   7.111  14.849  0.0504  0.1137  0.0032
30102W        W46576   7.893   6.927  15.556 -0.1370  0.0439 -0.0485
30103W        W46577  15.292  15.394  12.536  0.1660 -0.2462  0.3755
30104W        W46578   5.409  11.919   3.851  0.1481  0.2097  0.2784
30105W        W46579   9.131   4.488  14.460  0.0603  0.1325  0.1302
30106W        W46580   0.993   9.198   0.989  0.0775  0.1026 -0.2716
30107W        W46581   5.658   4.651  12.152 -0.3110 -0.1619 -0.0345
30108W        W46582   4.059   8.470  11.183 -0.1663  0.2211  0.2516
30109W        W46583  15.627   1.471   2.425 -0.0607  0.1390  0.1298
30110W        W46584   9.496   2.164   2.271  0.3543 -0.1249 -0.0929
30111W        W46585  16.636   5.069  13.393 -0.0730 -0.2198 -0.2959
30112W        W46586  11.715   9.199   0.355 -0.0496 -0.0037 -0.2690
30113W        W46587   5.402  11.041  11.023 -0.0168  0.2510  0.4343
30114W        W46588   4.968  13.908  14.041 -0.1001 -0.3491  0.0466
30115W        W46589   5.945   7.992   0.339 -0.0328  0.0505  0.2431
30116W        W46590  11.711   1.859   2.272 -0.1147  0.1423  0.2096
30117W        W46591   5.365  16.293   0.749 -0.0187  0.1205 -0.0770
30118W        W46592   1.271   5.691   0.047 -0.1455 -0.0131 -0.3186
30119W        W46593   8.410   6.257  14.737 -0.0397  0.0429  0.2404
30120W        W46594   2.758  18.150  12.655 -0.2586 -0.0074 -0.0855
30121W        W46595  12.180   7.708   3.669  0.2111  0.1141  0.0824
30122W        W46596  12.371  12.696  14.006  0.0634 -0.2713 -0.1041
30123W        W46597   5.665   5.393  11.484 -0.2276  0.0466  0.2619
30124W        W46598   5.341   6.620   3.864  0.1405 -0.2787  0.1656
30125W        W46599   9.405   7.554  11.623 -0.1526  0.0688  0.1208
30126W        W46600  15.828  12.804   3.418  0.1150  0.0259 -0.2242
30127W        W46601   0.977   2.854   4.779 -0.0058  0.0931  0.1165
30128W        W46602  12.863   3.893  14.949  0.0369  0.2464 -0.0448
30129W        W46603   8.724   3.399  11.279 -0.0215 -0.0418 -0.0476
30130W        W46604   4.018   8.617   0.862  0.0337 -0.0001 -0.0738
30131W        W46605  13.013  12.967  14.964 -0.0157  0.0347  0.1270
30132W        W46606  17.284   3.310  13.357 -0.1661  0.0649 -0.0114
30133W        W46607   6.170  13.141   1.441  0.1597 -0.2065 -0.1451
30134W        W46608  16.523  15.895  14.883 -0.0008  0.0215  0.2418
30135W        W46609   5.852   9.447  13.650  0.0438 -0.3501  0.1517
30136W        W46610   5.907   1.041   2.295  0.3772  0.1138  0.2026
30137W        W46611   3.486  14.251  10.269  0.3058 -0.1273 -0.1577
30138W        W46612  10.464  13.420   3.352 -0.2077 -0.0358  0.3597
30139W        W46613  17.239   0.919  11.242 -0.0981 -0.0255  0.2577
30140W        W46614  14.909   8.618   5.259 -0.2232 -0.0307  0.0351
30141W        W46615   8.986  11.360  11.241  0.1177 -0.1439 -0.2040
30142W        W46616   5.373  13.186   1.973 -0.2368  0.0070 -0.2187
30143W        W46617   6.291   8.347  10.394  0.0306  0.2341 -0.1662
30144W        W46618  13.414  16.057  11.813  0.0625 -0.1531  0.0457
30145W        W46619   6.517   0.711   1.952  0.0457  0.1226  0.1170
30146W        W46620   6.656   2.002  14.410  0.1282  0.1352 -0.1022
30147W        W46621  11.420  13.294   2.923  0.2225  0.0198  0.1671
30148W        W46622   3.446   3.695   1.556 -0.1524 -0.0765 -0.0516
30149W        W46623   5.695   7.442  11.190  0.0616  0.0558  0.0093
30150W        W46624  10.026  11.097  13.395  0.2702 -0.1958 -0.0175
30151W        W46625   3.935  12.033  10.412 -0.3644 -0.0014  0.3716
30152W        W46626   2.249   8.950   3.142  0.1541  0.0170  0.0287
30153W        W46627  17.483   5.833  14.455  0.0273  0.0515 -0.1670
30154W        W46628   7.677   7.552   3.030  0.1688 -0.3408 -0.1026
30155W        W46629  14.498   5.098   0.101  0.0138 -0.2590  0.1430
30156W        W46630  10.669   9.834  11.569 -0.2844 -0.3451  0.3594
30157W        W46631   0.183   0.507   2.172  0.2208  0.2054  0.2911
30158W        W46632  13.054   1.665   1.728 -0.0772  0.3927 -0.4386
30159W        W46633   9.820   4.251   1.693 -0.1081  0.0089 -0.0704
30160W        W46634   3.758   5.914   1.428 -0.2590 -0.2050  0.2204
30161W        W46635   6.625   2.057   1.754  0.2292 -0.2083 -0.0102
30162W        W46636   2.619   7.130   1.169 -0.1945  0.0580  0.0012
30163W        W46637  18.131   8.641  14.046 -0.1122 -0.1522  0.0562
30164W        W46638   7.495   1.005  11.138 -0.0196  0.0187  0.1423
30165W        W46639   9.350  13.934  12.245  0.0751 -0.0434  0.3098
30166W        W46640   1.713   5.784  13.678  0.0130  0.0591 -0.1164
30167W        W46641   1.998   5.507   0.827  0.0050 -0.0003  0.2065
30168W        W46642   6.897  11.311   3.426 -0.1791 -0.2954 -0.0107
30169W        W46643   5.510   3.524   1.976 -0.0102  0.2957 -0.1107
30170W        W46644  12.460  13.568   4.724 -0.0356  0.0155 -0.1273
30171W        W46645  10.381  12.127   0.051 -0.4036 -0.2921 -0.2656
30172W        W46646   0.046   4.407  12.901 -0.1111 -0.2012  0.1144
30173W        W46647  18.292   4.242  10.825 -0.0496  0.2078  0.0937
30174W        W46648   0.994  14.373  14.517 -0.0240  0.0548  0.3339
30175W        W46649  15.512  12.267   1.223 -0.1071 -0.2181  0.2304
30176W        W46650  11.888   7.275   3.742  0.0768 -0.1847  0.2062
30177W        W46651   9.103   8.944   3.302  0.1468  0.0898 -0.0691
30178W        W46652  15.642  17.976   0.105  0.1831 -0.3877 -0.0066
30179W        W46653   0.664  11.548   3.362  0.1817  0.0471  0.0326
30180W        W46654  12.219  15.739   4.629 -0.1052  0.1169 -0.1856
30181W        W46655  13.931   3.369   2.046 -0.0910 -0.2159 -0.0516
30182W        W46656   9.406   4.774   2.499  0.0986  0.1475 -0.1203
30183W        W46657  16.620  13.022  13.145  0.0773  0.0376 -0.0791
30184W        W46658   2.393   7.012   3.480 -0.2454  0.1901 -0.0909
30185W        W46659   7.899   4.706   4.199  0.1374 -0.1296 -0.0076
30186W        W46660  10.526  12.582  11.823  0.1415 -0.0413  0.0922
30187W        W46661   3.878  18.705  11.489  0.0129  0.2982  0.0833
30188W        W46662  10.585  14.040  12.500 -0.1952 -0.1637 -0.2724
30189W        W46663   9.829   2.684  13.501  0.3589  0.1354  0.0121
30190W        W46664   5.551   4.265  10.418  0.2022  0.4565 -0.2115
30191W        W46665   5.048   9.751  11.216  0.0216 -0.0201  0.2666
30192W        W46666   2.445   7.874  11.025  0.2687  0.0124  0.1523
30193W        W46667   8.819   3.473   2.841 -0.1915 -0.0462  0.1002
30194W        W46668   9.739   9.762   4.928  0.2227 -0.1197  0.0077
30195W        W46669   7.196  10.041   4.850  0.0608 -0.0363 -0.2176
30196W        W46670   0.664   6.706  11.689 -0.1011 -0.3246 -0.2147
30197W        W46671  12.847   5.613  13.578  0.2456  0.0676  0.2763
30198W        W46672  10.401   9.147   0.728 -0.0842  0.0064 -0.2060
30199W        W46673  12.837   3.448   3.456 -0.4901  0.0805 -0.0167
30200W        W46674   5.317   2.944   9.459  0.1460  0.1721 -0.3061
30201W        W46675   7.232  11.274   2.347 -0.0069  0.0814  0.1586
30202W        W46676   9.260   4.552  13.554  0.2021  0.1710 -0.1885
30203W        W46677  12.300  11.776  13.125 -0.0844  0.2981 -0.0330
30204W        W46678   6.794  15.920  11.775  0.1101 -0.0202 -0.0687
30205W        W46679   3.738   1.182  14.893  0.2228  0.2886 -0.0194
30206W        W46680  17.793   9.184  14.826 -0.1181 -0.0712 -0.1436
30207W        W46681   4.720   7.390   4.214 -0.0832 -0.1901 -0.0195
30208W        W46682  11.504  18.508   2.258 -0.0513  0.0504  0.1158
30209W        W46683  12.931  15.872   5.760  0.0947  0.1162  0.2075
30210W        W46684   8.413   4.673   1.030  0.0765  0.1483  0.0475
30211W        W46685   7.687   9.908  13.896 -0.2699  0.0333 -0.0877
30212W        W46686   9.488   9.188   3.792  0.0915 -0.4173  0.0604
30213W        W46687   5.214   5.420   3.957  0.0085 -0.1657  0.1469
30214W        W46688  15.771  18.009  12.744 -0.0037  0.1269 -0.0523
30215W        W46689  16.883   9.518   1.267 -0.0910 -0.0750 -0.1169
30216W        W46690   1.704  12.800   5.014  0.5062  0.2919 -0.3685
30217W        W46691  11.145   1.811  12.998  0.2612  0.0359 -0.0710
30218W        W46692   0.169  10.045  11.814 -0.0833  0.1470 -0.1648
30219W        W46693  11.603   8.565   2.060  0.1835 -0.0356  0.3717
30220W        W46694  16.966   3.054   1.965 -0.1898  0.0196  0.0431
30221W        W46695  18.265  11.382  13.614 -0.1782  0.4364  0.2834
30222W        W46696   2.859   4.996   1.858  0.0740 -0.2124  0.1320
30223W        W46697  13.520   0.872  14.307  0.3568  0.3748 -0.1229
30224W        W46698   9.875   2.106  13.579 -0.2977  0.0714 -0.0757
30225W        W46699  14.658  10.142   5.019  0.0102  0.0701  0.0171
30226W        W46700   6.234   4.630   3.424  0.2084  0.0739 -0.3461
30227W        W46701   1.260  15.649   4.382 -0.0964 -0.0367 -0.1762
30228W        W46702  13.219   5.267   2.326  0.0469 -0.1056  0.0685
30229W        W46703  12.185  14.445   3.094  0.2508 -0.2074 -0.1978
30230W        W46704   5.341   4.592   0.579 -0.2808  0.0947 -0.3083
30231W        W46705   9.699   4.744  13.341  0.3934  0.1416 -0.1504
30232W        W46706   0.370   7.334   9.676 -0.1093 -0.0619  0.3560
30233W        W46707   3.365  14.804  11.112  0.0061  0.0773  0.0710
30234W        W46708   8.653   2.688  15.372  0.0316 -0.0284  0.0309
30235W        W46709   0.732  18.695   1.861  0.3065 -0.0231 -0.2178
30236W        W46710   2.238   2.003   0.314  0.1596  0.3080 -0.1737
30237W        W46711   1.369  12.089   2.676  0.0698 -0.3347 -0.0049
30238W        W46712   2.362   2.079   3.837  0.0338 -0.3073  0.0708
30239W        W46713   2.013  14.518   2.389  0.1102 -0.1707  0.1593
30240W        W46714   8.606   2.053  13.648  0.2122  0.2439  0.0418
30241W        W46715   1.554  17.183   4.323  0.2861  0.0043 -0.0281
30242W        W46716   0.789   5.779   0.309  0.1465  0.2263  0.3391
30243W        W46717  11.001   4.236  12.939 -0.1586  0.2472  0.1454
30244W        W46718  16.088   4.663  15.202  0.1239  0.1878  0.0305
30245W        W46719   0.700   8.399  11.736 -0.5681 -0.1269  0.1188
30246W        W46720   0.301   2.381   0.564  0.2912  0.0324 -0.1948
30247W        W46721   6.105  16.882   2.359  0.2985 -0.0489 -0.3481
30248W        W46722   7.068  14.500   5.745  0.0503  0.0952 -0.1203
30249W        W46723   4.639   4.983  14.564 -0.0854 -0.0257  0.2099
30250W        W46724  10.154   8.680   0.860  0.0211 -0.0502  0.0656
30251W        W46725   4.441   9.476  12.166 -0.1941  0.0344 -0.2932
30252W        W46726  12.250   0.228  13.029 -0.1700 -0.0204  0.3209
30253W        W46727  17.880   5.968  11.215 -0.3265 -0.0453  0.2910
30254W        W46728  15.137   2.065   5.237  0.0491 -0.0996  0.0892
30255W        W46729  11.533   4.596  14.824  0.0398  0.3705  0.0194
30256W        W46730   5.486   3.690   0.090  0.1902  0.0441  0.0664
30257W        W46731  16.088   7.485   3.909 -0.2325  0.1363 -0.1318
30258W        W46732   2.482   5.232  14.964  0.2739 -0.1859  0.0747
30259W        W46733  16.380   6.108   3.436 -0.1186  0.0521 -0.0164
30260W        W46734   7.757  13.615  10.693  0.0749 -0.0667 -0.1411
30261W        W46735   6.329  12.314   1.710 -0.1896 -0.0573  0.0439
30262W        W46736   9.339   4.996  14.402 -0.0727  0.0583 -0.1846
30263W        W46737  11.615   3.725   0.760  0.0078  0.1251  0.1469
30264W        W46738  12.645   6.943   4.855 -0.0957  0.3895 -0.3424
30265W        W46739   2.875  17.748  14.455  0.3766  0.0577  0.0582
30266W        W46740   9.251  16.177  14.357 -0.2967 -0.1398 -0.2411
30267W        W46741  16.039   8.131  12.598 -0.1467 -0.1192  0.1715
30268W        W46742  18.741  13.208  11.251 -0.1114  0.1484 -0.0537
30269W        W46743  15.957   5.287   1.594 -0.1308 -0.2248  0.0908
30270W        W46744   3.708   4.937  13.893  0.0943  0.1189  0.0199
30271W        W46745   0.617   9.602   1.292  0.0328 -0.0813 -0.3383
30272W        W46746   0.768   8.144   1.904 -0.3130  0.3939  0.0268
30273W        W46747  11.499  12.619   1.697 -0.0724  0.1658 -0.0267
30274W        W46748   1.894   3.066   2.848 -0.0028  0.2419 -0.1603
30275W        W46749  10.366   7.930  12.262  0.1312 -0.2970  0.0774
30276W        W46750  11.262   1.294   3.701  0.2016  0.0036 -0.1000
30277W        W46751  14.940   9.602   5.183  0.0643  0.2474 -0.0501
30278W        W46752   7.315   0.665   3.535 -0.0784  0.3139 -0.0773
30279W        W46753  17.252  11.481   6.059  0.1240  0.0660  0.0662
30280W        W46754   1.247  13.673  12.815 -0.0262  0.1637 -0.2013
30281W        W46755   1.458  17.610  13.728 -0.2421  0.0740  0.1347
30282W        W46756  16.682   5.803   1.524 -0.2838 -0.0543  0.0660
30283W        W46757   1.250  13.855   0.789 -0.0273  0.0593  0.0537
30284W        W46758  10.346  14.138  15.571  0.1225 -0.1555  0.0597
30285W        W46759  11.925  13.994   3.060 -0.1879 -0.0954  0.1314
30286W        W46760  15.430   5.601  12.528  0.1458  0.2014  0.0680
30287W        W46761   8.648  18.641  13.087  0.1856  0.2253 -0.0726
30288W        W46762  10.640   8.160   1.391  0.1553  0.1370 -0.1678
30289W        W46763   7.210   2.451   1.928  0.1941 -0.1094 -0.0274
30290W        W46764  14.050  14.707  10.584  0.0701 -0.3845 -0.1558
30291W        W46765   1.463   0.102   4.645 -0.0073  0.2317  0.0604
30292W        W46766   1.245  18.663   0.600 -0.2909 -0.2139  0.2595
30293W        W46767  12.780   4.290  12.583  0.0616 -0.2588  0.1263
30294W        W46768  16.365   2.757   4.300  0.0992 -0.3725  0.0987
30295W        W46769  14.574  12.770  15.057 -0.2244  0.1169  0.2031
30296W        W46770   1.826   9.704  15.288 -0.4971 -0.0339 -0.1806
30297W        W46771   2.112   0.861  13.129  0.1766 -0.1520  0.3978
30298W        W46772  13.440   4.753   3.520  0.0318  0.0038  0.1561
30299W        W46773  11.359   3.801  12.495 -0.0599 -0.1827  0.0320
30300W        W46774  14.484   9.059   2.631 -0.0479 -0.2178 -0.2086
30301W        W46775  17.806   5.862  13.174  0.0575  0.0352  0.0830
30302W        W46776  16.921  10.303  15.374 -0.1227  0.2575 -0.1613
30303W        W46777   9.219  12.144  12.920  0.0115  0.0344  0.2565
30304W        W46778   3.482   2.572   5.205  0.1001 -0.0735  0.2530
30305W        W46779   1.536  15.461  10.969  0.0988 -0.1606 -0.0023
30306W        W46780   3.493   6.533   0.623 -0.2850 -0.1241  0.0671
30307W        W46781  14.735   7.835   0.927 -0.3135  0.0825 -0.1833
30308W        W46782  14.977  17.949   2.630  0.0523 -0.2625 -0.0417
30309W        W46783  14.356  15.668   0.001 -0.2281 -0.3682 -0.2295
30310W        W46784   4.697  18.754   5.553  0.1755  0.0699 -0.0797
30311W        W46785   9.352  18.727   4.444 -0.0580  0.0196 -0.1484
30312W        W46786  14.367  17.169   5.505  0.4920  0.2174 -0.0085
30313W        W46787   0.023   1.399  12.303 -0.0831  0.0337  0.0530
30314W        W46788  10.608   1.970  11.395 -0.2500  0.0045 -0.1797
30315W        W46789  12.061  15.163   0.973 -0.2823 -0.3339  0.0349
30316W        W46790   8.343  14.510   3.492 -0.0528 -0.1691 -0.1499
30317W        W46791   6.024   3.770   3.700 -0.0048 -0.2594 -0.0646
30318W        W46792  12.867  14.459   3.686  0.2308 -0.0786  0.0910
30319W        W46793   4.243   2.931  10.905 -0.1977  0.0753  0.2512
30320W        W46794   2.273  17.978  13.016 -0.2273  0.1868 -0.0702
30321W        W46795   8.564   0.316  13.427 -0.3822 -0.0137 -0.2542
30322W        W46796  14.090  12.017   1.078  0.0892  0.1273 -0.1795
30323W        W46797  13.425   0.235   2.114  0.2174 -0.2846 -0.0253
30324W        W46798   3.680   4.611   4.252 -0.2214 -0.2865 -0.0021
30325W        W46799   9.727   6.464   2.962  0.0992 -0.1970 -0.0673
30326W        W46800   4.265   5.108  12.441 -0.4971  0.3500  0.2643
30327W        W46801   5.964   8.140   3.613 -0.0185 -0.2237 -0.1996
30328W        W46802  15.350   5.380   2.708  0.4223 -0.1127 -0.1680
30329W        W46803  10.004  10.300  12.433  0.2868  0.1042  0.0486
30330W        W46804  11.956  17.378  13.250  0.2490 -0.1778  0.0097
30331W        W46805  13.718   1.259   2.421 -0.0790 -0.2932 -0.0317
30332W        W46806  14.534   4.822   0.534  0.1004  0.0703  0.0840
30333W        W46807  14.378   2.460  13.133 -0.1010  0.2724 -0.1061
30334W        W46808  10.900  14.788  14.266  0.2521  0.2566 -0.1498
30335W        W46809   4.017  11.228   5.391  0.1045 -0.0944 -0.0506
30336W        W46810   1.265  10.927   0.017  0.1282  0.0582 -0.1253
30337W        W46811  15.616   6.612  13.416 -0.0401 -0.2486  0.2094
30338W        W46812   1.414   8.032  11.830 -0.1165 -0.0696  0.1445
30339W        W46813   8.018   6.495   0.343 -0.3110  0.3599  0.1279
30340W        W46814  14.277   2.435   1.797  0.1258  0.3928  0.1657
30341W        W46815   9.830  11.220   5.025  0.1788 -0.1543 -0.1795
30342W        W46816  16.758  16.114  12.731  0.1049  0.4271  0.1416
30343W        W46817   7.677  14.353   0.504 -0.4223  0.4711 -0.0154
30344W        W46818  14.159   4.137   1.582  0.2178  0.3303  0.2984
30345W        W46819   8.570  14.573   3.974 -0.0822  0.0707 -0.0923
30346W        W46820   6.146  10.119   3.870  0.2056  0.0383 -0.3145
30347W        W46821   9.346  15.932   2.141  0.1843  0.1104 -0.1080
30348W        W46822  17.326   5.181   3.270 -0.5390  0.3087 -0.1607
30349W        W46823  12.588  10.794   2.659 -0.1193 -0.1207  0.3617
30350W        W46824  18.019   6.106   1.877 -0.2245 -0.0341  0.0258
30351W        W46825   5.743  11.382   4.751  0.0839 -0.1699 -0.0869
30352W        W46826   4.579  11.425  11.502  0.1744  0.2208 -0.0442
30353W        W46827  17.920  15.093   3.443 -0.0264 -0.3115 -0.1544
30354W        W46828   8.983   6.310  11.359  0.0020  0.1861 -0.5011
30355W        W46829   0.059   0.551   5.496  0.0448  0.0616  0.2517
30356W        W46830   2.114  11.205   2.910  0.1344 -0.0945  0.2336
30357W        W46831  15.228   0.809   1.156  0.0620  0.0005 -0.0424
30358W        W46832   0.824  14.148   5.802  0.2199 -0.0807 -0.0016
30359W        W46833  13.101   8.726  13.188 -0.1588  0.0532 -0.0444
30360W        W46834   1.549   4.126   2.751 -0.0025  0.4485  0.2282
30361W        W46835  11.006  12.959   4.298 -0.1520 -0.1968 -0.1732
30362W        W46836   9.826   3.607  15.381  0.1456  0.0613  0.1182
30363W        W46837  13.703  15.074   3.166  0.2649  0.2219 -0.0416
30364W        W46838   0.416   0.058   4.273  0.2311 -0.0142 -0.1971
30365W        W46839  11.964  15.680   3.599  0.1010 -0.0744 -0.0524
30366W        W46840  12.818  11.240  11.435  0.2294  0.0096 -0.0763
30367W        W46841   1.067   1.070   4.706  0.0540 -0.2115 -0.1644
30368W        W46842   9.742  18.351  13.887 -0.3172 -0.0072 -0.2037
30369W        W46843  15.966   6.522   1.740 -0.1582 -0.1499  0.2964
30370W        W46844  10.640   4.094  10.931  0.0503  0.0808 -0.1575
30371W        W46845   3.577   9.971  13.585 -0.0451 -0.0669 -0.0786
30372W        W46846   4.882   1.593   1.953 -0.0362  0.2820 -0.2390
30373W        W46847  16.884  12.526  12.569 -0.0209 -0.0379  0.2015
30374W        W46848  12.064   5.776  12.451 -0.4038  0.1190 -0.0808
30375W        W46849   2.433   0.250  14.406 -0.0445 -0.1319 -0.1229
30376W        W46850   2.856   6.591   2.398  0.3014 -0.3684  0.1718
30377W        W46851  16.255  16.204  12.796  0.1951 -0.0811 -0.2890
30378W        W46852  18.222  13.270   1.916 -0.1614  0.0779 -0.0246
30379W        W46853   7.953  17.769   4.037  0.0712  0.1757  0.1768
30380W        W46854   0.729   9.882  14.987 -0.1830  0.0767  0.0035
30381W        W46855   7.030  10.843   2.279 -0.1709 -0.0210 -0.4745
30382W        W46856   0.320   4.407   3.264  0.1798 -0.1009  0.2567
30383W        W46857  12.322   6.006  11.459  0.0533 -0.5406  0.1819
30384W        W46858   3.931   2.408   0.983 -0.0910  0.0044  0.1324
30385W        W46859  10.700  12.801   0.669  0.1273  0.0807  0.0633
30386W        W46860   0.492  15.722  12.412  0.1523  0.0342 -0.1739
30387W        W46861  11.940   6.514   1.967 -0.0456  0.0189  0.0665
30388W        W46862  12.956   6.331  10.882 -0.3183 -0.2314 -0.0722
30389W        W46863  13.818   0.756  13.064  0.2057 -0.1736  0.3630
30390W        W46864   9.296  11.339   5.926  0.2993 -0.1345 -0.0677
30391W        W46865   6.219   4.346  13.782 -0.0701  0.3826 -0.1697
30392W        W46866   4.457  13.756  14.193  0.1814  0.0318 -0.0060
30393W        W46867   2.328   7.833  15.465 -0.0026 -0.1667 -0.0280
30394W        W46868   5.731  17.292  13.586 -0.1513  0.0531 -0.2414
30395W        W46869  11.837   7.807   0.393 -0.0229  0.0204  0.2397
30396W        W46870  16.487   5.127  14.483 -0.4635 -0.3804 -0.0943
30397W        W46871  17.943   4.745  13.960 -0.0406  0.0768 -0.1384
30398W        W46872   5.874   4.013   1.259 -0.2275 -0.1626  0.1793
30399W        W46873  10.910   8.959   3.036  0.3171 -0.1539 -0.1084
30400W        W46874  18.165   6.000  12.819 -0.0465  0.3032 -0.1227
30401W        W46875  15.951   9.679  15.021 -0.0680  0.1475  0.2910
30402W        W46876  10.159  17.914  14.509  0.0285  0.0310 -0.1956
30403W        W46877   0.365  10.646  10.923 -0.1366  0.2487 -0.1919
30404W        W46878   4.050  18.513   0.506 -0.3183  0.1903 -0.1029
30405W        W46879   3.157  14.998   1.079  0.2462 -0.2173 -0.3153
30406W        W46880   3.214   1.707  13.858  0.2125  0.1045 -0.1312
30407W        W46881   7.676   8.099  12.141 -0.1957 -0.0876 -0.1050
30408W        W46882  12.763  18.557   1.610  0.2947  0.1232 -0.0638
30409W        W46883  11.783   4.908   2.994 -0.1512 -0.0084  0.1280
30410W        W46884  17.548  10.703   0.662 -0.0588  0.0050  0.1770
30411W        W46885   7.482   2.608  11.785  0.1578  0.3460  0.1142
30412W        W46886  12.122  14.654   0.235 -0.0007  0.2346  0.2608
30413W        W46887   5.147   5.487   0.270 -0.0821 -0.1175 -0.0106
30414W        W46888   0.398   5.346   4.163 -0.1854 -0.0061  0.0451
30415W        W46889   8.390  13.989   1.288  0.0431 -0.2047 -0.0155
30416W        W46890  15.620   0.587  11.666 -0.1759  0.0577  0.1286
30417W        W46891   1.123   7.036   1.003 -0.0480 -0.1437  0.0025
30418W        W46892   9.715  16.760  11.606 -0.2973 -0.1468 -0.1158
30419W        W46893   3.962   8.975   4.543  0.0563  0.2865  0.0397
30420W        W46894   3.955  10.835   2.546 -0.0091  0.0170  0.1112
30421W        W46895   1.348  15.072  11.265  0.1621 -0.0700 -0.1047
30422W        W46896  12.674   3.428  13.670  0.0012 -0.0263  0.1162
30423W        W46897  18.202  12.357   0.348  0.1784  0.2924  0.3265
30424W        W46898   9.593  12.976   1.560 -0.0843 -0.1728 -0.0547
30425W        W46899   3.189   5.314  11.049 -0.0940 -0.2510 -0.0850
30426W        W46900  11.967  18.135  15.475  0.2408 -0.0522  0.1068
30427W        W46901   5.262   8.695   3.066 -0.1208 -0.4032 -0.0440
30428W        W46902  18.762  15.453   4.593 -0.0126  0.0868 -0.0398
30429W        W46903  15.784   7.201  11.748 -0.2327  0.1371  0.1614
30430W        W46904   8.151  10.764  14.039  0.0653 -0.1668  0.2120
30431W        W46905  13.520  13.204   5.039  0.0471  0.1015 -0.1770
30432W        W46906  15.871   8.529   6.042  0.0502 -0.2857 -0.2282
30433W        W46907  15.544  17.507  11.483 -0.0538 -0.1730  0.0517
30434W        W46908   4.839   2.737   5.048 -0.1508 -0.1596 -0.1499
30435W        W46909   8.567   7.524   0.967 -0.0254 -0.0263  0.2690
30436W        W46910   4.453  16.845  12.371 -0.0352 -0.1551  0.1302
30437W        W46911  17.703  12.234   2.497 -0.1839  0.0137  0.2384
30438W        W46912  15.383  14.651  14.381 -0.3888 -0.0132  0.2047
30439W        W46913   8.193   6.092  11.885  0.1417 -0.3038 -0.0270
30440W        W46914  10.772   0.706  13.146 -0.1664  0.0508  0.0547
30441W        W46915  14.062   5.272  14.161  0.0247  0.1211 -0.0171
30442W        W46916  13.745  11.247   3.886  0.1177  0.0455  0.2632
30443W        W46917   9.449  13.138  14.038 -0.0689 -0.1050 -0.2171
30444W        W46918   0.196   6.870  14.153  0.0577 -0.4972 -0.2853
30445W        W46919  10.460  15.499  15.546  0.0312  0.5195 -0.1986
30446W        W46920  15.747   7.987  15.345  0.0675 -0.4218  0.0302
30447W        W46921   2.416  11.217  12.096  0.0280 -0.1116 -0.2435
30448W        W46922   4.329   0.266   1.293 -0.2933  0.0939 -0.0513
30449W        W46923  15.205  14.425   2.624 -0.2619  0.0764 -0.1796
30450W        W46924   6.406   1.914  14.873  0.0772  0.0287  0.0676
30451W        W46925   3.951   4.223   4.060  0.0247 -0.2151  0.1683
30452W        W46926  10.646  16.364  11.954 -0.1311 -0.2457  0.2812
30453W        W46927   7.470  15.725   2.631  0.1396 -0.0605 -0.1820
30454W        W46928   9.151   7.125  11.591 -0.0059 -0.1169 -0.0941
30455W        W46929  13.014   2.456  15.060  0.2306 -0.3410  0.1425
30456W        W46930   6.723   4.363  12.043 -0.2104  0.3177  0.5130
30457W        W46931   3.440   7.897   3.655 -0.0596 -0.0426 -0.1440
30458W        W46932  16.838   8.421  13.832  0.5432  0.1097  0.0158
30459W        W46933   4.186  10.423   2.172  0.0275 -0.1264 -0.0796
30460W        W46934  13.470   9.724   5.870  0.1561 -0.1348  0.1289
30461W        W46935   4.217   4.564   4.313 -0.1097 -0.2071  0.0726
30462W        W46936   5.907   9.133   2.030  0.0821 -0.0270 -0.1522
30463W        W46937  14.052   5.958  14.264  0.0310  0.0390  0.0819
30464W        W46938   7.019   0.382  13.954 -0.1372  0.1859 -0.2379
30465W        W46939  13.000  16.406  11.761  0.0574 -0.1592 -0.0442
30466W        W46940  17.431   9.413  14.027 -0.0515 -0.0173  0.1911
30467W        W46941   7.481  10.806  15.155  0.0146 -0.0395  0.3974
30468W        W46942  10.470   4.253  12.577 -0.1074 -0.3063  0.0911
30469W        W46943   5.562   5.469   1.657  0.1791  0.1802  0.1619
30470W        W46944  17.867   1.211   3.540 -0.0728  0.2503 -0.2482
30471W        W46945  14.422   7.177  12.075 -0.1913 -0.0036  0.3293
30472W        W46946   3.943   6.489  13.956  0.0541 -0.2587 -0.0161
30473W        W46947  11.870   7.835   0.953 -0.1305  0.0815  0.0482
30474W        W46948  15.838   2.181   4.102 -0.2591 -0.0558 -0.2210
30475W        W46949   5.304   3.545   0.570  0.1117 -0.2751  0.0729
30476W        W46950  10.754  18.147   2.747  0.3060 -0.1231  0.2213
30477W        W46951  12.452  13.735   3.135  0.1680 -0.0274 -0.1948
30478W        W46952   3.874  14.408   5.337  0.0606  0.0830  0.0787
30479W        W46953   5.179   8.907  10.476 -0.2075  0.1065 -0.4653
30480W        W46954  16.888   8.057   1.987  0.0582 -0.1806 -0.0212
30481W        W46955   9.026  17.939   1.613 -0.4640 -0.2911  0.1522
30482W        W46956  11.700  15.714   4.099 -0.3222  0.0986 -0.0702
30483W        W46957  10.188   8.215  14.872  0.0977 -0.0374  0.0065
30484W        W46958  13.473   5.102   1.802 -0.2127 -0.0361 -0.0594
30485W        W46959  14.451  11.184  11.459 -0.0533  0.1546 -0.2016
30486W        W46960   0.561  10.720   4.832 -0.3625  0.0194 -0.1277
30487W        W46961  11.708  17.535   5.059 -0.0158 -0.0395  0.2903
30488W        W46962   5.030   7.327  12.169 -0.1271 -0.0764 -0.0229
30489W        W46963   9.396  16.032   0.120  0.2260 -0.1462 -0.0025
30490W        W46964  16.915  11.192   1.215 -0.0721 -0.0738  0.0589
30491W        W46965  15.227   8.652   2.787  0.1742 -0.0772 -0.1409
30492W        W46966   6.383   6.914  12.545  0.1698  0.0164 -0.1027
30493W        W46967   2.205  12.841   4.421 -0.0862  0.0061  0.2644
30494W        W46968  15.577   2.337   0.889 -0.1018 -0.0199  0.0689
30495W        W46969   0.523   7.200  13.546 -0.1222  0.0582  0.0206
30496W        W46970   8.469  16.304  15.568 -0.1337  0.0252 -0.0446
30497W        W46971  15.180   0.022   0.914  0.0267  0.2579  0.1391
30498W        W46972   8.011   3.035  10.796 -0.1328 -0.2102 -0.0936
30499W        W46973  14.940   9.972   2.936 -0.0585  0.0794 -0.1191
30500W        W46974  10.604  13.312   2.518  0.0775  0.2360 -0.0709
30501W        W46975   0.888  18.521   1.360 -0.2318 -0.0717 -0.0476
30502W        W46976  11.684   5.149   2.518  0.2879  0.1212  0.0296
30503W        W46977   8.161   3.750  11.353  0.4048 -0.1309  0.1951
30504W        W46978   7.749  16.047   2.091  0.0293  0.1945  0.1949
30505W        W46979   4.939  14.605   0.736 -0.0567  0.0155  0.0565
30506W        W46980   8.817   9.013   5.210 -0.2522 -0.0710  0.1006
30507W        W46981  13.888   6.559  14.881 -0.3273  0.3004  0.0690
30508W        W46982   4.283  11.138   2.272  0.3091  0.2036  0.3736
30509W        W46983  17.371  16.163  12.125  0.0929  0.1286 -0.1927
30510W        W46984   5.484  16.684   2.001  0.3817 -0.2590  0.0397
30511W        W46985  13.512   0.619   4.340  0.3017  0.0329 -0.0900
30512W        W46986  16.746   0.575  11.189  0.0402  0.1421  0.0403
30513W        W46987  12.019  10.564   1.527  0.0188 -0.1319 -0.1327
30514W        W46988  16.784  18.375  14.096 -0.1448  0.2375 -0.0770
30515W        W46989  13.705  15.000   3.719  0.1429 -0.1581  0.1472
30516W        W46990   9.832   1.114   2.328  0.0889 -0.0666  0.0959
30517W        W46991   3.491  16.466  13.305 -0.0263  0.1867 -0.1530
30518W        W46992   7.950  10.590   3.371  0.0700  0.1058  0.0081
30519W        W46993  10.709   7.192  11.953  0.4191  0.0899 -0.0261
30520W        W46994   8.545   9.487   3.292  0.0194 -0.0675  0.1800
30521W        W46995   9.166   3.927   3.290  0.0589 -0.1533 -0.1728
30522W        W46996   8.762  12.407   1.192  0.2663  0.2876 -0.2318
30523W        W46997   1.663  10.539  10.961  0.0383  0.1284 -0.1659
30524W        W46998  14.479  13.427   2.030 -0.2757  0.0762 -0.1062
30525W        W46999   0.064   4.936  10.966 -0.2141  0.0709  0.0098
30526W        W47000   4.448  14.937   2.018  0.1116 -0.2726  0.1269
30527W        W47001  16.715  13.629   0.349  0.1100  0.1089 -0.0542
30528W        W47002   4.581  11.882   1.849  0.0756  0.1517 -0.1407
30529W        W47003  15.328   3.823  13.375  0.4148  0.0617 -0.0988
30530W        W47004   0.101   1.674   4.743  0.1465 -0.1836 -0.0012
30531W        W47005   6.263  10.913  11.642  0.0430 -0.1945  0.2288
30532W        W47006   5.961  16.091   3.567  0.0547 -0.2117 -0.0799
30533W        W47007  11.774  15.434  12.133  0.1221 -0.0763 -0.1516
30534W        W47008  11.542   4.211  15.100  0.2421  0.2892  0.1612
30535W        W47009   6.109  13.081  13.018  0.2073  0.1504  0.2476
30536W        W47010   7.724  16.171  14.752  0.1720 -0.1229 -0.4440
30537W        W47011   6.846  13.948  10.686 -0.0188  0.0177  0.1956
30538W        W47012   6.028  17.883  11.130  0.0970  0.1087  0.1303
30539W        W47013   3.069   0.972  11.630 -0.0069 -0.2076  0.1958
30540W        W47014   8.018  15.563   1.849  0.0138  0.3401 -0.4246
30541W        W47015   9.546   3.187  13.376  0.0551 -0.2385  0.1806
30542W        W47016   0.361   5.487  14.198  0.0727  0.0019  0.4577
30543W        W47017  16.453   7.945   0.535 -0.2158  0.0143 -0.1221
30544W        W47018  11.973  14.770  11.446 -0.1823 -0.1630  0.0490
30545W        W47019  16.275  15.803  10.835  0.0026  0.1311  0.1915
30546W        W47020  11.870   9.277  10.649  0.0073  0.0487 -0.0581
30547W        W47021  17.858  15.818  14.543 -0.2585 -0.0218  0.1204
30548W        W47022  13.327  12.706   3.767 -0.1203 -0.0434  0.0801
30549W        W47023   5.353   4.650   2.204 -0.0388  0.1357  0.0944
30550W        W47024   7.507   1.745   2.692 -0.3848  0.2443  0.1823
30551W        W47025  14.334   9.577   2.635  0.3229  0.3339  0.0734
30552W        W47026  15.823  15.226   2.813 -0.3931 -0.0605 -0.1213
30553W        W47027   5.024  11.517  14.899  0.1844 -0.2550 -0.5117
30554W        W47028   2.676   9.646  15.392 -0.0831  0.0690 -0.1041
30555W        W47029   5.434  14.879   0.105  0.0626 -0.1040  0.1997
30556W        W47030  12.510  14.974  12.733 -0.3381  0.0947 -0.0843
30557W        W47031  14.039  13.938  11.688 -0.2174  0.0394 -0.1018
30558W        W47032   4.794   5.302   4.152  0.0796 -0.0985 -0.0624
30559W        W47033   9.259   3.474  12.591  0.3642  0.0569  0.0712
30560W        W47034   5.895   8.617   0.812  0.0144  0.0983 -0.0478
30561W        W47035   1.164   4.369  11.767 -0.1129 -0.2177 -0.1029
30562W        W47036   6.949   8.594  11.038  0.0929  0.5413 -0.0887
30563W        W47037   8.225  18.260  13.046  0.0624  0.2640 -0.5053
30564W        W47038  15.538   7.339  14.747  0.1351  0.1250  0.0521
30565W        W47039  10.022  13.840  14.840 -0.1498  0.0315  0.0525
30566W        W47040   3.122   5.754   2.166 -0.4095  0.0011  0.1237
30567W        W47041  16.401  16.317  11.017  0.0880 -0.0348  0.0958
30568W        W47042  14.397  11.736   1.387 -0.0103 -0.3120  0.1489
30569W        W47043   8.338   2.906  12.538  0.0629 -0.1095 -0.0162
30570W        W47044  16.030  16.631  11.175  0.0875  0.0242  0.0588
30571W        W47045  13.480   2.323   3.616 -0.1173 -0.1693 -0.0458
30572W        W47046   7.474   4.128  13.103 -0.0326 -0.2486  0.3035
30573W        W47047   1.818   3.529   2.074 -0.0617 -0.1472 -0.0604
30574W        W47048  10.802   1.426  11.374  0.2409  0.0699  0.1418
30575W        W47049  10.603  13.789  14.765  0.1460  0.0162 -0.2581
30576W        W47050   9.045   3.880  12.392 -0.0414 -0.2284 -0.0835
30577W        W47051   0.960  17.336  11.781  0.4929 -0.0314  0.0707
30578W        W47052  10.042  11.244   1.515  0.1443 -0.1407 -0.1706
30579W        W47053   8.353   4.825   5.082  0.0475  0.4475  0.3071
30580W        W47054   8.152   0.092   1.536  0.0106 -0.2291 -0.1630
30581W        W47055   8.911   0.036  10.502  0.0175 -0.0999  0.1963
30582W        W47056   2.960  10.307   4.255 -0.2268  0.0342 -0.2100
30583W        W47057  13.457   6.315   1.729 -0.1558 -0.0943  0.1282
30584W        W47058   6.401   7.006   3.481 -0.4104 -0.1264 -0.1661
30585W        W47059   5.493   3.761   1.064 -0.1519 -0.0049  0.1747
30586W        W47060   4.026  18.760  15.360 -0.0063  0.3244  0.1535
30587W        W47061  16.983   0.724   4.557  0.0428  0.2681 -0.1698
30588W        W47062  10.460   5.025   0.025 -0.0400 -0.1446  0.2098
30589W        W47063  12.150  18.718  11.080  0.1229  0.1863 -0.2090
30590W        W47064   3.452   3.408   3.733 -0.3391  0.4544 -0.2065
30591W        W47065   7.504  15.688  12.244 -0.2050  0.1922  0.1944
30592W        W47066  11.065   7.950   4.805 -0.1597 -0.1249 -0.2503
30593W        W47067  17.591  18.567  13.205 -0.2281  0.0058 -0.0673
30594W        W47068   1.719  11.112   0.694 -0.0332 -0.2165  0.0601
30595W        W47069  16.434   0.345   1.036 -0.0999  0.0991 -0.1450
30596W        W47070   8.709   0.184   2.319  0.2826  0.0029 -0.2242
30597W        W47071   8.580  11.747  15.456  0.2116  0.2960 -0.0485
30598W        W47072   6.643   4.675  13.723 -0.1269 -0.0903 -0.2547
30599W        W47073   3.736  10.669  11.839  0.0546  0.0688  0.2820
30600W        W47074   3.588   7.695  14.452  0.0442 -0.2881 -0.0595
30601W        W47075  13.678  17.278  13.947 -0.1051 -0.2512 -0.1149
30602W        W47076   7.018   8.386   5.051 -0.4723  0.0942 -0.1483
30603W        W47077   0.369   9.130  13.238  0.1019 -0.0032 -0.0127
30604W        W47078   9.697  12.143  12.580  0.1188 -0.4201 -0.0119
30605W        W47079   6.360  10.855   3.188 -0.0902  0.1010 -0.2575
30606W        W47080  17.398  12.895  11.777  0.1633  0.0572  0.0624
30607W        W47081  11.691  10.169  14.695  0.1213 -0.0188  0.1086
30608W        W47082   8.115   6.350   2.995  0.0446  0.1140  0.1575
30609W        W47083  12.653  17.886   2.800  0.1449  0.1548  0.1962
30610W        W47084  13.826  17.093  14.944  0.0945  0.1829  0.2848
30611W        W47085  15.816   6.169  13.247 -0.2165 -0.0673 -0.2011
30612W        W47086  14.498  13.412  12.640  0.1300 -0.1338  0.1592
30613W        W47087  12.610   0.614   6.428 -0.4053  0.1692  0.2234
30614W        W47088  10.049   4.711   0.361  0.1496  0.2568 -0.0767
30615W        W47089   1.085   7.149  11.356 -0.0797 -0.0571 -0.0790
30616W        W47090  10.603   9.917   4.557  0.2128 -0.1964 -0.0375
30617W        W47091   9.330  16.816  14.585 -0.2384  0.1395  0.2181
30618W        W47092   2.629   5.419   4.226 -0.2016  0.1648 -0.2418
30619W        W47093   7.814   8.348   0.458 -0.1118  0.2448 -0.1886
30620W        W47094  14.938  14.719   3.644 -0.1703 -0.0020  0.1875
30621W        W47095  10.063   5.047   0.880 -0.2188  0.1476 -0.0217
30622W        W47096  12.942   8.676   3.243 -0.0621 -0.2659  0.0895
30623W        W47097   3.836  15.652  12.063 -0.2806  0.3074 -0.1615
30624W        W47098   4.705  14.714  12.257 -0.3592 -0.3443  0.0828
30625W        W47099   5.893   6.597  12.312  0.1782  0.1011  0.2212
30626W        W47100   0.696   5.783   1.043  0.0386  0.3574 -0.1268
30627W        W47101   5.496  14.198   3.849  0.0235 -0.3236 -0.2256
30628W        W47102   9.852   7.087  14.088 -0.1987 -0.1844 -0.2702
30629W        W47103   4.598   1.821   0.002 -0.0015 -0.4918 -0.1170
30630W        W47104  10.761  12.719   3.941 -0.1228  0.1593 -0.0222
30631W        W47105   8.708   0.838  12.757 -0.0411  0.2385 -0.0082
30632W        W47106   3.374  13.125  12.671  0.2199 -0.1938  0.3842
30633W        W47107  13.006   8.969  13.663 -0.0700 -0.0085 -0.2578
30634W        W47108   4.420   4.792   4.897 -0.3650  0.1327  0.0991
30635W        W47109  10.904  10.113   3.549 -0.1709 -0.2285 -0.0087
30636W        W47110   1.848  11.216  10.464 -0.1030  0.1178  0.5438
30637W        W47111  13.056  14.885  14.087  0.3411 -0.0417 -0.1887
30638W        W47112  12.450  16.464   0.196 -0.0931  0.1464  0.0589
30639W        W47113  13.230  18.391   0.793  0.0052  0.0755  0.4780
30640W        W47114   0.371   0.976   3.982 -0.1485  0.2360  0.0039
30641W        W47115  18.674   7.676   2.618 -0.1948  0.2540  0.2291
30642W        W47116  12.265  13.878   5.143  0.2049  0.0423  0.3575
30643W        W47117   0.012  15.027  12.099 -0.0358  0.2262 -0.1204
30644W        W47118   4.048  18.432   3.282 -0.0363 -0.0585  0.0118
30645W        W47119  11.042   8.367  14.660 -0.0529  0.0452 -0.2212
30646W        W47120   9.052   3.056   2.346  0.2984 -0.2325 -0.1088
30647W        W47121  18.767  18.219   2.716 -0.2791  0.1324 -0.3344
30648W        W47122   9.362   2.172   4.179 -0.0055 -0.1423  0.0517
30649W        W47123   0.638   0.479   1.964  0.1035 -0.0780 -0.0187
30650W        W47124   0.806   3.509   0.154  0.0746  0.0861  0.2129
30651W        W47125  17.832   5.011   3.559 -0.0533 -0.3068  0.0580
30652W        W47126  14.640  13.553   0.273 -0.2026 -0.0740 -0.1643
30653W        W47127  17.251   8.227  13.957  0.0484  0.0155 -0.0199
30654W        W47128  16.417  17.837  15.382 -0.0799 -0.1901  0.2406
30655W        W47129  11.733  11.731  13.024  0.2518  0.3473 -0.1350
30656W        W47130   3.761   4.800  10.819 -0.0600 -0.2108  0.0998
30657W        W47131   8.134   0.133   5.988  0.0222  0.1454 -0.1143
30658W        W47132   1.763   8.967  12.918  0.0045 -0.2316  0.2265
30659W        W47133  10.260   2.954  13.618  0.2414  0.3555 -0.0360
30660W        W47134  16.794  14.675  13.870  0.4381 -0.0146 -0.1201
30661W        W47135   5.097   8.237   4.224  0.0659  0.1663  0.0644
30662W        W47136   5.524   2.201   1.494  0.2567  0.0250 -0.3643
30663W        W47137   3.790  12.780   3.718  0.1460  0.0624 -0.0072
30664W        W47138   1.724  11.874   4.167  0.0362  0.1868 -0.1118
30665W        W47139   2.946   1.311  14.031  0.0277 -0.1128 -0.1648
30666W        W47140  12.494  16.539   5.029  0.0054  0.1465  0.2345
30667W        W47141   5.995   6.524   1.881 -0.0420  0.2024  0.0898
30668W        W47142   0.707  18.715  13.912  0.1217 -0.1197 -0.0831
30669W        W47143   6.533  14.957   2.039 -0.2357 -0.3548  0.0276
30670W        W47144   9.066  18.370   4.563  0.2871 -0.1017  0.0366
30671W        W47145   6.353   2.993  13.631  0.1775  0.1027  0.2026
30672W        W47146   9.901  12.666   0.689  0.0512 -0.3244  0.1807
30673W        W47147  12.362  18.252  15.130 -0.3324 -0.3360 -0.0888
30674W        W47148  13.930   8.480   0.688  0.0716  0.0426  0.2302
30675W        W47149  17.986  17.129   5.805  0.0686  0.0271  0.0083
30676W        W47150  13.829  17.413   3.180 -0.1076 -0.1363  0.2465
30677W        W47151  15.134   6.782  14.649  0.0295 -0.0316 -0.0302
30678W        W47152   0.705   0.983  14.724  0.0038 -0.3571 -0.0643
30679W        W47153  14.735   9.021  14.069  0.1860  0.1576  0.2328
30680W        W47154  11.098  13.403   1.717  0.2836 -0.1256 -0.1713
30681W        W47155  18.384  14.896  14.359  0.3798 -0.1734  0.1806
30682W        W47156  16.755  11.697   1.058 -0.1590  0.0279 -0.0448
30683W        W47157  15.003   9.700  13.501  0.2035 -0.1297  0.0998
30684W        W47158  16.715  15.790  12.198 -0.2293  0.2835  0.2616
30685W        W47159  13.333   0.524  11.654 -0.2534  0.0237 -0.2808
30686W        W47160   4.458   2.235   1.089  0.0653 -0.0788  0.1578
30687W        W47161   3.525   7.809  11.676 -0.1430  0.2400 -0.0186
30688W        W47162   5.807   2.265  13.566 -0.2980  0.4119  0.0837
30689W        W47163   8.074   7.945   3.296  0.3584 -0.3442 -0.0261
30690W        W47164   7.872  14.657   0.129 -0.0274  0.0092 -0.0765
30691W        W47165   8.116  15.570  12.140 -0.0767  0.2889 -0.0336
30692W        W47166  10.636   3.360  14.297  0.1436  0.3043  0.1505
30693W        W47167  14.099  13.220   5.263  0.2534  0.1601  0.1649
30694W        W47168   2.266   7.583  13.025 -0.0550 -0.0160  0.0916
30695W        W47169  10.697  15.199  13.420 -0.0007 -0.3235  0.0754
30696W        W47170   6.838  18.124  14.481  0.0010  0.0905  0.1331
30697W        W47171   7.264   0.766   2.101  0.0918 -0.1400  0.0320
30698W        W47172   9.256   9.524   4.040 -0.0295 -0.0696  0.0591
30699W        W47173   1.749  15.520  13.453 -0.2082 -0.0551 -0.0106
30700W        W47174  12.685   9.908  14.892  0.2716 -0.0539 -0.0976
30701W        W47175   8.311   5.455  13.539 -0.0514  0.2433  0.1188
30702W        W47176   1.348  13.742   4.038 -0.0091  0.4876 -0.0237
30703W        W47177   8.787  11.902  11.209 -0.0980  0.2618 -0.3437
30704W        W47178  14.840  17.069   2.363  0.1446  0.1421 -0.4165
30705W        W47179  12.508   2.921   0.984 -0.0834 -0.1745 -0.1225
30706W        W47180  13.450   3.414   4.817 -0.0966  0.0235 -0.0818
30707W        W47181   5.553  10.690   2.464 -0.1007 -0.0419  0.0016
30708W        W47182   6.726   8.969   0.147  0.1989 -0.3174 -0.4116
30709W        W47183   0.032   6.535   1.919  0.0124 -0.0010  0.3724
30710W        W47184  16.841  17.222  11.233  0.1291  0.1645 -0.1389
30711W        W47185  13.503  18.090   3.589 -0.2224  0.1617 -0.1527
30712W        W47186   6.656   3.479   5.450 -0.2005  0.0683  0.2173
30713W        W47187  18.427   9.576   3.640 -0.0727 -0.1814 -0.1443
30714W        W47188  15.638   1.304   4.533  0.0892  0.2848  0.4464
30715W        W47189  17.683  13.929  14.950 -0.0841 -0.0962  0.2550
30716W        W47190   6.405   4.555   9.455 -0.2911  0.0866  0.0634
30717W        W47191   9.200  15.368   2.363  0.1278 -0.1778  0.3427
30718W        W47192   6.633  10.278  10.363  0.0918 -0.1998 -0.0935
30719W        W47193  17.053  10.404  13.811 -0.2623 -0.2893 -0.2316
30720W        W47194   5.178  16.037   3.178 -0.1948 -0.1190  0.2324
30721W        W47195   1.153   1.646  15.204 -0.2297  0.0928  0.1851
30722W        W47196  10.061  14.075   2.601 -0.0840  0.1355  0.0908
30723W        W47197  13.647   1.588  10.406 -0.3625 -0.0964  0.2375
30724W        W47198  12.546   5.885  13.318  0.1093 -0.0563 -0.4051
30725W        W47199   2.100  18.256   3.782  0.2720 -0.0900  0.3041
30726W        W47200   7.538   1.613  11.940  0.0324 -0.1799  0.0367
30727W        W47201  11.632   3.388   1.107  0.0170  0.0107 -0.1066
30728W        W47202  15.480   0.314   0.537  0.0920 -0.2266  0.4492
30729W        W47203   8.155   6.642  14.550  0.2410  0.1717  0.0571
30730W        W47204  11.674   5.049  13.734  0.0086  0.1868 -0.0895
30731W        W47205  11.033  12.044  11.621 -0.1579  0.1572  0.1246
30732W        W47206  15.665  11.369   4.115  0.0145  0.0911  0.0188
30733W        W47207   8.235   1.013  11.981  0.2438  0.1608  0.2708
30734W        W47208   3.780  17.026   2.352 -0.0075  0.1878 -0.1225
30735W        W47209   6.767  11.400   1.505  0.0402  0.1016 -0.2281
30736W        W47210   0.758   8.003   3.998  0.3129 -0.0157  0.2097
30737W        W47211   7.785  12.894   0.987 -0.0816  0.3446  0.0802
30738W        W47212  17.051  11.567   1.619  0.0228  0.0827  0.2371
30739W        W47213   1.836  14.810   3.721 -0.0267 -0.2486 -0.1965
30740W        W47214  17.353   2.893   0.006 -0.0634 -0.1743  0.3720
30741W        W47215   0.085  12.455  12.272 -0.2021  0.2039 -0.0626
30742W        W47216  16.959   9.262  15.480  0.2646 -0.2350 -0.1967
30743W        W47217  15.345   7.232   4.218 -0.0377 -0.2156  0.0688
30744W        W47218   4.499  11.045   9.070  0.3035 -0.1747 -0.0210
30745W        W47219  12.644  13.071   0.477 -0.1004  0.0908 -0.0960
30746W        W47220   5.067  11.705   1.520  0.1358 -0.0370 -0.1354
30747W        W47221   9.687   4.388   1.087  0.0087 -0.0620 -0.0550
30748W        W47222  15.810  15.212   1.394 -0.0793 -0.3647 -0.2210
30749W        W47223  11.568   0.443  13.732  0.0802 -0.1382 -0.0013
30750W        W47224   7.100   4.326   1.274  0.1372  0.1039  0.2311
30751W        W47225   2.435   5.058   2.190  0.1773  0.2159 -0.2722
30752W        W47226   4.028   5.700   3.000 -0.0287 -0.0099  0.0085
30753W        W47227   0.845  11.206  10.820 -0.1747  0.0314  0.2915
30754W        W47228   5.195   6.691  15.402  0.1172 -0.1061  0.0808
30755W        W47229   2.109   1.951  14.156 -0.2597  0.1393 -0.1212
30756W        W47230  11.951  17.996  13.200  0.0023  0.2438 -0.0597
30757W        W47231   0.140  11.323   1.580  0.1599  0.0985 -0.2086
30758W        W47232   9.334   4.826   1.157 -0.0017 -0.0167 -0.3538
30759W        W47233  16.404   6.427   4.545  0.0103 -0.1289  0.0636
30760W        W47234   2.542  13.723   1.600 -0.2835 -0.1109 -0.1904
30761W        W47235   8.773  18.074  11.693 -0.1624 -0.1009 -0.2119
30762W        W47236  15.135  16.403   4.851 -0.1715  0.1733  0.1906
30763W        W47237   1.157  17.854   0.798  0.1546  0.0239  0.0413
30764W        W47238   6.730  16.915  11.588  0.0859 -0.1289  0.2395
30765W        W47239   2.663  12.075   2.233  0.4141  0.3808  0.2139
30766W        W47240   8.389  14.650   0.679  0.0024  0.0809  0.1179
30767W        W47241   0.783  14.972  10.884 -0.0188 -0.3714  0.2124
30768W        W47242   1.208  16.980  13.817  0.0283 -0.0571 -0.2119
30769W        W47243   0.955  14.867   3.959  0.0322 -0.3002  0.0994
30770W        W47244  17.533  14.234   3.828  0.0420  0.2192 -0.0716
30771W        W47245   5.449  12.429   3.688  0.3297 -0.2027 -0.2849
30772W        W47246   4.032   3.834  13.279  0.0032  0.1676 -0.0027
30773W        W47247  18.160   3.268   0.568 -0.0125 -0.2106 -0.1746
30774W        W47248   6.189   2.657  11.999 -0.2968  0.1900  0.3019
30775W        W47249   4.783   3.053   0.035 -0.1612  0.0533  0.2230
30776W        W47250  17.838   3.400  11.962 -0.1260  0.1951  0.0030
30777W        W47251   2.770   1.283   3.528  0.3267 -0.0291  0.2015
30778W        W47252  14.976   6.597   3.443 -0.3047 -0.0986  0.1223
30779W        W47253   3.103  11.344   4.508 -0.0541 -0.0351 -0.2742
30780W        W47254  17.648   9.743  14.865  0.1888 -0.1713  0.1248
30781W        W47255   9.918  13.926   5.249  0.1536  0.0945  0.2654
30782W        W47256  17.979   6.308   4.372 -0.0226  0.0066  0.0130
30783W        W47257   3.397  10.724   1.076 -0.0006 -0.1657  0.0599
30784W        W47258  11.374   2.062   4.323 -0.0914  0.2376 -0.1919
30785W        W47259   4.355  17.293  10.956  0.3083  0.1175 -0.0755
30786W        W47260   8.180   1.438  13.046  0.0253  0.3854  0.2719
30787W        W47261  11.060  13.603   3.856  0.0879 -0.0361  0.2473
30788W        W47262   0.321  12.001  13.563  0.2413 -0.0389 -0.1335
30789W        W47263   4.357  14.960   3.971  0.1339  0.2222 -0.3498
30790W        W47264   4.681  13.013  14.751 -0.0896  0.0294  0.3965
30791W        W47265  13.749   7.963   4.348  0.0313  0.0038  0.0192
30792W        W47266  14.021   1.659  10.846 -0.4567  0.3008 -0.0349
30793W        W47267  15.492   6.485  14.014 -0.0593  0.2592  0.0566
30794W        W47268  14.980   9.641   2.552  0.1178 -0.0824 -0.1809
30795W        W47269   9.906  18.523   3.102 -0.1212 -0.0788  0.1128
30796W        W47270  17.327  16.733   0.457 -0.3224  0.1152 -0.0245
30797W        W47271   3.080   0.964  14.493 -0.2171  0.3211 -0.0357
30798W        W47272  12.305  13.038  14.370 -0.2457  0.1488 -0.0062
30799W        W47273  15.355  14.351  14.776  0.0709  0.0593 -0.0924
30800W        W47274  15.300   3.569   4.065 -0.1789  0.1694  0.0413
30801W        W47275  18.052  12.933   1.552  0.1925  0.0797  0.0870
30802W        W47276   5.724  10.507  12.245 -0.0219 -0.1535  0.3637
30803W        W47277   3.274  18.385   3.522 -0.1998  0.2239  0.2027
30804W        W47278  15.386  16.703   4.541 -0.1936 -0.0441  0.2160
30805W        W47279   7.848  10.512   1.831 -0.2091 -0.1837 -0.0540
30806W        W47280   4.155   4.711   2.004 -0.0745 -0.0131  0.2154
30807W        W47281   8.410   4.134   1.725 -0.1105  0.1088  0.1665
30808W        W47282  14.585   9.789  10.072  0.2596 -0.0727 -0.0461
30809W        W47283  10.017  13.728   5.677 -0.2469  0.0112 -0.1412
30810W        W47284   9.069  11.080  11.994 -0.0504  0.1362 -0.1874
30811W        W47285  10.538   8.494   4.310  0.2115 -0.0448 -0.0520
30812W        W47286  11.608  13.276   0.870 -0.0106  0.0116  0.1450
30813W        W47287   5.947  18.108  13.524  0.1518  0.0479  0.1793
30814W        W47288   0.862  16.963  12.156  0.2114  0.0396 -0.2163
30815W        W47289  14.909  14.733  10.575 -0.0552  0.3132 -0.0529
30816W        W47290  11.954   3.287   4.664  0.1267 -0.1038  0.0255
30817W        W47291   2.896  11.653  14.357  0.3994  0.3155 -0.2002
30818W        W47292   6.485   9.700  14.602  0.0038 -0.2537 -0.1635
30819W        W47293   7.148   7.562  12.459  0.0060 -0.2224 -0.1308
30820W        W47294   8.243   8.811  10.332 -0.2127 -0.1128 -0.1033
30821W        W47295   5.589   0.694   2.434 -0.0346  0.1016 -0.0151
30822W        W47296   1.986  12.482   4.765 -0.0586  0.2415 -0.3610
30823W        W47297  15.491   6.776  11.932 -0.1582 -0.0427 -0.0395
30824W        W47298  13.698  16.585  13.414  0.0992  0.3592 -0.0172
30825W        W47299   0.283  15.574  13.780 -0.0810 -0.0713  0.1414
30826W        W47300  12.201  15.780   4.101 -0.0091  0.0115 -0.0649
30827W        W47301  13.027  10.385   5.284 -0.0380  0.0035 -0.0756
30828W        W47302   3.309   5.813   1.282 -0.0876  0.1967 -0.0662
30829W        W47303   4.710  17.496  11.715 -0.1042 -0.2159 -0.0868
30830W        W47304  17.696   9.823   9.947  0.2293 -0.0445  0.1635
30831W        W47305   5.227   2.692  14.740 -0.1838  0.2805  0.1791
30832W        W47306  10.408   4.292  15.493  0.2934 -0.0347  0.1652
30833W        W47307  13.918   5.400   1.004  0.3881 -0.5179  0.2212
30834W        W47308   8.086  14.120  11.018  0.0197 -0.2574 -0.2923
30835W        W47309  17.055   5.152   1.689  0.1236  0.2443  0.1090
30836W        W47310  18.451   8.145  13.971  0.2656 -0.0097 -0.0159
30837W        W47311  11.265   1.003  12.250 -0.1758 -0.2351 -0.1467
30838W        W47312  13.114  16.654  15.115 -0.0013  0.2615 -0.0663
30839W        W47313   8.590  13.347   5.547  0.2178 -0.0060  0.0072
30840W        W47314  11.510   2.663  10.078  0.0339  0.4894 -0.1404
30841W        W47315  14.457  17.121   1.932  0.0261 -0.1205 -0.1853
30842W        W47316   3.179  14.106  11.576 -0.1175 -0.0177 -0.5228
30843W        W47317   4.612  10.618  14.801  0.4050  0.0640  0.2021
30844W        W47318  11.098  16.087   0.644 -0.0677 -0.1132  0.0335
30845W        W47319   4.378   4.460  13.182 -0.0284  0.3524  0.1127
30846W        W47320  15.399  10.028  13.811 -0.1431  0.0871  0.0950
30847W        W47321   6.192   2.747  14.791 -0.0144  0.1710 -0.1264
30848W        W47322   3.231  11.520   0.291  0.0459 -0.0447  0.2335
30849W        W47323  11.573  16.099  11.770  0.3072  0.1210  0.0869
30850W        W47324  11.957   0.987  14.872 -0.3004  0.1165 -0.0556
30851W        W47325  11.935   5.342  11.001 -0.2095 -0.0068  0.1280
30852W        W47326   0.733  18.081  11.576  0.1849 -0.0664  0.1354
30853W        W47327   5.671  17.275  11.934  0.0911 -0.1007 -0.3202
30854W        W47328   5.277   8.142  10.905  0.1326  0.0501 -0.1050
30855W        W47329   5.798  16.428  12.266  0.2614  0.0903  0.1560
30856W        W47330   6.275  11.909  15.047  0.0564  0.0313  0.1175
30857W        W47331   4.275  11.109   0.661 -0.2992  0.1645 -0.2071
30858W        W47332  14.317  15.488   2.431  0.1137  0.0552 -0.0488
30859W        W47333  16.750  17.536  14.983  0.2240  0.2164 -0.3420
30860W        W47334   4.643  10.644   4.718  0.3997 -0.0805 -0.0806
30861W        W47335   0.730  10.322  10.927 -0.1181 -0.1807  0.0970
30862W        W47336  11.994   7.155  15.063 -0.0055  0.2056  0.1278
30863W        W47337   1.760  12.960   5.557 -0.1513  0.0415 -0.2287
30864W        W47338  15.766   8.297  13.994 -0.2987  0.1828 -0.1808
30865W        W47339  10.481  15.401   1.273  0.0114 -0.1103  0.4313
30866W        W47340   3.166  10.345   3.154  0.0712  0.0215  0.1695
30867W        W47341   6.967   6.750   2.992 -0.0046  0.2330  0.1345
30868W        W47342   9.613  15.434   6.177  0.0805 -0.0602  0.2950
30869W        W47343   1.832   7.915  15.140 -0.2170  0.1924  0.0976
30870W        W47344   0.504   5.586   2.700 -0.0372 -0.1363 -0.3558
30871W        W47345   0.539  13.046   1.038  0.3861 -0.0256 -0.0577
30872W        W47346   5.360  14.071  12.230  0.2399  0.1678  0.0835
30873W        W47347   3.493  13.710  12.454 -0.0984  0.0035  0.1607
30874W        W47348  15.457  13.263   2.450  0.0805 -0.5114  0.1281
30875W        W47349  10.596   0.055  12.797 -0.0284  0.0150  0.0695
30876W        W47350   2.014  16.987   1.613 -0.3988 -0.0669  0.2072
30877W        W47351   2.302   0.484   3.341 -0.1491 -0.1561  0.2268
30878W        W47352   6.499   9.349   3.849  0.1082 -0.0930 -0.0975
30879W        W47353   4.965   5.052   0.473 -0.0459 -0.0098 -0.0440
30880W        W47354   0.817   9.256  11.300 -0.0155 -0.3068  0.1876
30881W        W47355   6.714   6.920   3.980  0.0810 -0.2854 -0.2121
30882W        W47356  15.411  10.886  11.539  0.1884 -0.0480 -0.1952
30883W        W47357   9.452  18.356   2.383 -0.1940  0.0417  0.1206
30884W        W47358  17.979   5.841   2.958  0.0260  0.0162 -0.1206
30885W        W47359  16.198   9.772   3.890 -0.2305 -0.2137 -0.1400
30886W        W47360  11.545  13.960   1.256 -0.1622 -0.0362  0.0948
30887W        W47361   4.747  12.513   3.064 -0.0840  0.0190 -0.5404
30888W        W47362  15.784  15.324   4.338 -0.2354  0.1048 -0.1831
30889W        W47363   9.109  17.986   3.467  0.2372  0.1244  0.1949
30890W        W47364   8.633   0.026  12.634  0.0928  0.2139 -0.2275
30891W        W47365  14.507  14.178  14.631  0.0417 -0.2349  0.2663
30892W        W47366   1.665   0.005   2.665  0.1807 -0.0148  0.2985
30893W        W47367  15.649   8.336  10.769 -0.0338 -0.5127  0.0052
30894W        W47368   8.821   9.123   1.886  0.0426 -0.0204  0.0577
30895W        W47369   3.990   5.607   2.142 -0.0342 -0.1455 -0.0055
30896W        W47370   1.744   1.842  10.924  0.0073  0.0858 -0.0371
30897W        W47371  13.558  13.375  11.844  0.2743 -0.2277 -0.2086
30898W        W47372  16.986  16.068   5.397  0.1831 -0.0120 -0.0837
30899W        W47373  16.672  16.382  13.143 -0.2753  0.0709  0.2401
30900W        W47374  12.842   7.574  11.718  0.0297  0.0239  0.0931
30901W        W47375  15.776   2.939  11.541  0.0820 -0.1559 -0.0523
30902W        W47376   6.471  15.618   4.482  0.0293 -0.0241  0.0100
30903W        W47377   5.601  18.061  15.452 -0.0256 -0.2029  0.1158
30904W        W47378   5.987   5.286  13.972  0.2957  0.0265 -0.1153
30905W        W47379  18.370   1.954  11.009 -0.3066  0.2259 -0.1222
30906W        W47380  15.329  12.145  14.869  0.0268 -0.1051  0.2349
30907W        W47381  17.563  13.250  13.084  0.0069 -0.0660  0.0008
30908W        W47382  17.191   9.577  15.083 -0.0346 -0.1716  0.0174
30909W        W47383   7.796   1.265  12.325 -0.3226  0.0733  0.1606
30910W        W47384  11.318   3.767  14.352  0.0136  0.0114 -0.2250
30911W        W47385  17.118   6.904  11.168 -0.3319 -0.0731 -0.1127
30912W        W47386  14.021   0.899   3.633 -0.0824  0.0572  0.1722
30913W        W47387  18.560   5.254   3.502 -0.1808 -0.4986  0.1610
30914W        W47388   0.224   4.951   0.321  0.1932 -0.1536  0.1348
30915W        W47389   6.905  15.040  13.153  0.0230 -0.0263  0.1022
30916W        W47390  18.623  15.279  14.849 -0.0642 -0.5754  0.3162
30917W        W47391   9.574  16.402  14.892 -0.0794  0.0038 -0.1514
30918W        W47392   7.655  13.808   1.451 -0.0947  0.0504 -0.0812
30919W        W47393  15.598   7.818  13.894 -0.1432  0.3587 -0.1135
30920W        W47394   3.038   0.255   4.040 -0.0592 -0.0604  0.2721
30921W        W47395  12.531  16.015   4.915  0.2105 -0.0273  0.1197
30922W        W47396  14.928   3.505   1.013  0.0087 -0.2270  0.1712
30923W        W47397   2.180  11.984  11.305  0.0447  0.5064  0.1991
30924W        W47398  10.222   9.565   4.430  0.3608  0.1766  0.0208
30925W        W47399   9.902   7.701   2.897  0.3164  0.0235  0.5770
30926W        W47400  13.368  16.142   0.810  0.4588 -0.0857  0.1980
30927W        W47401  12.458  16.555  14.272  0.2526 -0.1148 -0.0568
30928W        W47402   0.156   7.222   2.629  0.1074 -0.1522 -0.1035
30929W        W47403  10.207   7.324   5.462  0.5655  0.1540 -0.1135
30930W        W47404  11.679  11.128  14.858  0.1213 -0.0886 -0.1909
30931W        W47405   0.168  15.801   5.736  0.3693  0.2714 -0.2796
30932W        W47406  12.376   1.261   4.507 -0.3251 -0.0910  0.0981
30933W        W47407   6.618   2.814  11.622 -0.0215  0.1693  0.0982
30934W        W47408   0.660   1.880  11.810 -0.2269  0.4049 -0.1233
30935W        W47409   1.864  17.772   2.221 -0.1827 -0.0211  0.0704
30936W        W47410   6.301  16.207   2.180 -0.2045 -0.0981 -0.4095
30937W        W47411  12.610  14.010  12.789 -0.0455  0.1335  0.2673
30938W        W47412   2.656   3.080   5.403 -0.1646 -0.0563 -0.0152
30939W        W47413   7.794  12.470   4.802  0.0184 -0.3398 -0.1273
30940W        W47414  16.282   8.167  14.689 -0.2863  0.0138  0.1445
30941W        W47415   6.670   9.229   0.635  0.0875  0.1742 -0.4207
30942W        W47416  15.416   4.111   3.755  0.0282  0.1401  0.1274
30943W        W47417   3.969   3.501   1.475  0.2096  0.2266  0.0260
30944W        W47418   1.935   0.200  13.842  0.1420  0.2498 -0.1101
30945W        W47419   4.969  11.110   1.741 -0.2495  0.0081 -0.0900
30946W        W47420   3.429  18.218   2.662 -0.2363  0.3170  0.0022
30947W        W47421   5.093   6.247   5.092  0.3249 -0.0353 -0.1321
30948W        W47422  11.348  18.387   2.733 -0.0853 -0.1194  0.0121
30949W        W47423   7.682   7.012  13.869  0.0235  0.0170  0.2011
30950W        W47424  16.293  16.191  10.381 -0.3727  0.1713  0.3302
30951W        W47425   0.938   1.611   2.803 -0.1527 -0.1598  0.3638
30952W        W47426  11.147  18.653   5.556  0.2218 -0.0612 -0.0454
30953W        W47427  17.529   6.093   3.141  0.0520  0.2451  0.0926
30954W        W47428   8.252   9.816  11.027 -0.1043  0.0572 -0.1220
30955W        W47429   2.710  17.252  12.409 -0.0841  0.2851  0.0903
30956W        W47430   5.075  18.645  12.969  0.3245 -0.2290  0.3579
30957W        W47431  13.524  13.002   4.504 -0.2943  0.0059  0.2330
30958W        W47432   6.410   5.494   4.525 -0.3363  0.2498  0.1333
30959W        W47433  16.750   2.002   5.545 -0.1009  0.0502  0.2739
30960W        W47434   9.076  16.617  11.935  0.0642  0.1549  0.2847
30961W        W47435   6.195  17.596  12.107  0.0561 -0.0840 -0.1782
30962W        W47436   0.052   2.314   3.072 -0.3104 -0.1605 -0.0073
30963W        W47437   9.374   6.953  13.135  0.0973 -0.0519 -0.3039
30964W        W47438  12.899  15.624   3.363 -0.2525 -0.0259  0.0112
30965W        W47439   0.418  13.672   4.030  0.0892  0.1049  0.4209
30966W        W47440   6.464  10.642  10.662 -0.3892  0.2445  0.0341
30967W        W47441   0.529   3.198   0.926  0.0160  0.1766 -0.4438
30968W        W47442  15.678   1.006  14.467  0.0829  0.0080 -0.0934
30969W        W47443   6.452   0.522   5.049 -0.0981  0.0569  0.1668
30970W        W47444   3.379   1.544  15.110 -0.1970 -0.2495 -0.0577
30971W        W47445  10.574  13.725   3.777  0.0240  0.1723 -0.1984
30972W        W47446   9.698   2.103  15.272  0.0336  0.0927 -0.4672
30973W        W47447   5.405  17.517   3.454 -0.0937 -0.0563 -0.0211
30974W        W47448  10.289  12.069  14.681  0.0128  0.0502 -0.1972
30975W        W47449  14.414   9.344   3.660 -0.1797  0.2388 -0.2052
30976W        W47450   2.612  10.174  10.527  0.1145 -0.1804  0.2747
30977W        W47451   5.984   9.956  11.437 -0.3373 -0.1144  0.1236
30978W        W47452   5.269  15.064  12.403  0.0754  0.0526 -0.0871
30979W        W47453  13.963  17.158   0.666 -0.2804 -0.0041 -0.0724
30980W        W47454   3.710  12.890  13.775 -0.0427 -0.1795  0.0730
30981W        W47455   6.244   1.097  11.504 -0.0192  0.0020  0.1731
30982W        W47456  15.485  15.141  11.971 -0.0162 -0.1419  0.3750
30983W        W47457  14.008  15.220  15.224 -0.0481  0.1295 -0.1290
30984W        W47458   0.912   3.271   4.138  0.1149  0.1156 -0.1397
30985W        W47459  14.767  14.709  15.188  0.1336  0.1110  0.1169
30986W        W47460  15.205   6.196   3.197  0.0799  0.2188  0.2400
30987W        W47461   9.056   1.950   3.561 -0.2288 -0.1583  0.1233
30988W        W47462  12.656   3.951   4.685  0.1657  0.1643 -0.2286
30989W        W47463   3.798   1.992   3.280  0.0321 -0.4221  0.2470
30990W        W47464  10.567   6.001   0.189  0.0206  0.2523 -0.1635
30991W        W47465   2.498  17.135  14.174 -0.1530  0.1647 -0.0738
30992W        W47466  15.676  12.705  13.176 -0.1344 -0.1353 -0.1473
30993W        W47467   2.781  18.147   1.182 -0.0282 -0.1543 -0.2650
30994W        W47468  16.470  11.527   0.220 -0.1282 -0.1881  0.1789
30995W        W47469  11.370   3.596  11.144 -0.4144  0.3954  0.3037
30996W        W47470  16.001  14.537   1.236  0.1084  0.3248  0.1639
30997W        W47471   3.057   9.080   2.924 -0.1288  0.2297  0.1874
30998W        W47472  15.108   1.275  12.331 -0.0619 -0.3424  0.4014
30999W        W47473  17.270  18.568   4.997 -0.0548 -0.1952  0.1230
31000W        W47474  18.758  17.283  12.294 -0.2815  0.1765  0.1863
31001W        W47475   0.294   4.481   4.529 -0.0860  0.0387 -0.0242
31002W        W47476  13.261   1.207  14.541 -0.0282  0.2375  0.0283
31003W        W47477  12.406   6.234   3.697 -0.2226  0.0369 -0.3514
31004W        W47478   2.340  14.582   3.556 -0.0500 -0.1513  0.2643
31005W        W47479  14.881   4.629   3.770 -0.1833  0.4964  0.2054
31006W        W47480   9.320   4.022   1.724 -0.2144 -0.1326 -0.0416
31007W        W47481  16.907   6.715  12.626 -0.0476 -0.1118 -0.1517
31008W        W47482  13.111  16.149   3.338 -0.0175  0.0740  0.0544
31009W        W47483  15.223   0.528  14.168  0.2560  0.2573  0.0434
31010W        W47484   5.859  13.165  14.894  0.1248  0.3967  0.0753
31011W        W47485  17.169   0.306  12.803  0.2163 -0.2616 -0.2940
31012W        W47486  14.720   2.823   0.958 -0.0413  0.1804  0.0124
31013W        W47487  11.290   0.938   3.348 -0.0928 -0.1278 -0.1113
31014W        W47488   9.927   8.939   2.494 -0.0625 -0.3002 -0.1267
31015W        W47489   6.858   2.560   2.760 -0.1841 -0.1686  0.0858
31016W        W47490  11.569  10.342  12.940  0.1640  0.0255 -0.2612
31017W        W47491  13.649  10.733  14.643  0.2478  0.1336 -0.0918
31018W        W47492   1.513  16.029  14.347 -0.0608  0.0426 -0.0366
31019W        W47493  14.403  14.083   4.782  0.2118  0.0323 -0.0668
31020W        W47494  16.939  10.618  11.884 -0.2389 -0.4907  0.0846
31021W        W47495  13.061  15.369  13.681 -0.1186  0.2171 -0.0482
31022W        W47496   7.968   1.415   2.799 -0.1866 -0.0494  0.0877
31023W        W47497  12.070  18.140   4.565 -0.0136 -0.0352  0.0643
31024W        W47498   6.842  11.382  10.599 -0.2395 -0.1408 -0.0611
31025W        W47499  11.087   6.441  11.030  0.1264  0.0775 -0.0222
31026W        W47500   8.218  17.213  11.139  0.0904  0.0834  0.1634
31027W        W47501   8.106  18.058   2.738  0.2636  0.1817 -0.0438
31028W        W47502   6.384   7.380  13.082 -0.1194  0.1798  0.0578
31029W        W47503   3.804   9.758  12.732  0.3950  0.2169  0.0270
31030W        W47504  10.941   2.974  14.765  0.0190  0.0130  0.0812
31031W        W47505   6.753   3.677  13.480  0.1213 -0.0197  0.0123
31032W        W47506  12.604   9.325   2.352 -0.0344  0.2116 -0.2759
31033W        W47507   3.431  14.925   0.220  0.1363  0.2479  0.0247
31034W        W47508   9.446  17.967  15.409 -0.1559  0.3634 -0.0275
31035W        W47509   0.097   6.547   4.163 -0.2132 -0.0924  0.0209
31036W        W47510  16.453   6.991   2.325  0.1713  0.1917  0.2414
31037W        W47511  13.205  14.247   1.472 -0.0639 -0.1052  0.1783
31038W        W47512   7.069   2.539  11.536  0.3886  0.1082  0.2381
31039W        W47513   6.038   7.028  10.250 -0.0472  0.1856 -0.0097
31040W        W47514  12.789   6.159   2.762  0.4188 -0.0030 -0.2663
31041W        W47515  16.061   6.346   5.402  0.0381  0.2031  0.0222
31042W        W47516  10.315   6.788   2.854 -0.3010 -0.1387 -0.0746
31043W        W47517   0.226  18.627  14.081  0.0776  0.0347 -0.2158
31044W        W47518   6.226  14.035   3.240  0.1952  0.2609 -0.1272
31045W        W47519   5.747  14.906  11.229 -0.1768  0.2126 -0.2365
31046W        W47520  11.232  17.023   2.527 -0.0090  0.0281 -0.0088
31047W        W47521   4.631   7.542  14.913 -0.1329 -0.3113 -0.1589
31048W        W47522   2.377   0.360   1.524  0.2079  0.1688  0.2055
31049W        W47523  17.255  10.820   2.597 -0.1249 -0.0645 -0.0716
31050W        W47524  17.523  14.924  13.144 -0.0167  0.0139  0.1256
31051W        W47525  12.172  10.993   1.051 -0.1919  0.1581 -0.0023
31052W        W47526  13.778  18.467  11.898 -0.2672  0.0069  0.0182
31053W        W47527   2.474   5.616   0.649 -0.0680 -0.0737  0.2530
31054W        W47528   6.607  14.374  10.084 -0.2790 -0.2261  0.0178
31055W        W47529  17.663   2.778   1.277  0.1092  0.0217  0.3540
31056W        W47530  17.733   7.521   4.228 -0.1588 -0.0771  0.1368
31057W        W47531  14.109   8.193   2.804  0.0607  0.1439  0.4167
31058W        W47532   5.691   3.259   0.674  0.1162 -0.1839  0.1495
31059W        W47533  11.472  15.842  13.603 -0.2332 -0.2248 -0.3108
31060W        W47534  11.272   1.449   5.547  0.0714  0.0218  0.0226
31061W        W47535  11.551  18.102  12.294 -0.1343  0.0541  0.0434
31062W        W47536   9.372  18.143  14.870 -0.0768 -0.1701 -0.1390
31063W        W47537  18.531   8.409  11.116  0.1019 -0.1986 -0.0791
31064W        W47538   6.829  10.397  14.095  0.2696  0.1624  0.1376
31065W        W47539   6.347   7.651   0.357  0.0923 -0.0494  0.0081
31066W        W47540   5.681  18.068   3.504 -0.1260  0.0489  0.0473
31067W        W47541  12.009   5.939  14.061 -0.0273  0.0754 -0.1994
31068W        W47542   0.475   2.517   3.893  0.2469  0.2752  0.1317
31069W        W47543   7.564  16.074   0.419 -0.0643  0.0181  0.1749
31070W        W47544   9.319   7.145  15.078  0.2346  0.3247  0.2093
31071W        W47545  16.990  16.103  11.763 -0.0115 -0.0443  0.0651
31072W        W47546  10.295   4.311   0.447 -0.3782  0.2032 -0.1953
31073W        W47547  10.022  17.940  15.388 -0.0298  0.1188 -0.1756
31074W        W47548   9.226  12.218   1.073  0.0341 -0.1477  0.1739
31075W        W47549  17.250   3.481  14.769 -0.0490  0.1567 -0.0257
31076W        W47550   2.478  15.055  12.264  0.1425  0.0729  0.0120
31077W        W47551   4.864  17.826   4.823 -0.4539  0.1135 -0.0675
31078W        W47552  15.563   4.332  14.074  0.1257  0.0460  0.3677
31079W        W47553   9.005   6.302  13.558 -0.3422  0.1267 -0.0346
31080W        W47554   7.698  13.000   2.422  0.1904 -0.5175 -0.0713
31081W        W47555  12.287   4.926   0.746  0.3375 -0.2015 -0.1317
31082W        W47556   0.829  10.811  11.138 -0.1197  0.1791 -0.0704
31083W        W47557  13.056   5.262   4.546  0.0263  0.1173  0.1823
31084W        W47558   0.216   0.011   4.919  0.1069  0.2006  0.1811
31085W        W47559  15.969  17.973   2.438 -0.1673  0.0230 -0.1792
31086W        W47560  14.287  10.006  12.103 -0.0322 -0.0310 -0.0544
31087W        W47561  13.744  14.837  11.593 -0.0487 -0.0582  0.0272
31088W        W47562  18.153   0.007   3.934 -0.2530 -0.1191 -0.4192
31089W        W47563  13.764  10.825  12.269  0.1952  0.2671  0.1253
31090W        W47564   9.504   2.499   0.235 -0.2778  0.0312  0.0143
31091W        W47565  17.784  17.560   2.682 -0.1464  0.0306  0.0557
31092W        W47566  17.192   5.082   5.351 -0.0253 -0.3303 -0.0020
31093W        W47567   3.432   5.303   0.157 -0.0229 -0.1106  0.2399
31094W        W47568   6.281   8.500   4.374 -0.2254 -0.1696 -0.2724
31095W        W47569   0.589   0.858   4.509  0.3248  0.1812  0.0680
31096W        W47570  18.017  13.970   2.137 -0.1036 -0.1128 -0.0260
31097W        W47571   0.094   7.351  12.900 -0.0261  0.0803  0.1023
31098W        W47572   9.130  11.493  15.314  0.4692  0.0239 -0.3803
31099W        W47573   3.893   8.147  14.579 -0.1101 -0.0584 -0.0449
31100W        W47574   4.820  14.806  13.949 -0.3428 -0.0284 -0.2648
31101W        W47575   3.975  12.553  12.003 -0.0823  0.0906  0.0153
31102W        W47576   9.827   6.643  12.150  0.2014  0.3101  0.1211
31103W        W47577  14.617   4.684  14.693 -0.0527 -0.1405 -0.0370
31104W        W47578  10.060  14.208  14.014  0.1462 -0.0097  0.0844
31105W        W47579   4.332  14.379  12.387  0.3587  0.4601  0.3952
31106W        W47580   7.616   1.112   1.352  0.0441  0.1479  0.1753
31107W        W47581   9.105  14.895   3.058  0.2208 -0.2833 -0.1320
31108W        W47582   7.250   5.009   2.235 -0.0637  0.0054  0.2102
31109W        W47583   2.952  17.127   0.651 -0.1682 -0.2408  0.0800
31110W        W47584   4.117  16.945  11.989  0.1600  0.1388 -0.0057
31111W        W47585  13.181  12.150  14.279  0.2116 -0.1873  0.2561
31112W        W47586  10.377  14.003  12.022  0.1543 -0.6023  0.0047
31113W        W47587   3.606  14.430   4.181 -0.0405 -0.2961 -0.1301
31114W        W47588   2.527  13.778  12.094  0.1318 -0.3070 -0.0068
31115W        W47589  13.743  18.231  12.393 -0.0825  0.2329 -0.1264
31116W        W47590   5.225   0.774  10.599  0.0957  0.0034 -0.2279
31117W        W47591   6.180  17.715  12.815  0.0990 -0.0181 -0.0207
31118W        W47592  18.669  15.799   1.329 -0.1735 -0.2606  0.0432
31119W        W47593  15.204  14.230   0.633  0.1027  0.0696  0.2867
31120W        W47594   9.707   4.551   2.891 -0.2304  0.2237  0.3488
31121W        W47595   7.528  14.559   3.915 -0.2024 -0.1479 -0.1644
31122W        W47596  12.910   2.972  11.203 -0.0523 -0.3018  0.0983
31123W        W47597   7.730   9.165   2.884  0.0516 -0.1680  0.1519
31124W        W47598   9.069   6.934   1.940  0.0596 -0.2768 -0.0795
31125W        W47599  13.025  14.446  13.848 -0.2257  0.3299 -0.3286
31126W        W47600   2.565   5.723   0.067 -0.1804  0.2747  0.0247
31127W        W47601  16.062  17.589  12.803 -0.1984  0.0840 -0.1527
31128W        W47602  18.004  10.230   4.787  0.0719  0.0786 -0.0157
31129W        W47603  17.631  14.798   0.091  0.0444 -0.0268 -0.2061
31130W        W47604  11.232  11.121   2.692 -0.2697  0.0565 -0.3299
31131W        W47605  17.376   6.988  11.626  0.2814  0.0202 -0.2968
31132W        W47606  12.508  10.509   0.928 -0.2318  0.0187 -0.0367
31133W        W47607   7.584   6.198  10.460 -0.0880  0.0476  0.2312
31134W        W47608  16.374   1.993   0.056 -0.6160  0.0861  0.3406
31135W        W47609   3.810   0.657   3.614 -0.0253 -0.3677  0.0230
31136W        W47610  16.514   8.332   2.260 -0.3503  0.0440 -0.0479
31137W        W47611  17.694   8.389   3.590  0.0592 -0.0014  0.2355
31138W        W47612  11.262   1.841   5.209  0.0058  0.0386 -0.1451
31139W        W47613   1.725  16.446  12.887  0.1935  0.0002  0.0058
31140W        W47614   9.064  13.866  13.984 -0.1057 -0.2044  0.0726
31141W        W47615   8.068   4.272   0.247  0.0582 -0.0098 -0.2849
31142W        W47616  16.639  11.634  14.378 -0.2108 -0.0905 -0.2178
31143W        W47617   1.601  16.402   1.161 -0.0276 -0.0074  0.0478
31144W        W47618   0.023   1.746   3.903  0.0997 -0.0202  0.0779
31145W        W47619   3.856  10.261  12.663  0.2386  0.0908  0.0866
31146W        W47620  15.683  10.849  13.372 -0.0935  0.0657 -0.1001
31147W        W47621   1.604   1.287  10.853 -0.2745  0.1999 -0.1594
31148W        W47622   6.857   9.898  11.668  0.0637  0.3092 -0.0173
31149W        W47623   3.752   3.008  15.303  0.0976 -0.3948 -0.2123
31150W        W47624   7.295   4.848  14.617 -0.2958  0.1716  0.1938
31151W        W47625  13.624  11.689  15.357 -0.1379  0.0577 -0.1001
31152W        W47626   1.392   2.662  10.712 -0.1778 -0.0166 -0.0101
31153W        W47627  14.392  17.146  15.258 -0.3319  0.2754  0.0574
31154W        W47628   8.420   6.793   2.516  0.2054  0.0073  0.1733
31155W        W47629  16.613  11.657   2.019  0.4344 -0.1585  0.0769
31156W        W47630   0.843  16.619   2.397 -0.1510 -0.0156  0.2516
31157W        W47631   4.832   0.182   0.918  0.1562 -0.0718 -0.2345
31158W        W47632  13.123   3.515   5.326  0.0899  0.0967  0.1660
31159W        W47633  16.743  13.949   4.217 -0.0132 -0.0660  0.0830
31160W        W47634  14.367   1.029   4.433 -0.1675 -0.1607 -0.1491
31161W        W47635  18.618   7.382  15.469 -0.2178  0.0573 -0.1121
31162W        W47636  17.601   7.817  14.380 -0.1868 -0.0294  0.0012
31163W        W47637   4.719   9.797  14.443  0.2868  0.0425 -0.2301
31164W        W47638  10.121   9.459   0.435 -0.2217  0.2346 -0.1361
31165W        W47639  13.054   0.763   2.135 -0.3808 -0.0967  0.0658
31166W        W47640   4.153  10.550   1.561 -0.1838  0.0052 -0.0862
31167W        W47641  12.170  13.066  15.331  0.1120 -0.0359 -0.1416
31168W        W47642  13.140   9.703  15.129 -0.2669 -0.3084  0.3184
31169W        W47643   2.673   5.969  14.225  0.0868  0.0803  0.0481
31170W        W47644  16.881  11.112   3.498 -0.1953  0.0507 -0.2066
31171W        W47645   4.634   4.460  15.268 -0.5807 -0.0059 -0.1905
31172W        W47646   9.116   0.672   4.062  0.1506 -0.1198  0.0837
31173W        W47647  10.501   6.612   0.097  0.2782  0.1346  0.0850
31174W        W47648  15.103  14.912   2.728  0.2210  0.3808  0.1716
31175W        W47649   5.737   2.473  14.859 -0.2872 -0.0766 -0.2640
31176W        W47650  15.449   6.707  12.976 -0.1222  0.1066  0.0058
31177W        W47651   2.588  14.946  14.541  0.2550 -0.0063 -0.1784
31178W        W47652  15.015  10.498   2.951 -0.2282 -0.0263  0.2337
31179W        W47653   4.941  10.754  14.439  0.0894  0.0773  0.0042
31180W        W47654   1.324   1.226  11.265  0.0372 -0.1635 -0.2791
31181W        W47655   3.488  12.211  10.292 -0.0730 -0.2209 -0.2412
31182W        W47656  12.532  18.152   4.751 -0.0687  0.5468  0.3372
31183W        W47657   3.939  16.004  15.068  0.1207 -0.0835  0.1346
31184W        W47658  10.620   2.473  15.372  0.1572 -0.1322  0.0085
31185W        W47659  13.919  17.779   0.733 -0.1769  0.1916  0.2865
31186W        W47660   1.944   5.613   5.178 -0.0478  0.1027 -0.1803
31187W        W47661   5.572   5.472  14.302 -0.0159  0.1430 -0.1380
31188W        W47662  18.707   0.543  13.070 -0.1936 -0.0126 -0.1815
31189W        W47663   2.380   1.996   2.658 -0.2025 -0.0369 -0.1257
31190W        W47664   6.254  15.229  12.097  0.1969  0.2012 -0.0769
31191W        W47665   6.000  18.562  12.678  0.0467  0.0767  0.3056
31192W        W47666  15.617   2.418   0.318 -0.0962  0.0240 -0.0851
31193W        W47667  13.369   3.725   2.754  0.0941 -0.2727 -0.0827
31194W        W47668  14.551  10.085  15.458  0.0880 -0.1379 -0.1646
31195W        W47669  10.411  16.344  13.236  0.2825  0.0145 -0.2969
31196W        W47670  15.770   5.560  14.822 -0.3804  0.0504 -0.1049
31197W        W47671  15.570  15.893  13.667  0.3590  0.2176 -0.1570
31198W        W47672   5.103  18.072   2.273  0.0628 -0.1043 -0.2892
31199W        W47673   2.266   4.869  10.434  0.2017 -0.1401 -0.3088
31200W        W47674   5.801   2.346   2.899 -0.4072 -0.4127  0.6123
31201W        W47675  18.445  14.696   9.701 -0.0859  0.0811 -0.1094
31202W        W47676  17.551   1.401   5.956 -0.2935 -0.1785 -0.1727
31203W        W47677  14.333  13.704   1.170  0.0129  0.1561 -0.3163
31204W        W47678  14.570  11.824  12.669  0.0184  0.2851 -0.0029
31205W        W47679  15.690  15.274   3.295  0.2531 -0.0735 -0.4260
31206W        W47680   7.478  12.911   4.147 -0.1551 -0.2361 -0.0023
31207W        W47681  15.476   3.420   1.514 -0.0437 -0.0233 -0.2153
31208W        W47682   9.995   6.777  15.564  0.0036  0.2750 -0.3805
31209W        W47683   4.239   9.534  12.744  0.1618 -0.0662  0.1846
31210W        W47684   1.145   2.743  14.225 -0.0636 -0.1917  0.0748
31211W        W47685   5.441   0.651  11.538 -0.1888  0.0747  0.1496
31212W        W47686  15.263  13.159   4.062 -0.1673 -0.1178 -0.0234
31213W        W47687   5.766   6.299  11.377  0.1265 -0.0289 -0.2027
31214W        W47688   7.328  15.291  12.502  0.1117 -0.2774 -0.1753
31215W        W47689   9.972   4.980   3.220  0.0714  0.0224  0.0473
31216W        W47690  15.009   8.178   1.649 -0.3118 -0.0420 -0.1218
31217W        W47691  12.240  11.819  14.744  0.1563 -0.0038  0.0895
31218W        W47692   7.453   0.674   1.661 -0.0684 -0.3182 -0.0210
31219W        W47693  11.718  16.559   0.622 -0.1001 -0.1409 -0.1135
31220W        W47694  13.461   3.357  15.352 -0.1892  0.1905 -0.3695
31221W        W47695  12.225   9.180  12.925  0.1495 -0.2328  0.1825
31222W        W47696   0.982  17.137  11.257 -0.0145 -0.3482 -0.1324
31223W        W47697   6.888   6.768  11.499  0.1169 -0.1498 -0.2005
31224W        W47698  14.669  18.283  11.473 -0.1113  0.0636  0.1475
31225W        W47699   9.565   5.973   2.487  0.1310 -0.0458  0.0469
31226W        W47700  18.648   0.646  10.782 -0.0200  0.0965 -0.1968
31227W        W47701   9.261  11.819  13.320  0.3756  0.1229  0.0538
31228W        W47702   2.732   3.496   2.663 -0.0700 -0.0261  0.4658
31229W        W47703   1.507   2.347  11.222 -0.1318  0.0872  0.0350
31230W        W47704   1.471  13.488   5.000 -0.2621  0.2623 -0.1391
31231W        W47705   4.446   6.902  10.471 -0.0025 -0.1410  0.1977
31232W        W47706   3.952  10.321   4.462 -0.1608 -0.0471 -0.2180
31233W        W47707   8.817  16.681   4.565 -0.0132  0.3203 -0.0260
31234W        W47708   3.505  11.221  15.251  0.1843  0.0475 -0.0181
31235W        W47709   5.681   9.238   1.586 -0.1623  0.1487 -0.3059
31236W        W47710  18.066  15.413   4.457  0.2174 -0.1038 -0.0992
31237W        W47711   2.622   0.883   3.723 -0.1513  0.0267 -0.1182
31238W        W47712   5.727  18.252   2.795  0.2670  0.1164  0.4082
31239W        W47713   4.557   6.585  11.136  0.0830 -0.1992 -0.2862
31240W        W47714   8.139  12.377   4.305  0.1373 -0.2279 -0.1475
31241W        W47715   2.663  10.931  13.926 -0.0747 -0.0265  0.3165
31242W        W47716  17.223  16.822   2.168 -0.0315 -0.3434 -0.3416
31243W        W47717  18.321  12.292   4.857 -0.1449 -0.0039 -0.0248
31244W        W47718   3.267  11.729  14.717 -0.2438  0.1035 -0.1684
31245W        W47719  11.942   2.917   3.423 -0.1683  0.0984  0.1713
31246W        W47720   1.112   3.372   2.298 -0.0289 -0.1171  0.2013
31247W        W47721   3.817   9.461   2.751  0.2155  0.1179  0.0192
31248W        W47722  10.444  10.723  10.845 -0.1075  0.2607 -0.1663
31249W        W47723  14.549  10.787  11.069 -0.1047 -0.1821  0.0022
31250W        W47724  14.734  18.023   0.230  0.0843 -0.0339  0.0848
31251W        W47725   8.986  11.452   0.661  0.1466  0.0166  0.0310
31252W        W47726  10.107   9.782  10.879 -0.1487  0.1700  0.1942
31253W        W47727   0.377   0.316  13.928 -0.3144 -0.1111  0.0936
31254W        W47728   2.399   1.988  13.563 -0.1155  0.0733 -0.0130
31255W        W47729  11.473   8.401   4.144  0.3173 -0.1420 -0.0791
31256W        W47730   4.409   1.297  12.928 -0.1331  0.0366 -0.0822
31257W        W47731   2.452  14.059  13.534 -0.0095  0.1010  0.1199
31258W        W47732   2.541   9.764   4.088  0.1867  0.0385  0.0237
31259W        W47733   7.273  16.082  12.055  0.3236  0.1477 -0.0075
31260W        W47734  14.098  17.490   2.025 -0.3786 -0.2312  0.4082
31261W        W47735  10.484   7.319   2.338 -0.0655 -0.3364  0.0219
31262W        W47736  14.291   5.650  12.975 -0.3552 -0.1663  0.0720
31263W        W47737  15.634  15.191   4.845 -0.3933 -0.0367 -0.1704
31264W        W47738  14.874  16.841   1.335  0.0528  0.0743  0.1340
31265W        W47739  12.874   3.612   0.589 -0.0126  0.0995 -0.0612
31266W        W47740   2.301  12.361  11.054  0.0541 -0.3375 -0.0274
31267W        W47741  14.106  15.136   0.757  0.1375 -0.2271  0.1339
31268W        W47742  17.809  12.664   4.610 -0.3743  0.1706  0.2158
31269W        W47743  16.609   2.157  11.972 -0.2690  0.1526 -0.1999
31270W        W47744  16.411   4.013   3.137  0.1676  0.2295  0.1587
31271W        W47745   2.467  17.714   1.167 -0.0205  0.1477  0.1287
31272W        W47746  12.985  11.260  12.292 -0.0334 -0.2465  0.3350
31273W        W47747  15.019   1.113   3.689 -0.1924  0.0254 -0.1865
31274W        W47748  11.803  13.318   4.108 -0.0185 -0.1923 -0.0634
31275W        W47749   5.916   6.223  13.826  0.0285 -0.0372  0.2192
31276W        W47750   4.145   6.744  13.161  0.1451  0.0644 -0.1094
31277W        W47751   3.598   4.470   3.720  0.2732  0.3439 -0.0200
31278W        W47752   7.119   0.418  12.483 -0.1135  0.1026 -0.0470
31279W        W47753  11.995   3.354  13.634  0.1680  0.2418 -0.1821
31280W        W47754   0.094  12.380   4.812  0.0344 -0.0782  0.0239
31281W        W47755   8.032   0.044   0.694 -0.2514 -0.3796 -0.0609
31282W        W47756  12.263   6.635   1.462 -0.1094 -0.0943  0.0231
31283W        W47757   5.579  16.450  11.779  0.0868  0.1744 -0.0943
31284W        W47758  14.764   6.226   2.461 -0.1060 -0.0711  0.0341
31285W        W47759   8.835   8.195   2.304 -0.1853  0.2060  0.0063
31286W        W47760  15.013  16.453   3.147  0.0725 -0.0113 -0.0396
31287W        W47761  16.845  10.555  10.708  0.0098  0.1851  0.0576
31288W        W47762  16.562   8.419  14.280 -0.1414  0.0358 -0.2858
31289W        W47763   2.338   4.677   4.944  0.0601  0.4864  0.1347
31290W        W47764   9.690  10.752  14.659 -0.0474  0.1539  0.1923
31291W        W47765  13.409  10.455   2.995 -0.1646  0.0385  0.0240
31292W        W47766  11.939  12.723  14.217 -0.2297  0.0043 -0.2097
31293W        W47767   8.569   6.075  12.338 -0.4731  0.1477 -0.3160
31294W        W47768  17.957   5.267  15.368 -0.2734 -0.2246 -0.1242
31295W        W47769   8.596  14.087   4.113 -0.1014 -0.1698  0.2674
31296W        W47770  18.386   5.144   2.968  0.0349  0.1616 -0.1661
31297W        W47771   8.592   3.057   4.538 -0.0042 -0.0765  0.2098
31298W        W47772   0.007  16.770  13.488 -0.0081  0.2769  0.1042
31299W        W47773   5.399  14.140  14.012  0.0361 -0.0246  0.1167
31300W        W47774  15.688   1.589  12.949 -0.0835 -0.0720  0.2285
31301W        W47775   6.294  15.800   3.254  0.1211  0.0424 -0.0391
31302W        W47776   8.035   3.024   4.488 -0.3655 -0.3085 -0.0831
31303W        W47777   9.088   0.104  14.734  0.0669 -0.0517  0.0147
31304W        W47778  15.558   1.383  12.127  0.0899 -0.1388 -0.0667
31305W        W47779   2.426  14.273   2.697 -0.1339  0.1296 -0.1425
31306W        W47780  17.469   8.925   3.536 -0.2076  0.1265  0.3377
31307W        W47781  14.026   2.125  13.576 -0.2424  0.0926  0.2731
31308W        W47782  18.445  13.210  13.869 -0.0953  0.2836 -0.0152
31309W        W47783  16.808  12.490   1.368 -0.0081 -0.1669  0.1334
31310W        W47784   9.972  16.572   4.756  0.0391 -0.0126  0.2983
31311W        W47785  13.755   2.547  13.144  0.1356  0.0224  0.1236
31312W        W47786   4.833  11.128  10.627 -0.0032 -0.1369  0.1525
31313W        W47787  13.153   4.550   0.138  0.1324  0.0572  0.2328
31314W        W47788   4.699   8.863  11.678 -0.3885  0.3125  0.0644
31315W        W47789  13.694  13.976   4.045 -0.0094  0.0159 -0.1293
31316W        W47790   1.041   2.061  13.355  0.2759  0.3265  0.0842
31317W        W47791   3.539   6.983  10.798  0.1016 -0.0218  0.3287
31318W        W47792  14.541   7.448   0.165 -0.0711  0.0616  0.2748
31319W        W47793  14.894  16.296   2.253 -0.2084 -0.3727 -0.1067
31320W        W47794  17.261   6.890   4.621  0.2085  0.2409  0.2856
31321W        W47795  18.597   7.303   4.698  0.0879 -0.1733 -0.0004
31322W        W47796  12.447   4.664  13.844 -0.0901  0.3418 -0.0378
31323W        W47797  10.799   2.051  14.590 -0.3344 -0.1602  0.0827
31324W        W47798  10.403  11.649   4.804  0.0859  0.0187  0.2779
31325W        W47799   1.913   7.211   1.599 -0.1421  0.3506 -0.5006
31326W        W47800  13.619   0.400  14.999  0.1769 -0.0593 -0.1003
31327W        W47801   7.777   5.119   3.889 -0.0922 -0.0017  0.1704
31328W        W47802   8.369  17.647   2.907  0.2126 -0.3503  0.1627
31329W        W47803   0.794   7.368   9.985 -0.0474 -0.2061  0.3717
31330W        W47804  10.882  11.439   1.290  0.0786 -0.0660  0.1512
31331W        W47805  11.667   3.073  15.371  0.1475  0.1136 -0.1409
31332W        W47806   2.829  14.186   4.631 -0.0154 -0.2565  0.2659
31333W        W47807   7.120  15.851   5.492  0.0957 -0.1630  0.1541
31334W        W47808   9.679  17.176  14.395 -0.1103 -0.0019  0.0835
31335W        W47809   1.192   4.228  10.935  0.3417  0.1101  0.0569
31336W        W47810  10.623   0.912   2.640 -0.1853  0.0078  0.1344
31337W        W47811  14.399   9.740  13.144  0.2538 -0.0972  0.2741
31338W        W47812   3.556   5.837   5.348  0.0773 -0.2326  0.0618
31339W        W47813   3.399  17.948   1.232  0.2663 -0.1203 -0.1615
31340W        W47814   1.229   9.634   4.276 -0.0877 -0.3700  0.3092
31341W        W47815   6.135  18.522   2.831  0.0393  0.1961 -0.1338
31342W        W47816  17.779  18.409  11.804  0.1193  0.1610  0.2584
31343W        W47817   6.097   6.302  13.306  0.1081  0.3729 -0.2319
31344W        W47818   2.343  15.914  11.862 -0.0660 -0.0322  0.1360
31345W        W47819   0.240  11.348  14.676 -0.0118 -0.0110 -0.2799
31346W        W47820  16.593  11.203   4.390  0.0469  0.0420 -0.0177
31347W        W47821   6.830  10.406  11.646  0.1298 -0.4489  0.3915
31348W        W47822   8.410  11.647  13.585 -0.1143  0.1249 -0.1686
31349W        W47823  16.640   4.147   2.643  0.2152  0.1581  0.2399
31350W        W47824  15.786   2.072  11.594 -0.0725  0.1195 -0.1942
31351W        W47825  13.588   7.051  11.771 -0.1103 -0.1949 -0.0153
31352W        W47826  17.692  10.054   3.629  0.0730 -0.0992 -0.1768
31353W        W47827   1.730   9.178   3.152 -0.1137  0.1463  0.3036
31354W        W47828   7.067  18.289  14.018 -0.1597 -0.3889  0.2122
31355W        W47829  16.330   3.076  13.597 -0.2918  0.0679  0.1786
31356W        W47830   7.739  18.748  13.395  0.0736  0.0439 -0.2453
31357W        W47831   5.933  16.832  11.784  0.1238 -0.0429  0.2764
31358W        W47832   3.730  11.286  12.523  0.3716  0.0707  0.0733
31359W        W47833  10.276  16.209   5.857 -0.0435  0.2246  0.0853
31360W        W47834   2.561  13.594  11.234 -0.0434  0.1976 -0.0327
31361W        W47835  11.753   7.289   4.822  0.0483  0.1741 -0.0887
31362W        W47836   3.148  10.534  15.472  0.0047 -0.2255 -0.2140
31363W        W47837  17.838  12.187  11.264  0.0110 -0.1238 -0.2434
31364W        W47838  11.114   0.117   3.577  0.2542  0.0119 -0.0767
31365W        W47839   4.720   6.933  13.633  0.1271  0.0139  0.2249
31366W        W47840   6.318  15.291   3.891 -0.0273 -0.0441  0.1022
31367W        W47841   0.419  18.319   0.442 -0.2291  0.2929  0.0002
31368W        W47842   1.992  10.933   1.550 -0.0894 -0.0311 -0.0301
31369W        W47843  17.768   2.371   1.014 -0.0621 -0.1195 -0.0412
31370W        W47844   0.861   8.504   2.204  0.0566 -0.2069 -0.1652
31371W        W47845  18.752   6.378  14.066  0.1183  0.2637  0.1666
31372W        W47846  17.142   5.017   1.239  0.1060 -0.3243  0.3600
31373W        W47847   1.571  13.347  12.602 -0.0892  0.0677 -0.1763
31374W        W47848   3.390   0.059   5.538  0.0247 -0.2227  0.0780
31375W        W47849  18.045   7.557  12.028 -0.0398  0.0560 -0.0064
31376W        W47850  16.874  13.733  10.796 -0.3353  0.1415 -0.3101
31377W        W47851   3.947   6.017  13.225 -0.1681 -0.2881  0.1865
31378W        W47852   9.477   6.114  11.230  0.2900  0.1550  0.0020
31379W        W47853   7.256  11.617   4.339  0.2409  0.3034 -0.1106
31380W        W47854  11.318  13.979  12.588 -0.1026 -0.0088  0.0988
31381W        W47855   7.178   1.617   4.735 -0.1566  0.0153  0.1361
31382W        W47856   3.832   4.421   0.908 -0.2545  0.1669  0.1304
31383W        W47857  14.370   2.438  14.551 -0.3599 -0.1115 -0.2087
31384W        W47858   9.221  11.904   1.914  0.1968  0.0737  0.0613
31385W        W47859   8.305   5.913   5.289 -0.2551 -0.1091  0.1128
31386W        W47860   9.104   3.633  14.672 -0.1807 -0.0966  0.3542
31387W        W47861  10.099  17.211   6.034 -0.0248  0.4829 -0.1103
31388W        W47862  11.310  12.253  14.628  0.0160  0.3479  0.2233
31389W        W47863   2.261   1.189  14.839 -0.0640  0.2864 -0.0925
31390W        W47864  14.432  11.115   5.205  0.0212 -0.2461 -0.3215
31391W        W47865   7.496  17.519   4.067 -0.1511  0.1734  0.1412
31392W        W47866  14.025   1.609   1.414 -0.1723  0.0140 -0.5328
31393W        W47867   7.139  10.002   2.652 -0.0137  0.1700  0.0677
31394W        W47868   1.553  10.754   0.454 -0.0296 -0.1266  0.2256
31395W        W47869  12.262   2.659   0.073  0.1821 -0.1798 -0.1774
31396W        W47870   4.892   9.823   4.171 -0.0589 -0.1793 -0.2750
31397W        W47871  15.564  14.532   0.456 -0.2889  0.2220 -0.0593
31398W        W47872   5.909  18.471  15.086  0.1911  0.2494  0.3669
31399W        W47873   0.950  16.437  12.188  0.1641 -0.3508 -0.1198
31400W        W47874  17.107   7.792  15.216  0.0446 -0.2744  0.1466
31401W        W47875  16.614   4.429   1.229  0.1892  0.1192 -0.1184
31402W        W47876   6.642  18.087  15.441  0.1261  0.0984  0.2590
31403W        W47877   4.957  16.421  13.716  0.1289 -0.1235  0.0167
31404W        W47878   1.255   3.409  11.337  0.1030 -0.3878  0.1093
31405W        W47879   9.438  12.410   0.641 -0.1442  0.0325 -0.0962
31406W        W47880   7.957  10.430   2.349 -0.3378  0.2953 -0.0876
31407W        W47881  14.638   3.971  14.109 -0.1958  0.1289 -0.0046
31408W        W47882   0.233  13.414   4.851 -0.2703 -0.1199 -0.1721
31409W        W47883   2.192   6.869  10.879  0.2593 -0.2592 -0.0540
31410W        W47884  12.005   4.676  13.609 -0.0259  0.2383 -0.1313
31411W        W47885   5.788  12.782   2.215 -0.1303 -0.1156  0.0889
31412W        W47886  10.571   4.896  14.609  0.1347  0.2027 -0.1609
31413W        W47887   6.508   8.999  10.455 -0.0197 -0.2540  0.0468
31414W        W47888   4.017  14.375  11.536  0.1343 -0.1881 -0.3120
31415W        W47889   1.929   6.783   0.816 -0.1617 -0.0140 -0.2696
31416W        W47890   0.391   2.725  13.738  0.0179  0.0735 -0.2527
31417W        W47891  18.553  14.542  13.226  0.4615  0.1572  0.1024
31418W        W47892   5.614  15.381   4.529  0.2201  0.0075  0.0999
31419W        W47893  12.726  12.602   5.017  0.0777 -0.1419  0.0163
31420W        W47894   0.288   2.389  13.397  0.0287 -0.1893  0.3135
31421W        W47895  15.498   6.091   2.699 -0.1723 -0.4146 -0.2217
31422W        W47896   8.606   7.452  14.568 -0.2270 -0.0881 -0.4045
31423W        W47897   2.714   5.189  12.786  0.2924  0.1230  0.1137
31424W        W47898   6.895  11.831  12.537  0.0099  0.2724 -0.0044
31425W        W47899   0.050  16.508  11.275  0.1679  0.1169 -0.1493
31426W        W47900  16.160   8.708  14.089 -0.5388  0.3319 -0.0114
31427W        W47901   8.562  15.657   5.113  0.2236  0.0070 -0.2265
31428W        W47902   7.712  17.910   4.944  0.0021 -0.1286 -0.0592
31429W        W47903  16.951  11.695   4.585  0.2910 -0.2308  0.1214
31430W        W47904  11.355  13.720  10.869 -0.0005 -0.1877 -0.0539
31431W        W47905   0.912   5.004  10.416  0.1238 -0.1886  0.1718
31432W        W47906   1.123  15.918  12.154  0.1294 -0.1056 -0.2290
31433W        W47907   3.830   0.549   0.174  0.3679  0.1029 -0.1422
31434W        W47908   8.236  12.836  14.541 -0.2019 -0.0232 -0.1650
31435W        W47909  14.762  15.862  14.099 -0.0399  0.0343  0.1975
31436W        W47910   8.781   1.712  11.165 -0.0512 -0.2275  0.2313
31437W        W47911   1.848  12.911  12.857 -0.0211  0.2172  0.1502
31438W        W47912  14.936  14.018  11.291  0.1978  0.0540 -0.0849
31439W        W47913   9.909  10.472   3.849  0.0187  0.3154 -0.0343
31440W        W47914   7.509   6.533   1.201 -0.0781 -0.0029 -0.0591
31441W        W47915   1.373  15.484   3.323 -0.0762 -0.2382 -0.4735
31442W        W47916   2.997   5.459   0.325  0.1863  0.1801  0.0255
31443W        W47917  16.360   2.177  14.462  0.0828  0.0577  0.0438
31444W        W47918   5.909   8.675  15.376 -0.0830  0.0670  0.1590
31445W        W47919  15.189  11.028  14.116  0.0896  0.4011 -0.1712
31446W        W47920   2.950   2.006  14.835  0.2809  0.1229 -0.1336
31447W        W47921  16.659  17.311  14.114 -0.3209  0.1009  0.0445
31448W        W47922  16.279  11.827   2.354  0.1374  0.2103 -0.0721
31449W        W47923   1.572  11.128   3.656  0.0739 -0.1892  0.0188
31450W        W47924   2.320   7.105  12.698  0.1030 -0.1492  0.4809
31451W        W47925   6.931   4.329   2.886 -0.1425  0.1638  0.2106
31452W        W47926   0.024   5.411   2.804  0.0002  0.2158 -0.1876
31453W        W47927   8.634   6.657   3.303  0.2642 -0.0955 -0.0280
31454W        W47928  14.415   7.762   3.710  0.1280 -0.1830 -0.2188
31455W        W47929   5.499  12.294  14.704 -0.0109 -0.0491 -0.0059
31456W        W47930  13.282   3.535   4.359 -0.2628  0.0499  0.0645
31457W        W47931  16.691   2.135  15.223  0.1310  0.0849  0.1535
31458W        W47932  10.588   7.269   0.751  0.0360 -0.3720 -0.0091
31459W        W47933  14.213  16.155  14.954 -0.3456  0.4001 -0.1682
31460W        W47934   9.399   9.813   1.071 -0.1216 -0.1553  0.0163
31461W        W47935   1.191   5.789  11.907 -0.0946 -0.0417  0.4668
31462W        W47936  11.576  14.965  13.521 -0.1139 -0.1195  0.0620
31463W        W47937   5.119   4.326  15.214 -0.2396  0.0496  0.0994
31464W        W47938   6.655   1.994  10.323 -0.1997  0.0868  0.0363
31465W        W47939   6.230  10.634   3.667 -0.0380  0.0430  0.0787
31466W        W47940   8.112   3.413   2.505  0.0905  0.1685  0.0758
31467W        W47941  16.870   2.892  15.396  0.1512 -0.1251  0.2920
31468W        W47942   9.669   2.052  12.107  0.1875  0.2604  0.1212
31469W        W47943  11.033   5.080   1.183  0.0427  0.0142  0.0580
31470W        W47944   1.353   0.600  15.532  0.1396  0.0913 -0.3367
31471W        W47945  17.799   4.684   3.106  0.1936 -0.0320  0.0122
31472W        W47946  13.018  14.737   1.745  0.2027  0.0102  0.1589
31473W        W47947  15.064   2.718  13.224  0.0200 -0.4230  0.1699
31474W        W47948   0.495   6.076   2.395 -0.1532  0.1604  0.0385
31475W        W47949  14.983   9.878   4.262  0.0157  0.1240  0.1958
31476W        W47950   0.964   5.459   4.068  0.2285 -0.1731 -0.3218
31477W        W47951  17.941  11.152   2.797 -0.0475  0.2154 -0.0433
31478W        W47952   8.929   4.020   0.921  0.0982 -0.1379 -0.0157
31479W        W47953   6.590  10.723   9.819  0.1557 -0.2407 -0.0347
31480W        W47954   8.086  11.715  13.163 -0.0772 -0.3055  0.3519
31481W        W47955  10.545   1.058   5.962  0.6385  0.1547  0.2102
31482W        W47956   1.809  16.316   3.362  0.0310  0.2552  0.3546
31483W        W47957   9.998  10.897   2.405  0.1709 -0.2429  0.2852
31484W        W47958  16.948  18.615  15.494  0.0919 -0.1388 -0.1699
31485W        W47959  17.665   7.332   1.356 -0.2596 -0.1594  0.0528
31486W        W47960  10.690   6.464   5.729 -0.0718 -0.1640  0.2610
31487W        W47961   4.738  14.922  11.138  0.1218  0.2613 -0.1371
31488W        W47962   9.650   8.374   0.272 -0.1722  0.0739  0.1911
31489W        W47963   2.820  14.020   2.358  0.2236  0.0685  0.1571
31490W        W47964  16.796  17.592  11.704  0.2053 -0.0997  0.0598
31491W        W47965   0.927  13.727   3.012 -0.0167 -0.0868 -0.0274
31492W        W47966   6.991  15.880   2.649  0.2035 -0.0006 -0.2709
31493W        W47967  16.258   2.840  11.341 -0.3537 -0.0660 -0.1433
31494W        W47968  17.571  17.126  13.164 -0.1532 -0.1210 -0.2485
31495W        W47969  10.253   2.723   1.146  0.0870  0.0787 -0.0278
31496W        W47970  15.649  14.345   2.868 -0.1478  0.0691  0.0016
31497W        W47971   4.773   4.064   1.049 -0.0872 -0.0515  0.0764
31498W        W47972   3.061   4.229   0.497 -0.1530 -0.0818  0.0847
31499W        W47973  12.183   8.568  11.188 -0.1872  0.1082  0.0001
31500W        W47974  10.867   8.279   3.979  0.0683 -0.3179  0.4796
31501W        W47975   8.715   0.770   5.061  0.1459 -0.1124  0.2279
31502W        W47976   8.258   2.406  12.317 -0.2260  0.1903  0.0955
31503W        W47977  16.435  11.093   0.038 -0.3164  0.0224  0.2386
31504W        W47978   4.732   9.611  13.971  0.0416 -0.3061 -0.1428
31505W        W47979  18.323   0.221   0.889 -0.1047 -0.2236 -0.0473
31506W        W47980   1.649  17.648   2.628 -0.1702 -0.2808  0.1425
31507W        W47981   5.757  12.555   3.330  0.1670  0.2437  0.1578
31508W        W47982  12.469   2.063   0.829 -0.0449 -0.0087  0.2333
31509W        W47983  18.681   0.545  11.299  0.3087  0.0519  0.3901
31510W        W47984  17.323   9.783   4.032  0.0231  0.1943 -0.1121
31511W        W47985   1.903  14.930   1.683  0.2455  0.2600 -0.2794
31512W        W47986   8.972  16.261  12.926 -0.0634 -0.1224 -0.1230
31513W        W47987   0.676  12.756   2.935  0.1029  0.3468  0.0020
31514W        W47988  14.619  17.195  12.181  0.2676  0.2675  0.4362
31515W        W47989  16.465   6.206  13.615 -0.1270  0.1474 -0.2462
31516W        W47990  10.574   3.515  12.902 -0.4652 -0.3276 -0.1579
31517W        W47991  17.609  10.778   0.168  0.1260  0.2595  0.2041
31518W        W47992  17.294  13.726  15.363  0.2400 -0.2319 -0.2087
31519W        W47993   5.343  11.298  15.267 -0.2074  0.2069  0.4097
31520W        W47994   2.947   7.608   0.096 -0.0498  0.4546 -0.1554
31521W        W47995  18.171  15.223  13.408  0.0902 -0.3726 -0.1827
31522W        W47996  16.640  15.807   4.664 -0.4379  0.1086  0.0758
31523W        W47997  18.761   1.798   1.667 -0.0942 -0.0824  0.2239
31524W        W47998   9.782  15.001   5.363  0.2854 -0.0821 -0.2227
31525W        W47999  10.535   1.483   5.651  0.0725 -0.2004  0.1985
31526W        W48000   8.446   1.554  13.826  0.0672 -0.1467 -0.0354
31527W        W48001  17.190  16.983   1.673 -0.0534  0.2316  0.0450
31528W        W48002   2.256  14.610  12.191 -0.0532  0.0998  0.2864
31529W        W48003  11.964   1.077   4.462 -0.0403 -0.2378 -0.1298
31530W        W48004   3.796   7.624   3.370  0.0409 -0.1005 -0.0264
31531W        W48005  15.114  12.146  12.998  0.1899  0.1866  0.0234
31532W        W48006   8.951  12.824  15.463 -0.0427  0.2379 -0.1428
31533W        W48007   5.343   6.632   3.321 -0.1600  0.6378  0.2700
31534W        W48008   9.547  15.454   0.602  0.1745  0.2573  0.1133
31535W        W48009   5.396   9.331   1.165 -0.1983  0.1223  0.0966
31536W        W48010   7.197  14.623  13.030  0.1904 -0.0213  0.2722
31537W        W48011  17.721  13.632   0.283 -0.0098 -0.0707  0.0793
31538W        W48012  17.748   4.001  15.526 -0.0044 -0.2668  0.2740
31539W        W48013  16.757   3.624   0.588  0.1263 -0.0286 -0.0519
31540W        W48014  15.867   1.414  15.538 -0.0887  0.2361  0.0532
31541W        W48015  13.500   1.905   3.854 -0.2490  0.1302 -0.1409
31542W        W48016   7.663  12.042  10.220  0.1440 -0.1136 -0.0259
31543W        W48017   8.697  10.767   2.495  0.3117  0.0577 -0.2540
31544W        W48018  17.433   1.094   5.364  0.2153 -0.1269  0.1586
31545W        W48019  13.510   7.969  11.900 -0.1095  0.2008 -0.1602
31546W        W48020  12.645  18.147   0.202 -0.1039  0.0859 -0.0296
31547W        W48021   9.471  16.235  12.806  0.2159  0.1642  0.1362
31548W        W48022   9.147  16.225  11.189  0.3849  0.0992  0.2088
31549W        W48023  15.314   9.991   5.275  0.3070  0.1345 -0.0479
31550W        W48024  10.308   1.958  11.969  0.3545  0.1779 -0.0594
31551W        W48025  18.510   4.961  14.023  0.3245  0.0004 -0.1621
31552W        W48026   4.140  15.456   0.199  0.0544 -0.2201  0.1714
31553W        W48027  12.192   9.916   0.339 -0.0823 -0.1544 -0.0021
31554W        W48028  17.473  16.412   0.815  0.2927 -0.2342  0.1051
31555W        W48029  12.964  18.156   5.537  0.2374  0.3801  0.2582
31556W        W48030   8.753  14.329   0.316  0.1900  0.0084  0.1341
31557W        W48031  15.259   6.974   1.316  0.2888  0.2118 -0.0006
31558W        W48032   6.505   1.607   2.911 -0.1245 -0.4284  0.1309
31559W        W48033   6.084  10.027  14.510  0.1304  0.1431 -0.4175
31560W        W48034   7.735   6.113  14.108 -0.0574  0.0978 -0.0864
31561W        W48035   2.295   9.995  14.468 -0.0859 -0.3458  0.0612
31562W        W48036   4.324   7.193  13.169  0.2011  0.1699 -0.2248
31563W        W48037  16.166   2.460   2.086 -0.0350 -0.2394 -0.2810
31564W        W48038   6.526  13.375  13.077 -0.1407 -0.2089  0.0495
31565W        W48039  15.170   4.698  13.915 -0.3991  0.0311 -0.3832
31566W        W48040   5.732  15.123   2.555 -0.2925  0.0817 -0.0474
31567W        W48041   7.288   3.401  12.167 -0.1737  0.2731 -0.1329
31568W        W48042   9.967   8.986   1.476  0.2266 -0.0109 -0.0781
31569W        W48043   9.738   1.433   1.200  0.0928  0.0759  0.1894
31570W        W48044   1.715   1.402  13.708  0.1774 -0.1366  0.0794
31571W        W48045   4.639   7.989  15.323  0.0360 -0.1727 -0.1885
31572W        W48046  14.743   0.418   4.050  0.3210  0.1553  0.0282
31573W        W48047   5.647   5.573   3.487 -0.0444  0.0897  0.3709
31574W        W48048   4.329  11.341  10.883 -0.0829 -0.1884  0.1999
31575W        W48049   0.650  13.364   0.284 -0.3237  0.2667 -0.0465
31576W        W48050   9.757   0.445   2.014  0.3603 -0.0131 -0.1604
31577W        W48051   9.879  17.591  12.911 -0.1578 -0.1177 -0.3725
31578W        W48052  14.025  11.338   5.013  0.0246  0.0896  0.1210
31579W        W48053  16.352  11.071   3.512 -0.1307  0.4155  0.1104
31580W        W48054   7.945   8.668  15.045  0.0533  0.0713 -0.3319
31581W        W48055  10.211  11.528  15.016 -0.3522 -0.0866  0.1845
31582W        W48056   5.308  10.869  14.110  0.0094 -0.0828  0.2398
31583W        W48057  11.239  13.945   4.591 -0.0877 -0.0493 -0.1860
31584W        W48058   6.347   5.966   1.817 -0.1415  0.1743 -0.1618
31585W        W48059   6.339  16.635  14.495  0.0721 -0.0991 -0.1841
31586W        W48060  14.376   8.773   0.673  0.1060  0.2780 -0.6649
31587W        W48061   6.932   7.179  11.113  0.2198 -0.0334  0.0662
31588W        W48062   0.768  12.563   9.614 -0.4102  0.1351  0.1555
31589W        W48063  13.219  11.655   2.587 -0.0459  0.2732 -0.2555
31590W        W48064   8.981  14.171  12.564 -0.2051  0.2897  0.0142
31591W        W48065  18.348   3.834   3.413 -0.1379  0.1428  0.0028
31592W        W48066   6.803   0.689  15.560  0.0618  0.0620  0.1429
31593W        W48067   4.896  11.697  14.218 -0.3119  0.1133  0.1304
31594W        W48068  15.011   4.793  13.415 -0.0422 -0.0583 -0.2009
31595W        W48069  12.497   2.616  15.212 -0.2003  0.2200  0.3130
31596W        W48070   1.124   4.805   0.002  0.0154  0.0009 -0.0264
31597W        W48071  17.832   6.684  10.087  0.0103  0.2196  0.1473
31598W        W48072  10.849   5.728   5.600 -0.0925  0.1273 -0.1492
31599W        W48073  14.521   8.366   4.887 -0.3703  0.0914 -0.0875
31600W        W48074   0.914   4.320  14.990 -0.0970 -0.0064 -0.0975
31601W        W48075  11.641  17.894   2.573  0.5192 -0.1742  0.2075
31602W        W48076   9.649   3.884   4.455 -0.1208  0.0329  0.1617
31603W        W48077  11.308   5.531   1.183 -0.1050  0.0938  0.1729
31604W        W48078  14.115  16.297   2.403 -0.0612  0.0739  0.2688
31605W        W48079  11.213  15.748   0.364  0.2907 -0.2492  0.1880
31606W        W48080  11.112   8.435   2.033  0.0227 -0.1058  0.0507
31607W        W48081  11.546   9.642  14.440 -0.3776 -0.0568 -0.3821
31608W        W48082   4.833   0.719   1.202 -0.2161  0.0915  0.3772
31609W        W48083  16.552  12.740  12.188  0.1746 -0.0168  0.0626
31610W        W48084   7.186   4.251  11.811 -0.2217 -0.3043 -0.0760
31611W        W48085  14.036  17.972  12.014  0.0181  0.2070  0.3850
31612W        W48086  11.612  15.902   5.905 -0.2307 -0.0741 -0.1777
31613W        W48087   0.071   3.787   5.154 -0.2160 -0.0102  0.0756
31614W        W48088   6.502   1.379  14.828  0.0364  0.0741 -0.2938
31615W        W48089  15.679  16.017  14.177 -0.1208  0.1889  0.2576
31616W        W48090  13.853  12.628   2.415 -0.1966 -0.0929 -0.0335
31617W        W48091   6.539   9.944   3.633  0.1954  0.0520  0.0242
31618W        W48092   9.703  17.143   0.915  0.1811  0.0767  0.2586
31619W        W48093   7.091  11.211  11.155 -0.0787 -0.1297 -0.3103
31620W        W48094  13.136   7.121  15.040 -0.1978  0.1909 -0.0747
31621W        W48095   9.390  14.239  12.838 -0.3430  0.0213  0.0948
31622W        W48096   2.838  15.255  12.044 -0.0365 -0.0489 -0.1241
31623W        W48097   6.132   6.334   3.334 -0.1784 -0.1088 -0.0758
31624W        W48098  14.259  14.738   5.912 -0.2915 -0.0268 -0.1132
31625W        W48099   9.503   8.942  13.011  0.0740  0.0948  0.0855
31626W        W48100   2.972   0.041   3.606  0.2252 -0.1025  0.0154
31627W        W48101  13.468  11.391  13.173  0.2167  0.0707  0.2935
31628W        W48102  17.998   0.369  11.511 -0.1933  0.3322 -0.1425
31629W        W48103   6.243   8.308  12.885 -0.2090 -0.0095  0.0261
31630W        W48104  17.746   9.783   3.127 -0.1857 -0.1646  0.0936
31631W        W48105  10.998  12.234   3.815  0.3331 -0.0068  0.1956
31632W        W48106   1.259   8.196   0.864  0.1178 -0.1490  0.2245
31633W        W48107   7.937   7.807   1.071  0.2204 -0.1957 -0.2738
31634W        W48108   5.680  18.740   2.968  0.1876  0.1595  0.0499
31635W        W48109  17.214   2.227   2.880  0.2450  0.0910 -0.0003
31636W        W48110  15.811  13.585  12.028  0.0555  0.0471 -0.1945
31637W        W48111  14.670  15.231   3.489 -0.3194 -0.0205 -0.0258
31638W        W48112   9.320   5.658  12.327 -0.0299  0.3195  0.2582
31639W        W48113  12.142   3.277   5.155 -0.0638 -0.1321 -0.1699
31640W        W48114  16.010   6.125   0.570 -0.1231 -0.0281  0.0833
31641W        W48115  15.603   6.271   0.758  0.1766  0.1971  0.1472
31642W        W48116   2.484   3.515  10.940  0.0436  0.2131  0.2738
31643W        W48117   8.782  10.361   3.429  0.0059  0.0717 -0.0044
31644W        W48118  12.177   2.431  14.724 -0.0396  0.0440 -0.0121
31645W        W48119  17.044  12.057   0.881 -0.3220 -0.2881 -0.1423
31646W        W48120  13.269   0.579  15.351 -0.0094  0.0236 -0.2305
31647W        W48121   4.958   6.594   1.291 -0.1137  0.2405  0.1820
31648W        W48122   7.384   7.711   1.087 -0.1608  0.0725 -0.2582
31649W        W48123  11.542  15.281  15.274  0.2184 -0.1775 -0.0485
31650W        W48124  14.858  12.555   4.047  0.1293 -0.1195 -0.3088
31651W        W48125   4.216  15.290  13.499  0.2869  0.2728 -0.0098
31652W        W48126   3.840   8.065   1.581 -0.0164 -0.0479  0.1337
31653W        W48127  10.206  18.118   2.979  0.2488 -0.5996  0.0086
31654W        W48128   8.139  11.497   4.597 -0.2751 -0.0105 -0.2466
31655W        W48129   1.757  12.605  14.459  0.0020  0.1837 -0.0800
31656W        W48130   8.829   7.638   0.202  0.1137  0.2652  0.1100
31657W        W48131  15.096   4.844  14.921  0.2116 -0.1344  0.0824
31658W        W48132  14.687   7.007  15.427 -0.0144 -0.1899  0.2241
31659W        W48133  18.537   1.127  14.190  0.0819 -0.0692 -0.1885
31660W        W48134  17.696  14.207   4.296  0.0260  0.2239  0.1649
31661W        W48135  17.999  15.790   5.744 -0.3568  0.2098  0.2607
31662W        W48136   3.768  12.367  15.020 -0.1516  0.1148 -0.3452
31663W        W48137   9.397  18.343  11.313  0.1648 -0.1766 -0.0747
31664W        W48138   3.372   6.946   4.709 -0.0892 -0.0447  0.0414
31665W        W48139  16.639  10.696   4.358  0.0639  0.1845 -0.1685
31666W        W48140  13.710  16.063  13.444 -0.0674 -0.0566 -0.3137
31667W        W48141   5.186  11.483  11.384 -0.1524 -0.0703 -0.0565
31668W        W48142   8.120  16.976  14.290  0.2300  0.0518 -0.5597
31669W        W48143   1.657   0.775  11.036 -0.0553  0.1075 -0.2395
31670W        W48144   2.841   4.642   2.249  0.2942  0.0325  0.1001
31671W        W48145   6.026  10.866  13.149  0.0944 -0.1442 -0.0304
31672W        W48146   1.443  15.891  11.776 -0.1019  0.0529 -0.0466
31673W        W48147   2.979   6.015   2.986  0.2220 -0.2500  0.0542
31674W        W48148   3.184   9.042  13.734  0.0649  0.0175  0.2724
31675W        W48149  11.149   9.456  14.072  0.0804 -0.2132 -0.2476
31676W        W48150   1.838   8.136   3.026  0.0642 -0.3358 -0.4326
31677W        W48151   2.599   7.530  13.527 -0.0339 -0.2055 -0.3896
31678W        W48152   1.086   7.063   3.603 -0.0150 -0.1285  0.0758
31679W        W48153   1.114   3.931   1.603 -0.0963 -0.0703  0.1511
31680W        W48154   1.413  16.111  10.266 -0.0592 -0.0847  0.0452
31681W        W48155   1.548  18.121  13.932  0.0025  0.0462 -0.3633
31682W        W48156   7.194  16.475   2.891 -0.2324 -0.3390 -0.0996
31683W        W48157   0.359  13.180  12.972 -0.1000 -0.0619 -0.1444
31684W        W48158  11.020   5.016   3.324  0.0690  0.0425 -0.0606
31685W        W48159  15.677  11.636  12.472 -0.0605 -0.1769 -0.0681
31686W        W48160   4.944  11.074   1.161 -0.3346 -0.0589  0.1589
31687W        W48161   9.498  10.580   0.106 -0.4732  0.2056 -0.1089
31688W        W48162   6.112  14.496  12.826  0.0181 -0.0165 -0.0848
31689W        W48163  14.716  12.705   0.005 -0.3471 -0.3127  0.0218
31690W        W48164   8.691  13.676   3.025 -0.0064  0.2046 -0.2155
31691W        W48165   6.399   4.556  11.532  0.1099 -0.0796  0.1083
31692W        W48166  15.505  11.092   0.080 -0.1565  0.2803 -0.1132
31693W        W48167   6.525   8.040   4.609 -0.4156  0.0232  0.1555
31694W        W48168  10.419   4.682   4.680 -0.0373 -0.2565 -0.0900
31695W        W48169   4.084  12.813   4.269  0.1821 -0.0231 -0.5226
31696W        W48170  12.321  13.129  13.217 -0.1266  0.1298 -0.1691
31697W        W48171  10.127   7.347   0.900  0.1301  0.4548 -0.1752
31698W        W48172   9.215   1.878  11.972  0.1111  0.2960  0.0924
31699W        W48173   4.290   3.636   3.272 -0.1358 -0.1546  0.1753
31700W        W48174  15.853  14.907  12.840 -0.1208 -0.2002 -0.0041
31701W        W48175  11.436  13.592  15.535 -0.1055 -0.5113 -0.0861
31702W        W48176  13.800   2.291  12.573 -0.0050  0.1665  0.1055
31703W        W48177   5.631   4.978   8.982 -0.3285 -0.2826  0.3562
31704W        W48178   8.519   8.533  11.201  0.0961  0.0302 -0.0584
31705W        W48179  17.556   1.178  15.356  0.1423 -0.1852 -0.0802
31706W        W48180   1.564   5.067  14.317  0.0606 -0.0294  0.3541
31707W        W48181  17.988  10.045  11.457 -0.0464 -0.0170 -0.1740
31708W        W48182  18.786  10.318  13.617 -0.2386  0.0172  0.0140
31709W        W48183   0.045  10.229   5.998  0.2150 -0.0212  0.0384
31710W        W48184   7.479  12.731   5.100  0.1448 -0.0827  0.0572
31711W        W48185  15.813   0.324   3.802  0.0207  0.3020  0.0517
31712W        W48186  10.971   4.625   2.876  0.2833 -0.1388  0.0303
31713W        W48187  12.345   6.693   3.562  0.1662  0.0790  0.1653
31714W        W48188   5.948   0.648  12.407 -0.0005  0.0739  0.1236
31715W        W48189   2.843   0.960  15.551  0.0021  0.1034  0.0721
31716W        W48190  12.787  13.546   3.940 -0.2581  0.1258 -0.2872
31717W        W48191  14.706   0.450  11.303 -0.1873  0.0369  0.0623
31718W        W48192   5.757   9.425  13.041 -0.0697  0.0274  0.0802
31719W        W48193  10.380   8.854  12.680 -0.0079  0.2267 -0.0171
31720W        W48194  18.041  16.639   2.822  0.1290  0.0881 -0.1660
31721W        W48195  18.217  15.999   2.451 -0.0629 -0.1011 -0.1170
31722W        W48196  17.086  11.930   1.955  0.1780  0.1655  0.0131
31723W        W48197   9.453  18.000   1.942  0.2612  0.2605 -0.0098
31724W        W48198  10.071   7.132  14.700 -0.0797  0.0851  0.1787
31725W        W48199   1.613   6.160   1.350 -0.0461 -0.1139 -0.2242
31726W        W48200   9.906   7.097   5.046 -0.0627 -0.0670  0.1915
31727W        W48201   4.001   9.042  14.173  0.0842 -0.2498  0.2409
31728W        W48202  12.078   6.291  11.123  0.1815 -0.1229  0.1763
31729W        W48203   4.185   4.734   3.104 -0.2172 -0.0438  0.0476
31730W        W48204   0.018   3.412   4.022 -0.0999  0.3189  0.0653
31731W        W48205  11.223  10.975  14.915  0.2458 -0.2114 -0.3329
31732W        W48206   5.694  15.021  14.055 -0.1696 -0.0423 -0.1121
31733W        W48207   8.383  16.034   5.358  0.0288  0.1722  0.1128
31734W        W48208   1.532  12.689   3.407 -0.1646 -0.0346  0.0402
31735W        W48209  17.073   5.764   1.134  0.1534 -0.0504  0.1391
31736W        W48210  11.969   5.963   4.171 -0.3112 -0.1336 -0.0951
31737W        W48211   3.895  15.512   5.277 -0.1969  0.0512 -0.1305
31738W        W48212  10.483   1.572   1.520  0.1819  0.0430 -0.0756
31739W        W48213  13.576  15.162  14.963  0.0255  0.1249 -0.1488
31740W        W48214  11.347   1.132  15.571 -0.1466  0.4154 -0.2227
31741W        W48215   3.549   1.312   1.510 -0.0331  0.2375  0.1173
31742W        W48216  11.019  17.873  12.268  0.1287  0.0769  0.0459
31743W        W48217   3.971  15.932  11.259  0.1310 -0.1827  0.0581
31744W        W48218   0.821   8.121  14.857  0.2374  0.3487 -0.0745
31745W        W48219   9.197   6.363   0.509  0.0092  0.0933 -0.1215
31746W        W48220   7.688  17.418  11.531 -0.0569  0.2077 -0.0172
31747W        W48221   2.704   9.507  11.882 -0.0636 -0.1475  0.0860
31748W        W48222   2.475   5.056   2.971  0.0956 -0.2313  0.1388
31749W        W48223  18.258  12.837   4.501  0.0009 -0.1641  0.0710
31750W        W48224  10.176   2.493  11.969 -0.5010 -0.1544  0.0329
31751W        W48225   0.450   7.581  10.575 -0.2251  0.1422 -0.0886
31752W        W48226  15.331   5.667  10.294  0.0782  0.2587 -0.0856
31753W        W48227   0.513  13.650  14.686 -0.2701 -0.0910 -0.2163
31754W        W48228   3.240   4.402   0.103  0.0087  0.0309  0.0465
31755W        W48229  11.078   9.318  12.441  0.1838 -0.1440 -0.0531
31756W        W48230   7.911  12.141   1.454  0.0625 -0.0243 -0.0904
31757W        W48231  17.636   8.903  12.019 -0.0662 -0.1487  0.0609
31758W        W48232  16.117  16.962   0.143 -0.1177 -0.0914  0.1312
31759W        W48233   4.694  11.625   3.781 -0.0223  0.0683  0.0918
31760W        W48234  10.619   5.405  11.554  0.2213  0.1037  0.1573
31761W        W48235   9.908   0.434   1.464 -0.2361  0.0874 -0.0204
31762W        W48236  11.362   2.623  15.015  0.2049  0.0934  0.0493
31763W        W48237   1.284   7.095  14.559 -0.0967  0.3451  0.1442
31764W        W48238  14.405  11.792  11.533  0.1292  0.0161  0.0316
31765W        W48239   1.565   3.185  10.817 -0.0013  0.2157  0.1443
31766W        W48240   6.402   4.660   2.202  0.1032  0.0580 -0.0783
31767W        W48241  17.414   4.368   0.052  0.1514 -0.0543 -0.2256
31768W        W48242   3.692  18.779   0.156  0.0016 -0.3803 -0.2132
31769W        W48243  13.007   4.402   1.106 -0.0237  0.1402  0.0199
31770W        W48244  11.725  18.051   5.909  0.6178 -0.2019 -0.0771
31771W        W48245  14.096   2.590   6.015  0.0869  0.1343  0.0289
31772W        W48246  10.499   8.007  13.337 -0.2950 -0.0899 -0.1110
31773W        W48247   9.518  15.934  11.318  0.0950 -0.0927  0.0164
31774W        W48248  11.446   8.086   2.982 -0.0621 -0.3669  0.1764
31775W        W48249   4.914  12.800   1.312 -0.0082 -0.3071  0.1282
31776W        W48250   3.112   2.448   4.908  0.0188 -0.0127 -0.0664
31777W        W48251   7.362  15.334   5.004 -0.0249 -0.0691 -0.2129
31778W        W48252  11.597  12.261   4.355  0.0862  0.1764  0.0746
31779W        W48253  13.052   0.299  15.045  0.0904 -0.2555 -0.0402
31780W        W48254  10.245  14.928   2.467  0.1206 -0.0156 -0.0238
31781W        W48255   3.336   9.522  12.998  0.0931 -0.2030  0.0562
31782W        W48256  15.064  15.580   3.252  0.1764  0.3838 -0.0865
31783W        W48257   9.933   3.896   3.402 -0.0755 -0.1155  0.0775
31784W        W48258   5.517   2.784   3.711 -0.0951 -0.1674 -0.1083
31785W        W48259   0.428  12.651   2.204 -0.1178  0.2450 -0.2288
31786W        W48260   5.031  12.145   2.623  0.3487  0.0851 -0.1954
31787W        W48261  17.156   1.839   5.263  0.4934  0.5892  0.3400
31788W        W48262   7.533   7.326  14.317 -0.1097  0.2477 -0.0316
31789W        W48263   8.254  13.710  14.250 -0.0180  0.0331  0.1924
31790W        W48264   2.187   5.356  12.887  0.0452 -0.1265  0.1052
31791W        W48265  12.670   1.698  13.777 -0.1346  0.1026 -0.1241
31792W        W48266   3.876  12.535   4.704  0.1000  0.1688 -0.2048
31793W        W48267  11.339   3.129   1.971 -0.1601 -0.1794 -0.3511
31794W        W48268   8.185   5.710  14.301  0.1904 -0.0357  0.0381
31795W        W48269   2.626   9.531   4.627  0.1815 -0.2969  0.2785
31796W        W48270  15.817  12.335  13.708 -0.0749  0.0703  0.6506
31797W        W48271  17.103   4.916   0.020  0.0098 -0.0407  0.1808
31798W        W48272   0.045  15.867  12.235  0.2648  0.0854  0.1216
31799W        W48273  15.888   9.991   5.991  0.0842 -0.2106 -0.0175
31800W        W48274   6.997   8.940  10.475 -0.1717 -0.3170 -0.2255
31801W        W48275  12.487  18.558   4.438 -0.0760  0.1395 -0.2833
31802W        W48276   3.949   0.469   1.578 -0.2575  0.1207  0.2339
31803W        W48277   7.974   1.964   1.363 -0.0092 -0.1421  0.1816
31804W        W48278  12.588   2.268  14.160  0.2270  0.2456  0.1964
31805W        W48279  17.815  13.849  15.415  0.0446 -0.1887  0.0107
31806W        W48280  12.653  16.093  12.787 -0.2026  0.0885  0.1515
31807W        W48281  15.001  13.924   1.995  0.0402 -0.4431 -0.3447
31808W        W48282   7.222   2.217   2.813  0.0855 -0.0618 -0.2993
31809W        W48283  17.502   9.636   1.249 -0.0896  0.1303  0.1578
31810W        W48284  14.111  13.372  11.574  0.1294 -0.1305 -0.1072
31811W        W48285  15.746   9.875   2.191 -0.1225  0.0780  0.1098
31812W        W48286   1.380   3.178  12.245  0.1265 -0.2710  0.4770
31813W        W48287   5.576  18.033   5.522  0.3044  0.2785  0.1778
31814W        W48288   0.650   5.593  10.548 -0.1070  0.4182 -0.0675
31815W        W48289   1.794  17.116  12.079 -0.0023 -0.2502  0.2926
31816W        W48290   9.619   5.777  11.838  0.1025 -0.1002 -0.0003
31817W        W48291  16.280  10.110  14.337 -0.2993  0.2500  0.4330
31818W        W48292  18.052  13.475  14.129 -0.1133 -0.0234  0.2787
31819W        W48293  12.192   5.031  14.498 -0.1080 -0.2781  0.0496
31820W        W48294  15.240  11.125  13.360 -0.4033 -0.3776  0.1656
31821W        W48295   3.070  11.322  13.236  0.2758  0.3812 -0.2046
31822W        W48296   0.634  14.097  10.563  0.1178 -0.2442  0.2050
31823W        W48297   8.840   3.184  14.941  0.1088 -0.2915  0.0875
31824W        W48298   4.270  16.707  12.897 -0.0475  0.0028  0.0470
31825W        W48299   8.045  12.601  12.970 -0.0958  0.0966  0.1094
31826W        W48300   9.353   8.749   1.971  0.0297 -0.0837  0.5367
31827W        W48301  18.398   7.464  14.599  0.2712 -0.3695  0.1983
31828W        W48302  16.832  17.774  14.163 -0.0069 -0.0916 -0.0174
31829W        W48303   1.049  17.046  14.387 -0.2753 -0.0370  0.1489
31830W        W48304   3.147  11.958  10.557 -0.0299 -0.1034  0.0398
31831W        W48305   5.728  16.297   0.443 -0.2066  0.2206  0.3281
31832W        W48306   4.381  15.666   5.618  0.2270 -0.1469  0.1227
31833W        W48307   1.542  17.587   4.032  0.2003  0.0708  0.4370
31834W        W48308  10.162  15.367   2.150  0.0217 -0.4049  0.4033
31835W        W48309  13.581   5.501  10.861 -0.1131  0.2357 -0.2822
31836W        W48310   7.730   0.044   2.361 -0.3809 -0.3118  0.0064
31837W        W48311  18.781   0.711  13.582 -0.0449  0.4154  0.1655
31838W        W48312  14.560   5.692   2.184  0.0272 -0.1668 -0.1561
31839W        W48313  17.162   9.562  12.660 -0.1405  0.0525  0.1085
31840W        W48314  15.282  18.098   0.412  0.4888  0.2353  0.0681
31841W        W48315   7.472  14.076   1.853  0.2702 -0.0001  0.1680
31842W        W48316   9.429   0.039   0.611 -0.1042  0.1462  0.0005
31843W        W48317  16.125   0.733  11.884 -0.3118  0.1495  0.2754
31844W        W48318   3.008   8.390   4.553  0.2904 -0.0857  0.4754
31845W        W48319  12.271  16.539  11.319 -0.0866 -0.0579 -0.0986
31846W        W48320   0.264   9.145  12.086  0.0822 -0.0712 -0.0832
31847W        W48321   4.940  16.705  10.832 -0.0066  0.3022  0.0083
31848W        W48322   2.228  18.422  13.389 -0.2372 -0.0740 -0.1638
31849W        W48323  13.449  10.583  12.749 -0.1781 -0.2242  0.0002
31850W        W48324  15.036   2.618  12.243  0.0081 -0.0172  0.0826
31851W        W48325   4.268   0.940   2.502 -0.1411  0.1219  0.0170
31852W        W48326   7.238  18.613  12.228 -0.2837  0.3275  0.1154
31853W        W48327  14.131   5.223  15.041  0.0965 -0.0677 -0.1287
31854W        W48328   4.054  15.548  13.944  0.2059 -0.0152 -0.2911
31855W        W48329   8.252   1.834  14.286  0.0387  0.2427 -0.0275
31856W        W48330  13.758  18.322   3.973  0.1877  0.2529  0.2117
31857W        W48331   8.757  13.508  13.292 -0.1269 -0.0854  0.1605
31858W        W48332   1.195  18.070   3.512 -0.0381  0.0188  0.1162
31859W        W48333  18.101   1.119  11.550  0.0450 -0.2292  0.2289
31860W        W48334   2.750   6.956   2.754  0.0601  0.1967 -0.2243
31861W        W48335   1.412   6.891   3.248  0.0811 -0.1963  0.1205
31862W        W48336  18.396  12.496  10.521  0.0302  0.0225 -0.0297
31863W        W48337  12.709  13.142  15.340  0.0286  0.3288  0.1186
31864W        W48338  14.154  14.146   3.330 -0.0491 -0.2878 -0.1373
31865W        W48339   7.549   2.573  10.459 -0.0221  0.3635  0.0086
31866W        W48340  11.291   4.465   3.710 -0.0074 -0.3028 -0.1469
31867W        W48341   8.866   9.593  14.721 -0.0810 -0.0602  0.3733
31868W        W48342  14.228  13.401   0.033 -0.1648 -0.0285  0.3750
31869W        W48343   1.767  10.672   0.030 -0.2737  0.4431 -0.1436
31870W        W48344  10.958  18.215   5.356  0.2666 -0.0727  0.0840
31871W        W48345   2.757  12.862  15.241  0.1139 -0.0440  0.0581
31872W        W48346  15.427   2.368  15.393  0.1084  0.0863 -0.2210
31873W        W48347  10.905  11.495   5.475  0.3237 -0.0479  0.0864
31874W        W48348   2.522  12.026   3.511 -0.0232 -0.0939  0.0652
31875W        W48349   4.346   2.696  13.046  0.2965  0.0819 -0.0049
31876W        W48350   3.283   2.395   2.303  0.0183  0.0767 -0.1319
31877W        W48351  15.123   4.089   1.939  0.0270 -0.0914 -0.1880
31878W        W48352   9.191   2.482  12.155  0.3231  0.3262  0.1908
31879W        W48353   3.413   6.357  14.531  0.3492 -0.0405 -0.1515
31880W        W48354  17.139  12.324  13.494  0.0748  0.0409  0.1147
31881W        W48355  15.733  15.689   1.532 -0.1715  0.0749  0.2572
31882W        W48356   2.410  15.413  10.381 -0.1996 -0.1872 -0.0566
31883W        W48357   8.998   0.563  14.506  0.0426 -0.3909 -0.1113
31884W        W48358  13.793  18.214   2.563  0.0156  0.0919  0.2374
31885W        W48359   5.352   1.042  15.458 -0.2211  0.1617 -0.1754
31886W        W48360  14.531   1.241  12.049  0.1048  0.4896  0.0988
31887W        W48361  17.557  17.528   1.680 -0.2582 -0.4160 -0.0104
31888W        W48362   7.474   5.713   1.675  0.0321  0.0491  0.3033
31889W        W48363  10.892   5.149  12.392  0.1077  0.1040 -0.1839
31890W        W48364  11.862   5.051   5.718 -0.0623  0.3911  0.0761
31891W        W48365   6.926  14.165   2.499  0.1527 -0.1303 -0.1664
31892W        W48366  14.143   5.982  11.968  0.2680  0.2110  0.0570
31893W        W48367   5.225   2.500  14.257 -0.0216  0.1829  0.0818
31894W        W48368   1.318  11.054  13.813 -0.3637  0.1398  0.0529
31895W        W48369   7.840   3.278  13.901 -0.2000 -0.0935 -0.1593
31896W        W48370  10.471   5.070   4.364  0.0349 -0.0366 -0.1642
31897W        W48371  17.119  11.855  13.647  0.1248 -0.1636 -0.1123
31898W        W48372  16.059   2.759  13.172  0.0153 -0.5053  0.0388
31899W        W48373   6.497  17.837   5.434 -0.2987 -0.0325 -0.0882
31900W        W48374   8.225  14.304   0.367  0.0715 -0.1073  0.0934
31901W        W48375  14.118   1.568  11.330  0.3294  0.1851  0.2660
31902W        W48376  13.180   9.863   1.194  0.0799 -0.1512  0.0263
31903W        W48377   2.960  16.675  14.540  0.4140  0.0943 -0.0616
31904W        W48378  10.275  17.224  11.207  0.0617 -0.1018  0.1700
31905W        W48379   7.149  14.435  11.732  0.2621 -0.0893  0.0855
31906W        W48380   8.439   7.224   4.461  0.0549  0.1231 -0.0849
31907W        W48381   4.131   1.098  15.155 -0.2539  0.3537  0.0955
31908W        W48382  14.791   7.276  14.152 -0.0427  0.1289 -0.0725
31909W        W48383   1.428  11.585  14.775  0.1378  0.4781  0.0396
31910W        W48384  17.678   8.742   3.986  0.4595 -0.3622  0.3781
31911W        W48385  16.514  10.757  12.532  0.0555  0.0228  0.2156
31912W        W48386  13.797   3.078  15.038  0.0819 -0.2394 -0.5868
31913W        W48387   4.356  16.676   0.749  0.2082  0.1066 -0.0900
31914W        W48388  14.008  13.821   4.418  0.0586 -0.0984 -0.0495
31915W        W48389   9.186  12.374  12.378 -0.2661 -0.0043  0.1258
31916W        W48390   2.534  11.006   1.838  0.2009 -0.2130 -0.0411
31917W        W48391   9.204   1.722   4.961 -0.0036 -0.0955  0.1288
31918W        W48392  11.557  11.552  15.331  0.1728  0.1390  0.0440
31919W        W48393   8.988   8.763  13.685  0.2131  0.0613 -0.0305
31920W        W48394   0.881  10.551  11.728 -0.2466  0.0695  0.0461
31921W        W48395   9.595   3.682  10.800 -0.0813 -0.0319 -0.2406
31922W        W48396   1.274   6.189  15.358  0.0713  0.0228  0.1247
31923W        W48397  17.425   2.382   0.092 -0.0504 -0.1002 -0.1787
31924W        W48398  12.644   1.906   0.362  0.1205  0.1942  0.2121
31925W        W48399  12.354  17.973  13.755 -0.2465 -0.1542 -0.0511
31926W        W48400   2.989   7.981   2.894  0.1151  0.0993  0.0034
31927W        W48401   9.695   0.566  12.993  0.0700  0.2696  0.1124
31928W        W48402  17.875  11.419  13.277 -0.0166  0.1182  0.0148
31929W        W48403   4.115  17.839   5.408 -0.0448 -0.1731 -0.0454
31930W        W48404  13.069  13.787  14.917  0.1202  0.1059 -0.1884
31931W        W48405  13.408  15.906   4.225  0.0793 -0.2037 -0.1515
31932W        W48406  10.127  14.348   0.440  0.0311 -0.1550 -0.0711
31933W        W48407  11.723   5.891   5.646  0.0377 -0.0902 -0.0827
31934W        W48408   2.639   5.122   0.296  0.1279  0.1296 -0.2126
31935W        W48409  16.372   0.301   3.752 -0.2476 -0.1301  0.1432
31936W        W48410   7.089  11.963  15.496 -0.2683 -0.0896 -0.0834
31937W        W48411  10.238  11.683   3.408 -0.1727  0.0334 -0.1578
31938W        W48412  17.540  16.658  13.520  0.1682 -0.1236  0.0860
31939W        W48413  18.080   4.397  13.667  0.2005  0.1495  0.0446
31940W        W48414  13.595   4.854  15.544 -0.2411 -0.1013  0.1732
31941W        W48415  18.187   4.626  14.827  0.1233 -0.0262  0.0493
31942W        W48416  10.640   0.006  11.745  0.0471  0.3435  0.2525
31943W        W48417   1.699   6.421  10.826 -0.1918 -0.0292  0.0735
31944W        W48418  11.649  10.050  11.987 -0.1076 -0.1003 -0.1779
31945W        W48419  18.587  10.687  13.900 -0.3685  0.0226  0.2197
31946W        W48420  10.988   4.865   0.616  0.0404 -0.0914 -0.2263
31947W        W48421  10.130   4.320   4.939 -0.1455  0.1511 -0.2034
31948W        W48422  10.560  13.956   5.633 -0.0858  0.0647  0.0124
31949W        W48423   6.619   0.677  13.685  0.0499  0.1102  0.0469
31950W        W48424   6.855  11.065   9.557  0.0169  0.0742 -0.1097
31951W        W48425   6.185   8.329   2.547 -0.0932  0.0138  0.1737
31952W        W48426   0.217  16.735   0.347 -0.1063 -0.0920 -0.0685
31953W        W48427  10.916   6.455   2.817  0.3195  0.0221  0.0289
31954W        W48428   2.215  10.283   4.725 -0.0759  0.2474  0.0043
31955W        W48429   8.780   9.042   2.941  0.2127  0.1458 -0.1324
31956W        W48430  16.227  17.610  13.939  0.0960 -0.1278  0.0883
31957W        W48431  14.005   0.275   1.636  0.2137 -0.0163  0.2708
31958W        W48432  12.548  18.549  15.507 -0.0919  0.0837  0.0140
31959W        W48433   7.795   5.411  13.650  0.0632 -0.1741  0.0785
31960W        W48434   1.668   8.004   2.116 -0.2971 -0.0465 -0.1191
31961W        W48435   6.213  13.009  11.567  0.1762  0.3718  0.0166
31962W        W48436  17.151   7.966  11.798  0.0772  0.0379 -0.1560
31963W        W48437  11.204  15.786  14.010 -0.0593  0.1976 -0.0513
31964W        W48438  10.644   3.743   2.065  0.0549  0.0793  0.1215
31965W        W48439   1.519  17.064   3.817 -0.0757  0.2815  0.1135
31966W        W48440   8.021  17.816   3.234 -0.2954  0.0898  0.2443
31967W        W48441   9.328   5.481  15.075  0.1275  0.0467 -0.1920
31968W        W48442   3.472  13.411   4.984  0.3313 -0.0115  0.1872
31969W        W48443  14.739   6.769  13.536  0.1686 -0.1999 -0.2457
31970W        W48444   4.940  10.507  13.427  0.0184 -0.0363 -0.1474
31971W        W48445  14.693  16.320  14.932 -0.2344  0.1074  0.0741
31972W        W48446  13.855  13.702  15.454  0.1869 -0.2939 -0.3425
31973W        W48447  18.137   5.400   2.651  0.2453 -0.0496 -0.2438
31974W        W48448  16.187  15.887   1.845 -0.7538 -0.2805  0.2297
31975W        W48449  13.163  16.706   3.179  0.0259 -0.0502 -0.1346
31976W        W48450   5.769  17.897  12.289  0.3024  0.4828  0.1061
31977W        W48451   0.537   0.763  13.708  0.2680 -0.0155 -0.1405
31978W        W48452  13.475   7.376   3.078  0.0320 -0.0897 -0.1160
31979W        W48453  13.570   5.153   2.729  0.0152  0.0131  0.1388
31980W        W48454   5.557   3.095  12.638 -0.2058  0.0549  0.0128
31981W        W48455  11.460  15.184   4.183 -0.0672 -0.0877  0.0806
31982W        W48456   1.323  11.890  13.704 -0.0166 -0.0097 -0.0452
31983W        W48457  12.787  17.682  11.751  0.1947 -0.3384  0.2055
31984W        W48458  10.450   6.152  10.323 -0.1793  0.2050 -0.0382
31985W        W48459   1.666  10.208  11.474 -0.2405 -0.1514 -0.1609
31986W        W48460   5.172   7.820  13.636 -0.0753 -0.1124 -0.0280
31987W        W48461   6.828   4.860  14.417  0.3386 -0.1305  0.1402
31988W        W48462   5.224   7.819   0.076 -0.1405 -0.3651  0.2919
31989W        W48463  15.574   1.926  15.122 -0.1016 -0.0734 -0.1095
31990W        W48464   2.987  12.777   2.382 -0.2396 -0.0535  0.1340
31991W        W48465  18.412  10.436   5.720 -0.0790  0.0475  0.4503
31992W        W48466   8.310   8.521   3.557 -0.1818 -0.1645 -0.0577
31993W        W48467   6.222   2.072   3.107 -0.3779  0.1406 -0.0505
31994W        W48468   2.980   2.147   9.523  0.2757 -0.0232  0.2711
31995W        W48469   5.800   7.164   3.846  0.0333  0.1415  0.1169
31996W        W48470   3.548  17.919   0.093  0.1908 -0.2221 -0.0269
31997W        W48471   2.638  10.054   4.458 -0.3769  0.1260  0.0600
31998W        W48472   5.184   4.773  12.171  0.2109 -0.0616  0.0769
31999W        W48473  13.465  18.130  13.221 -0.0652  0.1584  0.2177
32000W        W48474  16.138   0.312  13.609 -0.0146 -0.0806 -0.3693
32001W        W48475   3.725  12.806  14.814  0.0372 -0.3601  0.1186
32002W        W48476  15.559  16.505  14.595 -0.0018 -0.0675 -0.0907
32003W        W48477   8.819   4.612   0.274 -0.1188  0.2517  0.0816
32004W        W48478  13.472   7.002  11.263  0.2304 -0.1729 -0.1437
32005W        W48479  14.417  13.294   3.063  0.2722  0.0006 -0.0604
32006W        W48480  13.813  12.202  15.420  0.0555  0.2413 -0.2028
32007W        W48481  11.464  11.036   1.692  0.0579 -0.3711 -0.0893
32008W        W48482  12.314   4.113  12.576 -0.3471  0.2049 -0.1059
32009W        W48483   5.453  17.613   1.263 -0.3071  0.1057  0.0204
32010W        W48484   3.689  11.267   3.358 -0.1028  0.1474 -0.0234
32011W        W48485  17.861   1.751   2.258 -0.1792  0.0293  0.1033
32012W        W48486  11.887  10.903   1.925  0.1237  0.0121  0.1074
32013W        W48487  10.148  15.415  12.705 -0.1342  0.0620  0.0875
32014W        W48488   7.967  16.444  13.331  0.1305  0.0581  0.0048
32015W        W48489   9.361  17.442   5.107 -0.1085  0.1685  0.2271
32016W        W48490   5.535  17.259   4.772  0.5645 -0.0929 -0.1200
32017W        W48491  17.411   9.485   4.513  0.0071  0.1838 -0.0934
32018W        W48492  13.679  13.970   3.475 -0.2338 -0.3616 -0.4203
32019W        W48493   4.388  11.099  10.339 -0.1244 -0.1708  0.1891
32020W        W48494  11.436  17.820   3.869 -0.1445  0.0398 -0.0166
32021W        W48495  15.961   1.151   2.628  0.0162 -0.1110  0.0785
32022W        W48496  18.621   2.087   2.071 -0.0439 -0.1627 -0.3874
32023W        W48497  11.222  18.472   5.015 -0.3033  0.1453 -0.0212
32024W        W48498  16.458  16.650   0.389 -0.0959 -0.1527  0.2413
32025W        W48499  13.450   8.442  10.861 -0.1420 -0.2081 -0.2432
32026W        W48500   3.123  15.725  14.332  0.0314 -0.3436  0.2721
32027W        W48501   4.786   2.412  14.693 -0.2503  0.1749 -0.3608
32028W        W48502  14.108  17.476  11.178  0.1964  0.2156  0.0958
32029W        W48503  11.879   4.113  10.029 -0.1581 -0.0339  0.1922
32030W        W48504   9.863   8.321   4.692 -0.0076  0.0748  0.1394
32031W        W48505  16.051   2.911   5.424  0.1656  0.0044 -0.0155
32032W        W48506   3.393   0.419   1.661  0.1287  0.1616  0.0998
32033W        W48507   3.256  14.860   4.029  0.2516 -0.1872  0.1136
32034W        W48508   1.802  10.910   9.652 -0.0908  0.2500 -0.0968
32035W        W48509   3.262   9.462  15.214 -0.1004 -0.0110 -0.1356
32036W        W48510  17.531   7.452  11.740 -0.1152  0.2484  0.1570
32037W        W48511   5.308   8.409  10.446 -0.6065 -0.1128  0.1229
32038W        W48512   1.124  16.155  13.953  0.2914 -0.1507  0.3413
32039W        W48513  16.960  11.366   3.969 -0.3064  0.0154 -0.0132
32040W        W48514   4.675  11.388  13.758  0.0383 -0.0710 -0.0382
32041W        W48515   5.643  15.241   3.167  0.1311 -0.2471 -0.1412
32042W        W48516  13.973   4.989  12.280 -0.0714 -0.0738  0.0772
32043W        W48517  18.690  16.198  14.262  0.0844 -0.1763 -0.2013
32044W        W48518  11.003   5.816   4.981  0.1000 -0.2109  0.0172
32045W        W48519  17.831  13.176  13.763 -0.1105  0.0015  0.1941
32046W        W48520   8.032   9.485  13.937 -0.0046  0.0075 -0.0893
32047W        W48521  12.525  18.665   2.082 -0.3024 -0.0850  0.0265
32048W        W48522   9.085  15.751  14.713  0.2920 -0.1407  0.0305
32049W        W48523   0.303  11.716   4.024  0.1136 -0.1850 -0.0430
32050W        W48524  14.364   9.345  14.429  0.2008  0.0620  0.0227
32051W        W48525   5.898   2.774  13.595 -0.1096 -0.1556  0.1318
32052W        W48526   1.730  10.001  13.292 -0.0704 -0.0389  0.1290
32053W        W48527  18.252   0.953   1.980  0.0913  0.0702 -0.0510
32054W        W48528  17.715  13.134   2.877 -0.0128  0.0578 -0.0771
32055W        W48529  11.160   2.987   1.068 -0.2411  0.0257  0.2814
32056W        W48530   6.542  10.202  14.429  0.0422  0.1256 -0.1164
32057W        W48531   3.967   9.817   9.408  0.2817  0.2177 -0.0832
32058W        W48532  15.861   3.939  11.920  0.2053 -0.0413  0.0315
32059W        W48533   8.234   6.885  12.831  0.1402 -0.0889  0.0537
32060W        W48534   0.649  11.243   2.947 -0.0294 -0.1775  0.0934
32061W        W48535  16.281   2.883   0.683  0.2530 -0.2040 -0.1156
32062W        W48536  16.851   5.176   3.094 -0.0283 -0.0780  0.0263
32063W        W48537  17.353  15.367   5.006  0.1354  0.2705  0.4603
32064W        W48538  16.975   1.840   1.328  0.1949 -0.1528 -0.0477
32065W        W48539  17.383  10.985  12.893  0.1638 -0.3183  0.2732
32066W        W48540   3.403   0.222  13.750 -0.0078 -0.1937 -0.1890
32067W        W48541  15.766   2.354  13.114  0.1614  0.2898  0.0721
32068W        W48542   5.932   8.512   0.333  0.0503  0.1405 -0.0787
32069W        W48543  17.674   3.188  14.563  0.1996 -0.1873  0.1840
32070W        W48544   8.452  11.318   3.186 -0.1181  0.2368 -0.3138
32071W        W48545   9.607   8.328  13.025  0.0950 -0.2993 -0.2782
32072W        W48546   4.306   3.630  14.381 -0.1935 -0.1520  0.1458
32073W        W48547   2.097  16.328  10.801 -0.0095 -0.0496 -0.0107
32074W        W48548  16.767  15.679  14.374  0.0215 -0.1419  0.1445
32075W        W48549   9.489  12.653   4.600 -0.0588  0.1517 -0.1431
32076W        W48550   8.473   5.377   2.668 -0.2952 -0.1509  0.0750
32077W        W48551   5.758   0.433  10.197 -0.0100  0.1743  0.1648
32078W        W48552  14.680  11.404  12.297  0.1564 -0.1750 -0.0864
32079W        W48553  16.494   3.079   3.038 -0.3897  0.0985  0.1290
32080W        W48554  17.381  17.839   5.711 -0.0241  0.1540 -0.0955
32081W        W48555   6.206   8.966   4.604  0.0754 -0.3446 -0.0130
32082W        W48556  12.257  12.583  10.673 -0.3200  0.3084 -0.1284
32083W        W48557   9.823  18.663   4.519 -0.0741 -0.0636  0.3437
32084W        W48558   1.310  16.070   4.123  0.0741 -0.0869  0.0416
32085W        W48559   2.418  15.878  10.076  0.0833 -0.1017  0.1433
32086W        W48560  13.221  16.172  15.158  0.2606 -0.1814  0.0287
32087W        W48561   8.319  18.178  13.597  0.1913  0.1849  0.1263
32088W        W48562   1.636  13.685   1.778 -0.0896  0.0162  0.2620
32089W        W48563   0.840   2.246  14.793 -0.1959 -0.1135 -0.1044
32090W        W48564   0.733   9.168   3.579  0.0239 -0.1883  0.0585
32091W        W48565   3.342  17.189   2.636 -0.2981  0.0792 -0.0278
32092W        W48566  13.774  14.675  13.064 -0.2912 -0.1333 -0.2780
32093W        W48567   0.953   9.247   2.766  0.1267 -0.4089  0.1649
32094W        W48568  16.694   7.166  11.289  0.0189  0.3002 -0.3189
32095W        W48569   1.488   6.711   0.511  0.3702  0.0554  0.2183
32096W        W48570  18.466   4.903   2.418 -0.1526 -0.0149  0.0606
32097W        W48571  12.873   2.565   0.907 -0.0354 -0.0555 -0.2103
32098W        W48572   1.139  12.897  14.059 -0.0032  0.0094 -0.0350
32099W        W48573   9.178  16.283  13.861 -0.3034 -0.1647  0.0186
32100W        W48574   0.436   4.309   1.413  0.2084  0.0828 -0.0340
32101W        W48575  18.108   0.160   3.174 -0.1439 -0.0934  0.1319
32102W        W48576   7.223   2.635   2.476  0.0188 -0.2282  0.1136
32103W        W48577   2.273   5.960   4.348  0.0266  0.4291  0.0313
32104W        W48578  13.973  11.302   2.724 -0.0744  0.0003 -0.2261
32105W        W48579  11.611   6.089   1.753 -0.0101 -0.3030 -0.1111
32106W        W48580  10.219  14.658  14.252 -0.3011 -0.0134  0.3192
32107W        W48581   1.555   7.390  13.705  0.2929 -0.2961  0.3994
32108W        W48582   4.690   6.230   9.524  0.0540  0.0135 -0.1757
32109W        W48583  13.056   8.071  14.658  0.0793 -0.0413 -0.1271
32110W        W48584   4.612   4.290  10.860  0.2942 -0.0518  0.2264
32111W        W48585   4.930   3.652  10.036 -0.0563  0.0420 -0.0944
32112W        W48586   0.224   9.159  14.958 -0.1255  0.2712 -0.2300
32113W        W48587  13.625   4.173   1.608 -0.0855  0.1587 -0.1312
32114W        W48588   8.549  18.646   0.804  0.1811 -0.3284 -0.1284
32115W        W48589   9.371  12.364   2.040 -0.2416 -0.1316  0.0503
32116W        W48590  17.919   0.748   1.013  0.4895 -0.1181 -0.2735
32117W        W48591   2.433  16.524  13.398 -0.2158  0.0481 -0.1060
32118W        W48592  16.709  16.659  14.419 -0.3471  0.6017 -0.1147
32119W        W48593  11.800   2.001  14.821 -0.0662  0.1566  0.1072
32120W        W48594   4.289   7.937  11.301 -0.1853 -0.4776  0.4238
32121W        W48595  17.715   7.225   2.244 -0.0228 -0.0487 -0.0647
32122W        W48596   7.649  13.577   0.666 -0.0562  0.1028 -0.0982
32123W        W48597   5.699   8.454   4.914 -0.0967 -0.1831 -0.1685
32124W        W48598   2.129   7.816   0.861  0.0034 -0.1010 -0.3471
32125W        W48599   4.229  13.096   3.764  0.3674  0.2105 -0.3251
32126W        W48600   7.121   1.388   1.131  0.0593 -0.1380  0.0370
32127W        W48601   3.020  11.849  13.328  0.0694 -0.3041 -0.1698
32128W        W48602  14.504   4.375  11.999  0.2851 -0.0935 -0.1699
32129W        W48603   7.199  10.599   1.157 -0.1835 -0.2804 -0.0125
32130W        W48604   7.731  15.308  14.939 -0.1432 -0.1583  0.2641
32131W        W48605  16.585  16.569   5.434 -0.0790  0.0872 -0.0118
32132W        W48606   8.101  12.480  14.926 -0.0124  0.2792  0.0775
32133W        W48607  18.101  14.248   3.922 -0.1387  0.0670 -0.1688
32134W        W48608  12.961  11.223   1.973  0.0295 -0.1641 -0.2748
32135W        W48609  16.999   4.033   0.420  0.4299  0.2850 -0.4074
32136W        W48610  12.321  12.918   5.181 -0.2042 -0.1998  0.0002
32137W        W48611   6.942   0.453   4.730 -0.0717  0.0954 -0.3880
32138W        W48612  12.881  14.038   0.180 -0.1345  0.0553 -0.3761
32139W        W48613   5.733   2.960  10.757  0.1129 -0.0438 -0.0197
32140W        W48614   7.510  11.153   4.018 -0.1705 -0.1681 -0.0804
32141W        W48615   2.791   9.310  15.021 -0.0263 -0.1367  0.0445
32142W        W48616   3.149  13.425  15.505 -0.1405  0.1391 -0.2700
32143W        W48617   2.230   7.694  12.326 -0.1116 -0.1398  0.3005
32144W        W48618  13.847  11.446   0.228  0.0168 -0.3469  0.1727
32145W        W48619  15.723   1.793   1.588 -0.0913  0.0211  0.0009
32146W        W48620  15.086   5.998  12.599 -0.1604  0.5021  0.0545
32147W        W48621  15.091   1.419  13.791 -0.0766  0.0548  0.1456
32148W        W48622  12.996  17.997  13.131 -0.1865 -0.3812 -0.0264
32149W        W48623  15.106   7.084   0.846  0.1608 -0.1640  0.1052
32150W        W48624  13.029  17.304   5.557  0.4837  0.0489  0.0031
32151W        W48625   4.886   4.752  10.752 -0.2361 -0.0145 -0.2389
32152W        W48626  11.109  13.638  14.710 -0.0017 -0.1102  0.2940
32153W        W48627   0.253   9.393   3.325 -0.4057 -0.1427 -0.0259
32154W        W48628  10.085  17.965   5.800  0.0090 -0.0672  0.0290
32155W        W48629   7.842   8.503   5.165  0.0514  0.1283 -0.2076
32156W        W48630   7.925  11.026   4.276  0.0193  0.1086  0.1007
32157W        W48631  17.758   4.258   5.008  0.2686 -0.2558 -0.2054
32158W        W48632   2.976   1.472  10.612  0.0058 -0.1973  0.0612
32159W        W48633   2.805   6.039   3.434 -0.1380 -0.0601 -0.1930
32160W        W48634   1.307  14.820  14.969  0.0865  0.0955  0.0166
32161W        W48635  13.777  17.180   2.704  0.2387 -0.0912 -0.1548
32162W        W48636   3.577  15.773   3.925  0.1261 -0.2836  0.0262
32163W        W48637   2.974   1.627  12.702  0.1776 -0.0276  0.0163
32164W        W48638   0.503   6.745   0.356 -0.0043 -0.2130  0.2215
32165W        W48639   2.634   0.380   3.795  0.0846  0.1822 -0.2812
32166W        W48640   6.221   2.328  10.957  0.0106 -0.1043  0.1202
32167W        W48641  15.724  12.159   1.691 -0.0265  0.0573 -0.1199
32168W        W48642   1.028  16.474  13.522  0.0940  0.0331  0.1028
32169W        W48643   5.673  16.805   4.712  0.1732 -0.1895 -0.2298
32170W        W48644  13.934   2.201   2.804 -0.1989 -0.2162  0.2857
32171W        W48645  10.432   3.565   1.551  0.1149 -0.0147  0.2496
32172W        W48646   6.936  14.652   0.802 -0.0176  0.0973 -0.0291
32173W        W48647   8.072   6.298   1.261 -0.0655 -0.1482 -0.3311
32174W        W48648  12.783  13.394  14.897  0.1976 -0.0536 -0.1874
32175W        W48649   3.308   6.728   3.617  0.1104 -0.3219 -0.0961
32176W        W48650  15.685  15.884   2.144 -0.1636 -0.0838  0.3093
32177W        W48651   6.949  16.865   4.277  0.2233  0.1515  0.2641
32178W        W48652  11.847   6.882  13.379  0.0134 -0.1366  0.0385
32179W        W48653   0.905   3.857  12.623  0.0846 -0.0609 -0.1415
32180W        W48654  10.840  10.329  14.513 -0.1494 -0.0137  0.0329
32181W        W48655   6.906   3.666  12.571  0.1470 -0.1013  0.1063
32182W        W48656   0.124  17.721   5.447  0.1030  0.3525 -0.0674
32183W        W48657   7.299   9.926   0.792 -0.1434  0.1426  0.1548
32184W        W48658  14.832  13.897   3.213  0.5474  0.0629  0.0891
32185W        W48659   0.729  10.972   4.400  0.5055  0.1316  0.0012
32186W        W48660  15.977  10.543  14.428  0.0557  0.0567  0.0178
32187W        W48661  14.320   3.962  13.729  0.1105  0.1248  0.2433
32188W        W48662  17.063   6.169   2.824  0.3582 -0.1559  0.0252
32189W        W48663  14.813  15.875   1.156 -0.2963 -0.2174 -0.2045
32190W        W48664  18.625   5.352   0.227 -0.1307  0.0549 -0.2065
32191W        W48665   6.722   2.115   2.846 -0.0431 -0.0779 -0.0414
32192W        W48666  17.173  10.043  12.145 -0.1459 -0.1196 -0.1721
32193W        W48667  12.125   1.559   5.712 -0.0952  0.1350 -0.1561
32194W        W48668  15.525   7.020   5.698  0.3167 -0.1769 -0.0252
32195W        W48669  14.047   9.165  12.965 -0.3121  0.1669  0.3418
32196W        W48670   6.526   0.151  14.387  0.0364  0.0359  0.0881
32197W        W48671  13.302  17.848   3.111  0.1288 -0.1043  0.2310
32198W        W48672  13.517   3.241  14.044  0.1359 -0.1693 -0.1013
32199W        W48673   8.468  12.934  12.712  0.0994  0.3004 -0.1037
32200W        W48674   8.577  14.384   1.641  0.0860  0.1658 -0.0582
32201W        W48675   9.509   1.004  13.853  0.0202  0.1168 -0.0577
32202W        W48676  10.598   3.382   3.416 -0.1968  0.0398 -0.1463
32203W        W48677  10.121   7.537  13.277 -0.1252 -0.0331 -0.2874
32204W        W48678   2.168  12.831   5.154  0.0425  0.0598 -0.3120
32205W        W48679   6.875   2.323  14.130  0.1169  0.2289  0.3583
32206W        W48680  17.131  13.515   4.289  0.1421 -0.4795 -0.2562
32207W        W48681  11.090  16.097   1.128 -0.3206 -0.0010 -0.2542
32208W        W48682   2.136  14.690  13.966  0.0626 -0.3155  0.2509
32209W        W48683   1.125   2.912   3.823  0.1346 -0.0821 -0.1264
32210W        W48684   7.270   7.132  12.253  0.0895 -0.0075 -0.1751
32211W        W48685  12.041  14.815   4.773 -0.2448  0.0925  0.0464
32212W        W48686  10.995  18.659   3.124  0.0709 -0.2476  0.1832
32213W        W48687  18.131  16.483   5.043  0.2016 -0.1611 -0.0468
32214W        W48688  15.198   6.706  10.979  0.3230  0.2714 -0.2480
32215W        W48689   2.759  12.744   4.351 -0.1163  0.3429 -0.3298
32216W        W48690   3.163   0.676  13.877 -0.2536 -0.0021 -0.1547
32217W        W48691   8.830  15.004   1.141 -0.0027  0.1082  0.0413
32218W        W48692   4.531   7.765  10.592  0.4240  0.0016  0.3042
32219W        W48693  15.890  16.599   0.441 -0.0593  0.0459 -0.3860
32220W        W48694  15.300  12.514  15.317  0.0109  0.1511  0.2054
32221W        W48695   5.259  17.382  13.450  0.2150  0.0992 -0.0882
32222W        W48696  12.607   8.463  12.994 -0.0802 -0.2352  0.1303
32223W        W48697  12.330  11.626  15.246  0.1557 -0.2027  0.1901
32224W        W48698   5.740  13.812  11.457 -0.0416  0.1981  0.0579
32225W        W48699   1.354   5.213  15.346  0.1559  0.1661 -0.0043
32226W        W48700   2.439  17.405  13.668  0.2101 -0.1187  0.0445
32227W        W48701   9.166  10.785   2.164 -0.0474  0.0134  0.1630
32228W        W48702   4.651  11.707  10.894  0.0487  0.4562  0.1872
32229W        W48703   0.880   6.458  10.711 -0.1604  0.1730 -0.0508
32230W        W48704   5.851   6.685  13.551  0.2803  0.0607 -0.0579
32231W        W48705   8.267   5.701  12.309 -0.5681  0.0593 -0.0151
32232W        W48706   1.725   1.115   0.151  0.3141 -0.1088 -0.2119
32233W        W48707  11.298  12.283   2.688  0.0233 -0.2276  0.0449
32234W        W48708   8.850   1.335   0.816 -0.1693  0.0723 -0.3120
32235W        W48709   3.606  11.235  10.688 -0.2007  0.1414  0.0727
32236W        W48710  15.110   6.564   1.109  0.0194 -0.2256  0.0259
32237W        W48711   5.598   0.060  15.177  0.3380  0.0835  0.0661
32238W        W48712   5.418  18.439   3.307 -0.1829 -0.3240 -0.1511
32239W        W48713  14.410   9.895   3.016 -0.1193 -0.1503 -0.0131
32240W        W48714  13.942  12.060  11.581  0.4954 -0.1056  0.1602
32241W        W48715   9.753  10.959   1.155  0.0820 -0.1798 -0.1316
32242W        W48716  10.874  17.089   1.744  0.1290 -0.3048 -0.0542
32243W        W48717  18.335  11.626  14.796 -0.0719  0.0022  0.2362
32244W        W48718   8.741   2.727  14.864 -0.0283  0.0190 -0.0861
32245W        W48719   0.547   3.982   1.920 -0.1403 -0.0711 -0.2007
32246W        W48720  13.566  15.685   5.409 -0.2083  0.2539  0.1254
32247W        W48721  15.799   4.441   2.684  0.2201 -0.0359  0.0759
32248W        W48722   0.916   2.999  15.246 -0.1373  0.0336 -0.1435
32249W        W48723   6.245  18.071   2.640  0.0962 -0.0534  0.1737
32250W        W48724  11.210   0.588   2.313  0.2854 -0.3285 -0.0774
32251W        W48725   0.023  17.458  11.803 -0.0277 -0.1020 -0.2175
32252W        W48726  13.076  10.059   2.820 -0.0465 -0.0230 -0.3090
32253W        W48727   6.968   1.183  11.225  0.2879 -0.3391 -0.3824
32254W        W48728  14.311   1.553   4.504 -0.0560  0.0751  0.0882
32255W        W48729   1.675   0.678   0.889 -0.0196  0.2507 -0.0551
32256W        W48730  14.882  15.609  12.772 -0.2951 -0.0656  0.0677
32257W        W48731   3.653   0.812   1.312  0.1444  0.1265 -0.1375
32258W        W48732  10.720   7.754   2.409 -0.1383 -0.0183 -0.1836
32259W        W48733   4.379  17.508   3.489 -0.3439 -0.0572  0.0779
32260W        W48734  13.450   0.327  13.375 -0.1793 -0.1084 -0.2171
32261W        W48735  16.163   3.590   3.513 -0.1978  0.3023  0.2097
32262W        W48736   9.859  16.004   2.965 -0.1336  0.0256 -0.0621
32263W        W48737  10.681  12.545   4.436  0.4539 -0.1678  0.0166
32264W        W48738   7.521   5.735  12.859  0.3393  0.1795 -0.0932
32265W        W48739   4.935  12.306  13.671 -0.0232 -0.0045 -0.1011
32266W        W48740  14.544  13.849  12.297  0.0644 -0.1201  0.1124
32267W        W48741  17.682  13.337  15.451 -0.1497 -0.0437  0.4968
32268W        W48742   1.338  17.479  14.596  0.1539  0.2231 -0.0856
32269W        W48743  13.296  14.817  15.172 -0.0746 -0.1729  0.1022
32270W        W48744  11.738  18.683   5.214 -0.1404  0.0557  0.0839
32271W        W48745   2.825  10.710  11.178 -0.0196  0.2176 -0.2396
32272W        W48746  12.647   6.564  13.908 -0.2472 -0.2063  0.1028
32273W        W48747  18.279   9.050  11.293 -0.2542  0.1531  0.0783
32274W        W48748  10.885   0.148   0.884 -0.1642 -0.0592 -0.0238
32275W        W48749   4.719   9.814   0.672 -0.0824 -0.0195 -0.1180
32276W        W48750   4.751  14.699  11.579 -0.0269  0.0924  0.2818
32277W        W48751   5.538  16.657   5.606  0.0460 -0.1395 -0.3452
32278W        W48752  14.132   7.316  13.177  0.1970 -0.1117 -0.1362
32279W        W48753   5.623  12.868  13.311  0.3139 -0.0577 -0.0121
32280W        W48754   6.392  14.549   1.466  0.1059  0.0163  0.2479
32281W        W48755  18.783  18.542   0.082 -0.2439  0.2896 -0.0465
32282W        W48756   8.152   2.326  13.541  0.0345 -0.0439 -0.2666
32283W        W48757   3.779   3.089   1.757 -0.0313 -0.2044  0.0159
32284W        W48758  11.645   7.770   4.928  0.0924 -0.1060 -0.2108
32285W        W48759   7.224   9.263  13.489  0.2187 -0.0721  0.4556
32286W        W48760  14.960   1.222   1.336 -0.0268 -0.1959  0.0324
32287W        W48761  17.122  11.230   5.254 -0.0989  0.0421 -0.0406
32288W        W48762   6.366   9.158  14.760 -0.2950 -0.1516  0.0913
32289W        W48763  10.992   6.769  12.674  0.3246 -0.1079 -0.2163
32290W        W48764  14.896   3.208  13.428  0.4112 -0.0647  0.0408
32291W        W48765  16.071   5.891   0.066 -0.1726  0.0142  0.3201
32292W        W48766   5.075   9.390  10.630  0.0611 -0.3278  0.0346
32293W        W48767   8.379  16.767  11.617  0.0192 -0.0782 -0.0178
32294W        W48768   1.904   7.221  12.940  0.0692  0.0371  0.2184
32295W        W48769   8.275   4.127  14.855 -0.1353  0.0009  0.1507
32296W        W48770   1.954  15.799   2.209 -0.0364  0.0004 -0.0502
32297W        W48771   3.803   7.524  14.068  0.5342  0.0971 -0.1101
32298W        W48772  18.735  18.572   3.124 -0.1434  0.0993  0.1621
32299W        W48773   6.819  17.976   4.255 -0.0453  0.1094 -0.1522
32300W        W48774   8.457   8.343   4.104  0.1357 -0.3286  0.0520
32301W        W48775  15.634  13.491  11.143 -0.0980 -0.1011 -0.1083
32302W        W48776   0.098   0.338   1.647 -0.0523  0.0043 -0.2642
32303W        W48777  12.685   9.182   0.530 -0.1420  0.0657 -0.4515
32304W        W48778   9.488  11.023   2.469 -0.1885  0.1529  0.2956
32305W        W48779  10.051  12.114   3.210  0.0964 -0.3892  0.1227
32306W        W48780  18.366  18.345  12.587 -0.0398  0.2489  0.1463
32307W        W48781  15.912  15.239  10.353 -0.0970 -0.0518  0.0982
32308W        W48782   7.442   4.483  12.641 -0.0181  0.2446  0.0807
32309W        W48783   4.610   9.315   1.875  0.1058 -0.2300  0.1561
32310W        W48784   7.240   0.282  10.438 -0.2560 -0.0461 -0.3191
32311W        W48785   2.599  16.211  12.205  0.1281 -0.2764  0.1242
32312W        W48786   1.433  17.987   3.034  0.1238 -0.2832 -0.1356
32313W        W48787  18.330  13.315  14.540  0.1419  0.1302 -0.0081
32314W        W48788   8.018   5.980   0.011  0.1897 -0.0812 -0.0150
32315W        W48789  16.694  12.827  11.296  0.3859  0.0597 -0.2322
32316W        W48790  11.072  18.756   1.772 -0.0338  0.0677  0.2803
32317W        W48791  12.574   8.904   1.924 -0.0234  0.2175 -0.3262
32318W        W48792   9.129  16.601  12.477  0.2475 -0.1105  0.0921
32319W        W48793  14.735   6.258   0.950  0.3638  0.0631  0.3764
32320W        W48794  10.728   5.797  14.575 -0.1231  0.0631  0.0943
32321W        W48795  11.674   6.570  11.141  0.0413 -0.2420  0.2840
32322W        W48796   3.127   5.244  14.497 -0.1263  0.0703 -0.2206
32323W        W48797  16.869  11.144  15.216  0.1053  0.4641 -0.1103
32324W        W48798   4.657   8.461  15.566 -0.0217 -0.1262  0.1216
32325W        W48799   9.540  14.954   0.316 -0.1400  0.2091  0.0305
32326ION     NA48800   0.944   0.369   5.335  0.0234  0.1663 -0.0076
32327ION     NA48801   1.517  17.730  12.375  0.3153  0.0076  0.3041
32328ION     NA48802   7.648  18.151   9.557 -0.3094 -0.3154 -0.1764
32329ION     NA48803   0.056  15.427   3.611  0.3280 -0.0025 -0.2595
32330ION     NA48804  15.792  18.119   4.065 -0.1591  0.3442  0.1738
32331ION     NA48805   5.156  14.752   3.012 -0.0855 -0.3088 -0.1359
32332ION     NA48806  13.486  16.633   6.199  0.1064  0.2962 -0.0112
32333ION     NA48807  16.813   4.276   1.965 -0.0079 -0.2123 -0.1462
32334ION     NA48808   6.715  10.000   5.040  0.2361 -0.2495  0.2296
32335ION     NA48809   8.640   8.784   5.749 -0.1561  0.0411  0.0674
32336ION     NA48810  16.415  17.966  12.446  0.2226  0.2576  0.0689
32337ION     NA48811  11.750  12.456  10.808  0.0238 -0.0593 -0.0118
32338ION     NA48812  18.229   4.191   5.230  0.1277  0.0938  0.0888
32339ION     NA48813   3.339  14.426   3.729 -0.1072  0.2524  0.0545
32340ION     NA48814  11.619  11.810   6.216  0.1495 -0.0744  0.1231
32341ION     NA48815  10.364  15.738   3.088  0.0188 -0.1355  0.4092
32342ION     NA48816  12.968  18.389  15.389  0.2402  0.0804  0.0663
32343ION     NA48817   7.032  15.713   4.459  0.2806 -0.2458 -0.0802
32344ION     NA48818   6.475  10.319  13.677  0.0673  0.0787 -0.0485
32345ION     NA48819  13.021  18.651   6.082 -0.2324  0.2149 -0.2660
32346ION     NA48820  13.679  18.249   4.502  0.1482 -0.1292  0.1081
32347ION     NA48821  11.859   9.043   5.260  0.0676  0.2071  0.3161
32348ION     NA48822   6.332   2.592   4.433 -0.2836 -0.1293 -0.1315
32349ION     NA48823   9.022   9.685  11.896 -0.2142 -0.1319  0.1681
32350ION     NA48824  11.656  17.073  10.347 -0.0018 -0.0362 -0.2820
32351ION     NA48825  13.527   6.604  10.114 -0.2028 -0.1460 -0.4243
32352ION     NA48826  14.779  16.846  10.758  0.3291  0.2265  0.1766
32353ION     NA48827  11.475  14.454  14.704  0.4079  0.4208 -0.3513
32354ION     NA48828  13.269   8.814   5.890  0.1141  0.0333  0.1813
32355ION     NA48829  14.893   8.220   2.197 -0.0870  0.1367 -0.0307
32356ION     NA48830  17.853  14.549   4.676 -0.0260 -0.0907 -0.1690
32357ION     NA48831   5.435  16.220   5.332  0.2368  0.2664 -0.0991
32358ION     NA48832   1.898   2.660   9.995  0.0629  0.0069  0.2618
32359ION     NA48833   0.880   3.499  13.541  0.1181  0.1227  0.0147
32360ION     NA48834  17.842  12.660   5.097 -0.1181 -0.0812 -0.0696
32361ION     NA48835  10.953  12.985  13.060  0.1486  0.1541 -0.0821
32362ION     NA48836   7.280  11.651   5.804  0.0434 -0.1471 -0.2458
32363ION     NA48837  14.023   4.051   1.117 -0.1261  0.0819  0.0825
32364ION     NA48838   1.197  16.274   9.833 -0.0948 -0.4195 -0.1144
32365ION     NA48839   9.754  18.558  10.200 -0.0998  0.1147 -0.0461
32366ION     NA48840  12.400   6.402   5.512  0.0625 -0.2852  0.1874
32367ION     NA48841   6.134  18.690   5.329  0.0802  0.2613  0.0511
32368ION     NA48842   1.300  14.229   9.793  0.0117 -0.1720  0.1996
32369ION     NA48843   4.217   8.576   3.277 -0.2197 -0.0430 -0.0529
32370ION     NA48844   6.903  13.938  10.197 -0.1390  0.0878  0.2748
32371ION     NA48845  15.480  11.222  15.127 -0.0046  0.0315  0.0600
32372ION     NA48846  10.224   8.634   1.800  0.0374 -0.3043 -0.2169
32373ION     NA48847  18.044   0.726   3.397 -0.1029  0.1142  0.0446
32374ION     NA48848  13.837   4.322   5.106  0.2092  0.0486 -0.0656
32375ION     NA48849   6.295   3.958   0.346 -0.0106 -0.0433  0.1344
32376ION     NA48850   4.587   7.475   1.376 -0.1181 -0.1242 -0.0260
32377ION     NA48851   8.205   9.890   5.523 -0.1791  0.0835  0.0827
32378ION     NA48852   8.656  15.197  10.899 -0.0126  0.3690 -0.0885
32379ION     NA48853  11.790   1.275   0.161 -0.0325 -0.2076  0.0987
32380ION     NA48854   2.437   8.871   3.938  0.0497  0.0769 -0.0775
32381ION     NA48855   1.026   6.377   5.423  0.1380 -0.0269 -0.1765
32382ION     NA48856   4.168   4.266  15.177  0.0105  0.2431 -0.1325
32383ION     NA48857   7.528  13.983   5.693 -0.2379 -0.0235 -0.4450
32384ION     NA48858  12.641  12.068  10.612 -0.0283 -0.2849 -0.1222
32385ION     NA48859   8.103   5.413   9.623  0.1581 -0.0974 -0.1265
32386ION     NA48860  16.515   1.732  10.261 -0.1117 -0.0783 -0.1741
32387ION     NA48861   0.145  12.679   3.116 -0.0025  0.0741 -0.2932
32388ION     NA48862  12.755   8.930   2.828  0.1455 -0.0834  0.1403
32389ION     NA48863   4.018  13.036  10.176  0.0237 -0.1054  0.2424
32390ION     NA48864  15.879   2.165  14.341  0.0353  0.1647 -0.0260
32391ION     NA48865   8.629   1.393  14.961 -0.1777  0.1896  0.2061
32392ION     NA48866  18.614  13.861   9.907 -0.1676 -0.2906 -0.0790
32393ION     NA48867   6.292  13.888   3.669 -0.0832  0.0540 -0.3908
32394ION     NA48868   2.933  13.561   9.652  0.3342  0.0166 -0.3785
32395ION     NA48869  12.830   7.992   1.108  0.2076 -0.1981  0.0168
32396ION     NA48870  18.581  17.207  14.351  0.2678 -0.3587 -0.0811
32397ION     NA48871   3.291   7.986  15.209 -0.1739 -0.2195 -0.1083
32398ION     NA48872   0.641   7.197   5.120 -0.1727  0.1464  0.0318
32399ION     NA48873   2.762  15.481   3.370 -0.0248  0.0874  0.1774
32400ION     NA48874   2.058   6.088   5.291  0.1089 -0.0969 -0.2308
32401ION     NA48875   8.630   3.341   5.378  0.1109 -0.0311 -0.1215
32402ION     NA48876  10.708   8.697  13.068  0.3136  0.0275 -0.1909
32403ION     NA48877   7.991   5.844   1.604  0.1322  0.0731  0.0592
32404ION     NA48878  17.382   2.087  10.394  0.0734  0.0509 -0.2446
32405ION     NA48879  15.436  13.549  10.515 -0.1935  0.0235  0.1764
32406ION     NA48880   8.480  10.542   2.081 -0.1155  0.1516 -0.3698
32407ION     NA48881   4.888  12.584   9.730 -0.3363  0.2851 -0.1369
32408ION     NA48882  18.582  16.335  10.270  0.0460  0.0457 -0.3711
32409ION     NA48883   2.739  15.592   9.610 -0.0103 -0.0919  0.1888
32410ION     NA48884  17.485  12.180  10.552  0.0061 -0.0935 -0.2728
32411ION     NA48885   2.820  16.751   4.323  0.0991 -0.0380  0.4648
32412ION     NA48886  16.774  12.766  10.314  0.1442 -0.0364 -0.2468
32413ION     NA48887  14.587   6.772   5.784  0.2428 -0.0588  0.4475
32414ION     NA48888   3.633  12.399   0.684 -0.2348 -0.0794 -0.1771
32415ION     NA48889  13.918   3.857  14.686  0.0158 -0.0753 -0.0604
32416ION     NA48890  18.181   9.956   5.601  0.0307  0.1017 -0.1271
32417ION     NA48891   8.643  11.834   3.263  0.1213 -0.1209 -0.1351
32418ION     NA48892   4.352   2.311   4.875 -0.3795 -0.1760 -0.0367
32419ION     NA48893  11.699   2.507  14.629 -0.0480  0.1636 -0.1050
32420ION     NA48894   5.183  14.456   5.599 -0.3475 -0.1275  0.1811
32421ION     NA48895  14.607   3.865  11.150  0.1275 -0.1469 -0.0452
32422ION     NA48896  13.215  18.714   9.951  0.0990 -0.2984 -0.0534
32423ION     NA48897   9.477  14.315   3.897  0.0457 -0.0777  0.0828
32424ION     NA48898   0.195  13.291  11.846  0.2476  0.0539  0.0946
32425ION     NA48899  17.256   2.638   4.184  0.1490 -0.1132 -0.2448
32426ION     NA48900  12.967   5.150   5.839  0.2643  0.2738 -0.1437
32427ION     NA48901   1.509  12.468  10.010 -0.1985 -0.0650  0.1608
32428ION     NA48902   6.716   4.372   3.378 -0.3027  0.3257 -0.0383
32429ION     NA48903  14.517  10.262   1.772 -0.1850 -0.2151 -0.2749
32430ION     NA48904   4.013  11.934  15.260 -0.0610  0.2607  0.1557
32431ION     NA48905   4.495   6.805  11.780  0.1341 -0.4784  0.2563
32432ION     NA48906   8.617  10.505  10.385  0.0682  0.0615  0.1053
32433ION     NA48907   3.238   6.779   2.006  0.0811  0.1982  0.2654
32434ION     NA48908  14.843   1.347  14.631 -0.0820 -0.2406  0.0367
32435ION     NA48909   9.670  17.545  10.392 -0.1784  0.1220 -0.1303
32436ION     NA48910  14.898  13.501   1.769 -0.3248 -0.0661  0.2199
32437ION     NA48911  10.013  13.152   4.518 -0.1953  0.2903 -0.1106
32438ION     NA48912  12.149   6.056  12.949 -0.0663  0.0306  0.2656
32439ION     NA48913  13.775  12.370   5.928 -0.1151  0.0902  0.0151
32440ION     NA48914   6.244   9.346   4.942 -0.2762  0.2602  0.0365
32441ION     NA48915   4.879  14.915  10.130  0.0574 -0.0136 -0.0529
32442ION     NA48916   3.067   6.200  15.137  0.1990  0.1306  0.1220
32443ION     NA48917  11.168  12.815  11.132 -0.1156  0.0334 -0.0673
32444ION     NA48918  12.177   4.608   5.733 -0.1762 -0.3541  0.0754
32445ION     NA48919  13.029  16.450   9.963  0.1116  0.1340  0.1045
32446ION     NA48920   5.629  15.774  12.564  0.1472 -0.2991 -0.2115
32447ION     NA48921  11.238   4.038   0.544 -0.0733 -0.1966 -0.1367
32448ION     NA48922   6.475  18.136  11.200 -0.0189  0.2721 -0.0890
32449ION     NA48923  14.299   8.974  13.670  0.0300 -0.0790  0.1166
32450ION     NA48924   1.514  16.668   4.477  0.3546 -0.5467 -0.1980
32451ION     NA48925   2.032   7.215  13.664 -0.0436  0.1326 -0.1148
32452ION     NA48926  15.290  16.085  10.463 -0.0186 -0.0007  0.0765
32453ION     NA48927  14.729  17.122   0.095 -0.0016  0.1283  0.1469
32454ION     NA48928  16.785  17.712  10.150  0.1113  0.0077 -0.0494
32455ION     NA48929  18.238   3.896  11.646 -0.1693 -0.1230 -0.0086
32456ION     NA48930   4.955  11.949   0.245 -0.1218 -0.0922 -0.2261
32457ION     NA48931   8.878  10.007  14.358 -0.3528  0.0071  0.0820
32458ION     NA48932   1.959   1.018   5.394  0.4147  0.4593  0.2254
32459ION     NA48933  14.357  16.414  10.371 -0.2613  0.0174 -0.0572
32460ION     NA48934   0.426  15.955   5.242 -0.0032  0.1140  0.1930
32461ION     NA48935  12.686  16.601   6.092  0.0014  0.1332  0.3286
32462ION     NA48936  11.372   0.610  10.122 -0.3188 -0.1249 -0.0544
32463ION     NA48937  10.769   8.233   0.351  0.2765  0.4180 -0.1949
32464ION     NA48938   0.347  17.316   3.435 -0.0130 -0.2800 -0.3718
32465ION     NA48939   9.171  11.648  11.925 -0.1863 -0.2946  0.0012
32466ION     NA48940  16.204  11.635  10.625  0.0057 -0.0917  0.0681
32467ION     NA48941   0.361  18.649   2.734 -0.0589 -0.1268  0.2173
32468ION     NA48942   7.760  10.767   2.698 -0.1083 -0.1160  0.2403
32469ION     NA48943  10.435   7.059  10.070 -0.0539 -0.4123  0.1562
32470ION     NA48944   5.477   1.971   9.519  0.0198 -0.0875  0.1881
32471ION     NA48945   3.315  13.469  10.515  0.0151  0.1278 -0.0377
32472ION     NA48946  16.468   5.091   4.772  0.1085 -0.3332  0.0563
32473ION     NA48947   3.259  13.863   1.623 -0.0558 -0.0186  0.1287
32474ION     NA48948   0.115   7.601   5.174  0.1569  0.1806 -0.0419
32475ION     NA48949  13.926  12.989   0.279  0.0283  0.0709 -0.2176
32476ION     NA48950  11.812  17.881  10.253  0.1387  0.2962  0.1205
32477ION     NA48951  18.389   7.448   9.987  0.1551  0.0883  0.2299
32478ION     NA48952  17.637  10.679   4.343 -0.0615  0.1208 -0.1844
32479ION     NA48953   5.895  14.084   5.800 -0.0078  0.0755 -0.1877
32480ION     NA48954  14.421  12.035  10.696  0.1090 -0.0663  0.0669
32481ION     NA48955   0.302  11.409   2.534 -0.1117 -0.3041 -0.0748
32482ION     NA48956   4.941   1.645  13.393  0.0774 -0.1882 -0.1430
32483ION     NA48957  11.496   7.339  13.667  0.5439  0.0392 -0.2881
32484ION     NA48958  14.779   8.826   5.712  0.2779 -0.1631 -0.2597
32485ION     NA48959  11.839   4.740   0.788 -0.1322 -0.0406 -0.2645
32486ION     NA48960   5.325   8.229   5.158 -0.0339  0.0127 -0.0038
32487ION     NA48961  18.098  10.095   1.077  0.2166  0.0800 -0.2566
32488ION     NA48962  16.027   4.264  14.786  0.1582 -0.1417 -0.0889
32489ION     NA48963   4.136   7.968   4.418  0.1888  0.1558  0.2260
32490ION     NA48964   7.306  11.172  12.869  0.1001  0.1745 -0.4498
32491ION     NA48965   3.407  14.121   4.503  0.1649 -0.0302 -0.0268
32492ION     NA48966   3.308  16.849   5.259  0.0823  0.2958  0.1660
32493ION     NA48967  12.112   2.412   3.104 -0.3921 -0.1867 -0.0913
32494ION     NA48968  17.873   2.653  12.438  0.2881 -0.2950 -0.2123
32495ION     NA48969  13.821   7.145  13.538  0.2254  0.1476 -0.2160
32496ION     NA48970  13.252  16.272   2.351 -0.4919 -0.0527 -0.0807
32497ION     NA48971   5.735  17.743  13.276  0.2043 -0.0579  0.2053
32498ION     NA48972   5.261  15.232   5.332 -0.0387  0.2794 -0.0081
32499ION     NA48973  17.416  17.588  12.513  0.1333  0.0466  0.0128
32500ION     NA48974   5.714   8.522   9.662 -0.3253  0.0003  0.1022
32501ION     NA48975  16.082   2.613   0.276 -0.2288  0.1534 -0.0755
32502ION     NA48976   4.698  14.927   5.758  0.0025 -0.0110  0.0456
32503ION     NA48977   1.801   0.493   4.906  0.3817  0.0872 -0.0953
32504ION     NA48978   8.695   6.001   5.592  0.0275 -0.3227 -0.0988
32505ION     NA48979  10.591  10.208  10.234  0.3309  0.2411  0.0198
32506ION     NA48980  14.810  13.867   5.768 -0.0511 -0.1486  0.1072
32507ION     NA48981   2.974   1.358   5.509 -0.1921  0.2591 -0.3053
32508ION     NA48982   3.581   5.723   9.935 -0.3197  0.0418 -0.0714
32509ION     NA48983   2.912  15.829   0.070  0.1389  0.3988  0.1585
32510ION     NA48984   2.999  16.592  13.241  0.0962  0.1888  0.1211
32511ION     NA48985  18.345  15.252   4.838 -0.0969 -0.2366  0.1592
32512ION     NA48986  13.081   5.011  14.077 -0.0274  0.0916 -0.0354
32513ION     NA48987   6.977  16.054   5.904  0.3206 -0.4572 -0.1055
32514ION     NA48988   7.920  18.711   3.451 -0.1891 -0.0283 -0.1043
32515ION     NA48989   1.590  14.451  13.437 -0.0197  0.0079  0.0990
32516ION     NA48990  17.519  14.736   1.349  0.0250  0.2098 -0.0414
32517ION     NA48991  12.050   5.278  10.090 -0.3195 -0.0990  0.0272
32518ION     NA48992  12.729  11.977  14.433 -0.2937  0.0565 -0.0721
32519ION     NA48993  10.238  17.797   4.006 -0.2206 -0.0672 -0.1129
32520ION     NA48994   4.143  18.215   1.761  0.0581 -0.2770 -0.1504
32521ION     NA48995   5.715  14.367  10.036 -0.0498 -0.2185  0.1053
32522ION     NA48996   9.125  15.175  15.460  0.1997 -0.0778 -0.1426
32523ION     NA48997  17.278  13.988   5.752  0.3205 -0.4970 -0.1234
32524ION     NA48998  10.155   6.398   5.707 -0.0791 -0.0718  0.0937
32525ION     NA48999   6.147   8.737   9.662 -0.0269 -0.1417  0.2178
32526ION     NA49000  18.071   2.806  13.314 -0.1317  0.1283 -0.3399
32527ION     NA49001   1.396  10.402   5.512 -0.1559  0.1567 -0.1600
32528ION     NA49002   2.654  10.494  11.589  0.0658 -0.2701  0.2832
32529ION     NA49003  16.296  14.966  13.929  0.5099  0.3024 -0.4142
32530ION     NA49004  12.183  15.405  14.117  0.0089  0.0508  0.2468
32531ION     NA49005  17.598  10.961  10.334 -0.0266 -0.0627 -0.3256
32532ION     NA49006   3.608   8.126  11.292  0.0538  0.0333 -0.1939
32533ION     NA49007  10.065  10.610   5.655  0.2104 -0.1562  0.0627
32534ION     NA49008   3.976  17.274  13.880 -0.1708  0.0190  0.0114
32535ION     NA49009  12.880   5.019  10.139  0.1507  0.3001  0.0993
32536ION     NA49010   8.605  13.733  10.246 -0.0854  0.3670 -0.1046
32537ION     NA49011   4.800   7.106  13.183  0.1913 -0.1393 -0.1054
32538ION     NA49012  16.117  14.180  13.274 -0.0399  0.0061 -0.0310
32539ION     NA49013  11.643  10.752  10.726  0.0965 -0.0808  0.2789
32540ION     NA49014  18.593   4.830  15.040 -0.2019 -0.0191 -0.0158
32541ION     NA49015   5.640   6.576   5.527 -0.0281 -0.1274  0.0557
32542ION     NA49016  17.427  17.306   5.767  0.0267  0.0042 -0.0215
32543ION     NA49017   8.314   1.849   4.298  0.0295  0.1504  0.1861
32544ION     NA49018   1.462   1.809   5.302  0.2186 -0.1092 -0.0874
32545ION     NA49019   2.468  18.606   9.739 -0.0303 -0.0906 -0.0275
32546ION     NA49020  15.864  16.052  15.355 -0.1129 -0.0469  0.1141
32547ION     NA49021   7.995   7.935  11.650  0.0929 -0.0131 -0.0379
32548ION     NA49022  13.415   4.188  10.405  0.1810 -0.1798 -0.1285
32549ION     NA49023   5.806  11.753   5.533  0.0861 -0.0014 -0.2253
32550ION     NA49024  15.383   3.300  13.142 -0.2449 -0.0369  0.2973
32551ION     NA49025  11.406   2.543   5.580  0.1121 -0.4259  0.0733
32552ION     NA49026  18.334  15.292  13.880  0.0267  0.0527 -0.0218
32553ION     NA49027   0.558  10.296   9.967 -0.0732 -0.0244  0.0159
32554ION     NA49028  10.058  18.702  14.985 -0.1277 -0.0913 -0.1668
32555ION     NA49029   1.580   6.373  13.452 -0.1546  0.1863  0.2237
32556ION     NA49030   0.878  12.210   5.328  0.2816 -0.0253  0.1071
32557ION     NA49031  13.984   5.228   0.039  0.3549 -0.0644 -0.0467
32558ION     NA49032  17.845   1.255   2.190 -0.0516  0.2212 -0.0333
32559ION     NA49033  14.383  17.042   6.007 -0.0541 -0.3241  0.0922
32560ION     NA49034  15.813   3.777  12.375 -0.1017  0.5029 -0.3674
32561ION     NA49035   7.509   0.789   9.683  0.2073 -0.0812 -0.0483
32562ION     NA49036   8.394   2.109   2.354 -0.2394  0.1192  0.4038
32563ION     NA49037   9.476   5.125   1.755 -0.1349  0.1466 -0.2441
32564ION     NA49038  13.640  13.192  10.821  0.2850  0.3838 -0.0581
32565ION     NA49039  10.412   3.982   2.553 -0.4181 -0.2084  0.1484
32566ION     NA49040   0.305   8.439   0.486  0.0351  0.0548 -0.0473
32567ION     NA49041  12.887  11.010   3.931 -0.0760 -0.1127 -0.1608
32568ION     NA49042   7.993   8.693   3.167  0.1602  0.0977 -0.0399
32569ION     NA49043   8.175  12.271   5.686 -0.0339  0.2155 -0.0808
32570ION     NA49044   3.788  15.748   2.879  0.1856  0.0419 -0.0844
32571ION     NA49045  10.385   0.489  10.337  0.2350  0.0310 -0.0050
32572ION     NA49046  17.032   4.514  10.343  0.2926 -0.0871 -0.2404
32573ION     NA49047  14.215  16.719  13.381  0.1532 -0.0577 -0.0484
32574ION     NA49048  13.353  10.850   2.104 -0.2025  0.2751  0.3109
32575ION     NA49049  12.153   9.952   2.608 -0.2385  0.0993  0.0893
32576ION     NA49050   2.286   4.061   9.662 -0.0502 -0.2289 -0.2466
32577ION     NA49051   2.761   0.698   4.160 -0.2202 -0.1837  0.1477
32578ION     NA49052  13.176   7.502   9.938 -0.0166 -0.1844  0.0342
32579ION     NA49053  11.855   7.714   5.594  0.0084 -0.3137  0.1370
32580ION     NA49054  14.990  17.327   2.708 -0.2747  0.0921 -0.1654
32581ION     NA49055  14.064   0.055  10.546  0.0620  0.0989 -0.3781
32582ION     NA49056   6.947  13.677   2.828 -0.1161 -0.2971  0.2181
32583ION     NA49057   3.897   9.406   4.291  0.0593  0.3716 -0.3017
32584ION     NA49058   1.440   1.520   0.957 -0.0037 -0.1332  0.0871
32585ION     NA49059   5.766   7.117   9.802  0.0366 -0.2474 -0.2702
32586ION     NA49060   8.025  11.215   5.568  0.4043 -0.0374  0.0707
32587ION     NA49061   0.794   7.508  14.716 -0.1554 -0.0611 -0.3954
32588ION     NA49062   1.403  10.000   9.679  0.0226 -0.0742  0.3223
32589ION     NA49063   9.693   1.751   1.892 -0.1189  0.0016  0.0800
32590ION     NA49064  16.793  15.223   5.844  0.3851 -0.0103  0.2648
32591ION     NA49065  13.716  13.189   3.041  0.2531  0.0090 -0.0383
32592ION     NA49066   0.872   0.958   9.709  0.0838  0.3203  0.0287
32593ION     NA49067   8.490   2.074   5.157  0.2579  0.1107  0.0254
32594ION     NA49068  11.576  15.514  10.320  0.2304 -0.3554  0.0001
32595ION     NA49069   0.179  10.363   5.562  0.1803 -0.0032  0.0815
32596ION     NA49070   6.433   9.259   1.181  0.5423 -0.0228  0.2903
32597ION     NA49071  14.596  12.799  10.546 -0.1927 -0.1657 -0.2637
32598ION     NA49072   5.521   4.186   9.340  0.3074  0.2008  0.1695
32599ION     NA49073   8.489   8.383   6.042 -0.3765 -0.1976  0.0822
32600ION     NA49074  12.775  13.417  10.518 -0.1127 -0.1556 -0.1616
32601ION     NA49075  15.447  17.022   6.071 -0.0937 -0.0355  0.3116
32602ION     NA49076  13.097   1.384   3.572  0.1822 -0.0155  0.1014
32603ION     NA49077   9.873  18.084  14.946  0.1493  0.1675  0.2473
32604ION     NA49078  11.608  15.088   0.822 -0.1846  0.0703 -0.0946
32605ION     NA49079  15.159  15.729   5.856  0.0009 -0.0589  0.0110
32606ION     NA49080   9.274   2.962   0.110 -0.0312  0.1815 -0.0137
32607ION     NA49081  15.519  15.318   0.618  0.2699 -0.0538  0.1282
32608ION     NA49082   6.739  18.112   5.813  0.0999  0.0055 -0.2207
32609ION     NA49083   0.100   2.551   0.104 -0.2614 -0.2503 -0.0763
32610ION     NA49084  15.793   1.284   5.599 -0.2801 -0.1590  0.1834
32611ION     NA49085   1.762  11.461  13.206 -0.0374 -0.2715  0.2067
32612ION     NA49086   9.750   8.071   1.467 -0.0307  0.0094 -0.0112
32613ION     NA49087  16.133   8.886  10.079 -0.0887 -0.2710  0.1997
32614ION     NA49088  14.259  14.352  11.894  0.1866  0.2015 -0.0077
32615ION     NA49089   4.126   8.512  12.962 -0.0804  0.0759 -0.1961
32616ION     NA49090  10.030  17.130  10.304 -0.1384  0.2450 -0.0451
32617ION     NA49091  16.209   9.172   2.243 -0.0807 -0.1930 -0.2322
32618ION     NA49092  11.571  10.515   0.126  0.1729  0.1454  0.1977
32619ION     NA49093   7.017  16.658  15.036  0.1896  0.0109  0.0948
32620ION     NA49094   3.471   9.764   9.660  0.1198  0.2492  0.0640
32621ION     NA49095  14.571  16.561   6.120 -0.3876 -0.0837  0.2380
32622ION     NA49096  15.624  16.406   1.527  0.0036  0.0644 -0.0653
32623ION     NA49097  16.191   0.438   5.315  0.1700  0.1301 -0.1620
32624ION     NA49098  12.782   2.619  10.698 -0.1570 -0.0532  0.0994
32625ION     NA49099   7.845   2.020   9.653  0.3435  0.1592 -0.0271
32626ION     NA49100   3.332   8.151  12.611 -0.2581 -0.7449 -0.0016
32627ION     NA49101  12.756   3.133   0.565 -0.1992  0.1201 -0.4983
32628ION     NA49102   0.912  17.891  10.699  0.2370  0.1792  0.0889
32629ION     NA49103   9.889   2.785  12.574 -0.0165 -0.0447  0.2457
32630ION     NA49104   1.259   5.366  13.113  0.0238 -0.0376 -0.2037
32631ION     NA49105  10.699   2.778  10.286  0.0444 -0.2066 -0.2232
32632ION     NA49106   5.579  13.967   0.833  0.0142 -0.1447  0.3829
32633ION     NA49107   7.796  16.526   4.713  0.0386  0.1546  0.0752
32634ION     NA49108   8.665  12.754  14.167  0.2549  0.0715 -0.1575
32635ION     NA49109   1.170  15.862  14.651 -0.2838  0.1268  0.1845
32636ION     NA49110   9.209   4.909   2.962  0.0104 -0.3373  0.1851
32637ION     NA49111   8.664   6.191  13.838  0.1764  0.2123 -0.0946
32638ION     NA49112  12.810   5.656   0.612  0.4248  0.1728  0.0388
32639ION     NA49113   0.053  14.995  14.484 -0.0207  0.0334  0.1259
32640ION     NA49114  12.703   2.956   6.013  0.0926 -0.4102 -0.0065
32641ION     NA49115   3.367  13.441   3.917 -0.0198 -0.0960  0.0913
32642ION     NA49116   9.515  11.176   5.410  0.0602  0.2078 -0.1003
32643ION     NA49117   4.602   5.466  14.162 -0.1660  0.0037  0.4020
32644ION     NA49118  18.544  12.083   5.276  0.2540  0.1130 -0.1974
32645ION     NA49119   3.786   1.062   5.584 -0.1325  0.1478  0.2691
32646ION     NA49120   1.790  14.423   0.200  0.0542 -0.0872  0.0880
32647ION     NA49121   1.923  14.926   4.665  0.0359 -0.0824  0.2501
32648ION     NA49122  13.916   7.787  13.152 -0.2684 -0.0242 -0.1912
32649ION     NA49123   7.122   8.706   9.765  0.3844  0.6595 -0.0817
32650ION     NA49124  13.930  15.540  13.340  0.1185  0.0127  0.0545
32651ION     NA49125  10.867   9.265  14.485  0.0071 -0.0401 -0.0752
32652ION     NA49126   8.258  16.864  13.623  0.2060  0.1988  0.1954
32653ION     NA49127   8.032  14.917  14.825  0.0127  0.1498  0.1766
32654ION     NA49128   7.787   6.265   5.349  0.0617  0.0365 -0.2982
32655ION     NA49129  14.708  12.029   5.719 -0.2097  0.2050  0.2232
32656ION     NA49130   3.611  17.745   3.232  0.1179  0.0914  0.1522
32657ION     NA49131   7.412   7.386   0.575 -0.2226 -0.1736 -0.2381
32658ION     NA49132   9.513   6.831   5.296  0.0614 -0.0689  0.3809
32659ION     NA49133   0.256  14.555  12.840  0.0012  0.1239  0.0709
32660ION     NA49134   0.272   5.955  14.014 -0.2684 -0.0509 -0.0803
32661ION     NA49135  16.767  17.568   5.118 -0.2997 -0.0181 -0.1031
32662ION     NA49136  15.514  17.359  11.000  0.2787  0.0286 -0.1316
32663ION     NA49137   2.255  16.218   2.409  0.0630  0.2281  0.0321
32664ION     NA49138   3.415   9.935  14.090 -0.0542  0.2679 -0.1478
32665ION     NA49139  11.172  15.073   3.731 -0.2029 -0.2639 -0.0891
32666ION     NA49140  18.444  14.736  10.178 -0.0354  0.2073  0.3183
32667ION     NA49141  15.672   4.244   5.401 -0.0309  0.1780  0.0392
32668ION     NA49142  15.137   1.515   3.419  0.0596 -0.1390  0.0813
32669ION     NA49143  17.780  18.750   1.003  0.5247  0.5909 -0.1595
32670ION     NA49144   6.036   5.152  14.480 -0.1198 -0.0239 -0.0761
32671ION     NA49145  10.181   2.622   5.411 -0.2130  0.1875 -0.1904
32672ION     NA49146  15.419   9.636  13.035 -0.2239 -0.1046 -0.1123
32673ION     NA49147   7.247   8.902  14.638  0.3393  0.1920  0.0224
32674ION     NA49148  12.392  14.162   4.721  0.0755 -0.0181  0.0864
32675ION     NA49149  16.201  16.818  15.169 -0.0631  0.0957 -0.2190
32676ION     NA49150   4.830   0.598   1.698 -0.0412 -0.0222 -0.1219
32677ION     NA49151  10.652  11.969   5.772 -0.0713 -0.1505  0.2625
32678ION     NA49152   1.734   8.311   5.382  0.0681  0.1560 -0.0452
32679ION     NA49153  16.350   0.269   4.538  0.1209 -0.0413 -0.0496
32680ION     NA49154  15.867   7.648   3.456  0.2756 -0.2269 -0.0117
32681ION     NA49155  18.738   8.941   9.827  0.1808 -0.3279 -0.0569
32682ION     NA49156   0.562   5.064  14.140 -0.0907  0.1431  0.1823
32683ION     NA49157   1.438   8.478   9.917 -0.0467 -0.2820 -0.0302
32684ION     NA49158   4.635   6.780   1.997 -0.2246 -0.2646  0.0354
32685ION     NA49159   9.815  16.833   5.541 -0.0909  0.1848 -0.2299
32686ION     NA49160  14.767   8.123  11.393  0.0265 -0.0127 -0.3194
32687ION     NA49161  18.623  11.880   3.372 -0.1521  0.0061 -0.1249
32688ION     NA49162   4.442   1.882   0.595  0.2942  0.1251  0.0355
32689ION     NA49163   1.950  16.264   9.472  0.1300  0.1466  0.0846
32690ION     NA49164   9.464  17.048  12.389 -0.0844  0.0497 -0.1692
32691ION     NA49165  14.677   8.498   3.817 -0.1911  0.1693  0.1301
32692ION     NA49166   3.871  14.937   5.329  0.0692  0.1377 -0.0829
32693ION     NA49167   9.632   0.386   4.433  0.1400 -0.0404  0.0471
32694ION     NA49168   7.344  13.033  14.894  0.1679 -0.0518  0.1704
32695ION     NA49169   6.305  12.676   9.789 -0.1390 -0.3334  0.1134
32696ION     NA49170   9.686   9.066  14.131 -0.1468  0.1179  0.0823
32697ION     NA49171  10.384  12.715  10.594  0.0788  0.0740 -0.0909
32698ION     NA49172  16.413   6.869  10.513 -0.1328  0.3404  0.2155
32699ION     NA49173  17.660   4.969  10.021 -0.1013  0.3895  0.0900
32700ION     NA49174  10.252   0.363   2.196 -0.2080 -0.0451  0.3624
32701ION     NA49175  15.305   3.811   0.790  0.0317 -0.4841  0.0665
32702ION     NA49176  12.845  17.365   3.138  0.2742  0.1222  0.1359
32703ION     NA49177  15.027   0.119  13.335 -0.2100  0.1591 -0.1247
32704ION     NA49178  11.080   4.956  10.097  0.1852 -0.2374 -0.0534
32705ION     NA49179   9.401   4.963  10.132 -0.1369  0.0199 -0.3515
32706ION     NA49180   2.277   1.618  10.021 -0.2455  0.0415  0.0625
32707ION     NA49181  14.144  15.437  10.309  0.1997  0.1307 -0.1083
32708ION     NA49182   7.861   3.069  12.916  0.1223  0.0578 -0.1849
32709ION     NA49183  14.076  11.496   5.485  0.2564  0.0446 -0.1076
32710ION     NA49184  12.390   8.635   1.543  0.0455 -0.1438 -0.2675
32711ION     NA49185  16.064  10.392   3.567 -0.0142 -0.1386 -0.2167
32712ION     NA49186   1.137   2.544   2.602  0.2868  0.4169  0.1275
32713ION     NA49187   7.322  14.699  10.389 -0.1690  0.2459 -0.1926
32714ION     NA49188   7.056   3.461   5.196 -0.0027 -0.0550  0.0370
32715ION     NA49189  16.115   7.760   4.370 -0.5931 -0.3214  0.1990
32716ION     NA49190   9.579   8.502   4.256 -0.2204  0.0536  0.1151
32717ION     NA49191   3.956  13.980   3.048 -0.0051  0.0552 -0.3580
32718ION     NA49192   0.731   9.202   9.794 -0.2524 -0.2606 -0.0482
32719ION     NA49193  15.711  18.062   1.261 -0.0756 -0.0849 -0.2047
32720ION     NA49194  13.645   0.380   0.654 -0.0396 -0.1588 -0.0239
32721ION     NA49195   6.674   7.754   5.596  0.0208 -0.2907  0.0505
32722ION     NA49196   4.604  14.238   3.512 -0.0591  0.2298 -0.0209
32723ION     NA49197   2.082   3.289   0.781  0.0966 -0.4846 -0.1518
32724ION     NA49198   5.114  17.160   3.195  0.0301 -0.1548 -0.1845
32725ION     NA49199  18.184  14.589   5.496  0.0381  0.3055  0.0811
32726ION     NA49200  15.281  18.021  13.672 -0.0108 -0.1067 -0.0202
32727ION     NA49201   0.843   3.708   3.333  0.0029 -0.1139  0.0834
32728ION     NA49202  13.680  12.061  12.275  0.1479  0.1351 -0.0714
32729ION     NA49203   4.708  10.652   0.869 -0.0953  0.0888  0.1968
32730ION     NA49204   7.992   7.925   9.795  0.1256 -0.0699 -0.1910
32731ION     NA49205  16.068  14.027   2.860  0.0171  0.2025 -0.3457
32732ION     NA49206   4.069   2.466  11.110 -0.1932 -0.1964  0.0655
32733ION     NA49207  17.908   1.454  15.143 -0.2255  0.2989 -0.4694
32734ION     NA49208  11.081   8.961   5.827 -0.0100 -0.0730  0.0885
32735ION     NA49209   3.220   7.634   9.420  0.1054 -0.1118 -0.1039
32736ION     NA49210  12.648  14.233   3.153  0.4692 -0.0650 -0.4415
32737ION     NA49211   7.518  15.386   6.024  0.1397 -0.0023 -0.0760
32738ION     NA49212  12.057  18.348   5.478  0.3972 -0.0336 -0.6299
32739ION     NA49213  14.806  18.567  10.560 -0.2182 -0.0252 -0.1052
32740ION     NA49214   6.077   7.790   5.541  0.1222 -0.1379  0.1804
32741ION     NA49215  15.516  14.644   1.427  0.2951  0.0037 -0.2049
32742ION     NA49216   4.120  16.996   2.782 -0.3985  0.0202  0.0168
32743ION     NA49217  11.518  10.559  10.270  0.1228 -0.0329  0.3766
32744ION     NA49218   9.126  13.175  10.706 -0.1102 -0.2360  0.1385
32745ION     NA49219   1.581  10.726   5.198 -0.0403  0.2454  0.0244
32746ION     NA49220  16.183   9.830   0.518 -0.1643 -0.0699 -0.2232
32747ION     NA49221  16.913   5.459  10.306  0.0367 -0.0652  0.1029
32748ION     NA49222  17.522  18.062   2.655  0.2737  0.2984 -0.1386
32749ION     NA49223  11.952   3.364   0.696 -0.0686 -0.1145 -0.0799
32750ION     NA49224  10.082   2.793  14.618 -0.1417 -0.0899  0.1235
32751ION     NA49225  13.744  14.414   2.269 -0.3058 -0.0681 -0.0409
32752ION     NA49226  16.176  16.628   4.619 -0.3631  0.1650 -0.0393
32753ION     NA49227  14.981   9.094   2.642  0.1293  0.0615 -0.0199
32754ION     NA49228   1.265   2.054   9.670  0.3267  0.2126 -0.0150
32755ION     NA49229  17.500   6.915   5.690 -0.3247 -0.1807  0.0620
32756ION     NA49230   3.585  12.222  13.331  0.1306  0.0447 -0.0528
32757ION     NA49231   8.472  16.861   5.824 -0.2678  0.2165  0.0036
32758ION     NA49232   8.257   7.427   2.386 -0.0182 -0.1967 -0.0016
32759ION     NA49233  17.244  13.458   0.223  0.2242  0.1718 -0.1998
32760ION     NA49234  17.307  10.203   5.798  0.0344  0.0786 -0.0594
32761ION     NA49235   5.803   2.440   0.606  0.0234 -0.0971 -0.0059
32762ION     NA49236  18.228  10.948   5.474  0.0176  0.2269  0.2699
32763ION     NA49237  10.857  11.354  13.069 -0.1884  0.0917  0.1723
32764ION     NA49238  16.366  11.516  13.322 -0.0210 -0.0828  0.2894
32765ION     NA49239   9.613   5.998   0.468  0.0718  0.0169 -0.1974
32766ION     NA49240   7.079   8.565   4.067 -0.1824  0.2491 -0.1976
32767ION     NA49241   0.131  13.639   5.268 -0.0342  0.3239  0.0182
32768ION     NA49242  13.745   0.443   5.908 -0.1855 -0.3130  0.0709
32769ION     NA49243  12.970   0.596   6.033  0.3629  0.0775 -0.4412
32770ION     NA49244   7.630   2.310  11.379 -0.0187 -0.1911 -0.2590
32771ION     NA49245   0.187   4.492  13.380  0.2100 -0.2571  0.1380
32772ION     NA49246  17.980  17.056  13.524  0.2627 -0.4779 -0.0030
32773ION     NA49247   1.676  17.072   9.851 -0.2373  0.0974 -0.0753
32774ION     NA49248  11.083  15.825  10.379 -0.1144 -0.0601  0.0486
32775ION     NA49249   6.565   8.887  10.964  0.1783 -0.1755  0.0777
32776ION     NA49250  16.799  18.619  10.166  0.1095  0.0144 -0.2759
32777ION     NA49251   6.030   1.485   5.313 -0.2748  0.4797 -0.0648
32778ION     NA49252  10.214   0.151   5.873 -0.3141  0.2306  0.0284
32779ION     NA49253  18.642  15.391   5.606 -0.0519 -0.1448  0.2413
32780ION     NA49254  11.432   3.386   5.738  0.1994  0.2670  0.1522
32781ION     NA49255  13.469   0.739  10.413 -0.0573  0.1728  0.1557
32782ION     NA49256   9.044   3.000  10.148  0.1571 -0.2547 -0.2290
32783ION     NA49257   3.622  16.587   0.828 -0.0484 -0.1765 -0.1167
32784ION     NA49258  17.787   5.181   2.989  0.2045 -0.0326 -0.3630
32785ION     NA49259   0.184  13.925   2.675 -0.2928 -0.1180  0.0964
32786ION     NA49260  14.724   9.312  10.111 -0.0325 -0.2924 -0.0699
32787ION     NA49261  17.071   1.156  10.397  0.5340 -0.2842  0.1274
32788ION     NA49262  17.634   0.369  10.075  0.0712  0.0420 -0.2265
32789ION     NA49263  11.984   9.741  10.383 -0.3758 -0.0729  0.1057
32790ION     NA49264   9.376   1.829   5.480 -0.4403  0.0983  0.0449
32791ION     NA49265   2.356   3.955   0.287 -0.3917 -0.1006 -0.0382
32792ION     NA49266  15.201  17.700  10.615  0.2234  0.0552  0.3286
32793ION     NA49267   2.650   9.499   9.712 -0.0001  0.0731  0.4013
32794ION     NA49268   4.289  16.724  15.423  0.2465  0.0876  0.1021
32795ION     NA49269   6.967   1.198  13.094  0.1451  0.0558  0.0595
32796ION     NA49270   4.830  17.191   9.816 -0.1903  0.0428 -0.2230
32797ION     NA49271   4.208   1.521   3.286 -0.2188 -0.3329 -0.0417
32798ION     NA49272   2.591  13.964   5.555 -0.0260 -0.1108 -0.0966
32799ION     NA49273  10.234   6.923   2.367 -0.3462 -0.4210 -0.2115
32800ION     NA49274  11.374   6.625   3.458 -0.1433  0.0947 -0.2077
32801ION     NA49275   3.988  14.055   9.945 -0.0436  0.3182  0.0505
32802ION     NA49276   4.802  14.204  12.339 -0.0305 -0.0936 -0.2814
32803ION     NA49277  10.627   2.868   3.497 -0.3773  0.0788 -0.0222
32804ION     NA49278   0.139  16.963  14.742  0.0768 -0.0653 -0.0300
32805ION     NA49279  17.612   5.126   2.379 -0.2930 -0.1489 -0.4483
32806ION     NA49280   6.585  14.156   5.714 -0.0902 -0.2146 -0.0566
32807ION     NA49281   2.012  14.473   1.898 -0.0752 -0.1030  0.0967
32808ION     NA49282   9.922  16.507   1.513 -0.2789 -0.0381 -0.3468
32809ION     NA49283   0.156   3.889   1.495  0.1203 -0.4253 -0.1632
32810ION     NA49284  16.665   8.481   1.806 -0.1852  0.4566 -0.0795
32811ION     NA49285  18.441   0.494   1.978  0.1268  0.3558 -0.2340
32812ION     NA49286   9.869  10.099   3.531  0.0061  0.0009 -0.1094
32813ION     NA49287  10.707  12.297  13.852 -0.1493  0.0185 -0.1830
32814ION     NA49288   5.047   8.935   0.659 -0.1416 -0.0938 -0.0811
32815ION     NA49289  17.600   0.380   1.632  0.0279  0.0443 -0.0852
32816ION     NA49290   8.478   6.845   5.258  0.0284  0.0481  0.0966
32817ION     NA49291   8.193   2.802   9.914  0.1440 -0.1510  0.0248
32818ION     NA49292  10.116  16.012  13.852 -0.0081  0.1585 -0.1445
32819ION     NA49293  12.222   1.910  10.331 -0.1755 -0.1114  0.1181
32820ION     NA49294   1.040   4.892   5.113 -0.3058 -0.3212  0.1044
32821ION     NA49295   3.303   0.194   9.743  0.0702  0.1410 -0.0022
32822ION     NA49296   8.815   8.041   4.937  0.0290 -0.0186  0.1093
32823ION     NA49297  10.295  17.286  13.830  0.0375 -0.0175  0.0060
32824ION     NA49298   9.326   1.054   5.771  0.0528  0.0010  0.0217
32825ION     NA49299  12.147   9.776   4.513 -0.2087  0.1354 -0.1077
32826ION     NA49300  14.899   0.849   2.828 -0.3272 -0.0190  0.2316
32827ION     NA49301   6.892  17.331  10.068 -0.1587  0.0886  0.0016
32828ION     NA49302   3.589  18.581  15.178  0.1375 -0.1184 -0.0354
32829ION     NA49303  10.037   8.012  13.127  0.0948 -0.0488  0.1923
32830ION     NA49304  16.760  17.771   3.697  0.1411 -0.2423  0.1085
32831ION     NA49305  16.960   9.519   2.558  0.2508 -0.2521  0.0528
32832ION     NA49306   8.625  18.587   2.756 -0.1890  0.2079 -0.2411
32833ION     NA49307   5.818  13.845  10.895  0.0286 -0.0133  0.2027
32834ION     NA49308  14.895   5.388  10.339 -0.2244 -0.0056  0.3579
32835ION     NA49309   9.157   5.020   5.330  0.1531  0.0455  0.0119
32836ION     NA49310  18.695   5.163   9.738 -0.0403 -0.2773 -0.2127
32837ION     NA49311   2.223   9.524   5.402  0.1944  0.1662 -0.0818
32838ION     NA49312  18.000   8.740   1.317 -0.4095 -0.1530 -0.1428
32839ION     NA49313  14.751  18.059   3.890 -0.4238 -0.0314  0.2519
32840ION     NA49314   5.971   1.444   9.953  0.3301 -0.2474 -0.1837
32841ION     NA49315  18.159  16.214   3.161 -0.1814 -0.1876 -0.2531
32842ION     NA49316   1.262  10.139   3.577  0.1587  0.0885  0.0443
32843ION     NA49317  13.425  13.966   4.544  0.1732  0.1463 -0.1071
32844ION     NA49318  16.889   3.226  10.151 -0.1993  0.3002 -0.3025
32845ION     NA49319  14.535   8.279   9.988  0.0237 -0.0223 -0.1092
32846ION     NA49320  11.382  13.886   5.945  0.1962 -0.1169  0.1665
32847ION     NA49321   3.829   6.623   5.407  0.2623  0.2143  0.0415
32848ION     NA49322   7.728  17.348   9.892 -0.2449 -0.0043 -0.0523
32849ION     NA49323  14.902  13.265  15.547  0.1326  0.1783 -0.0103
32850ION     NA49324  12.114  10.886  14.980  0.1705  0.1174 -0.2966
32851ION     NA49325   2.379  10.146   9.647 -0.1224  0.2871 -0.1435
32852ION     NA49326  10.384  13.650   5.994 -0.1083 -0.1798 -0.5087
32853ION     NA49327   6.054  15.209  15.268 -0.0319  0.2163 -0.0815
32854ION     NA49328  11.763   8.804  10.269  0.3273  0.2090 -0.0632
32855ION     NA49329  12.704   7.402   5.039  0.1299  0.3405 -0.3188
32856ION     NA49330  13.215  12.829   5.141  0.0993 -0.1491 -0.2914
32857ION     NA49331   4.229   2.859   2.091 -0.2105 -0.1370 -0.0191
32858ION     NA49332  17.647  12.161   4.181  0.1813 -0.0257 -0.1601
32859ION     NA49333   9.365   0.231  10.412  0.0242  0.1473 -0.0645
32860ION     NA49334  14.144   2.614  13.626  0.1668  0.2688 -0.2106
32861ION     NA49335  14.160   5.106  13.712  0.0845 -0.3824  0.0726
32862ION     NA49336  12.624   5.964  10.097 -0.2191  0.0012  0.1818
32863ION     NA49337  16.992  13.820   2.407 -0.1686  0.2117  0.0675
32864ION     NA49338  17.012  11.133   5.723  0.0862 -0.2292 -0.2778
32865ION     NA49339  11.402   0.189   5.907  0.1711  0.2446  0.5237
32866ION     NA49340   2.220  17.684  10.037 -0.1245 -0.0108  0.2356
32867ION     NA49341   1.761  12.339   3.716  0.1862  0.1206  0.1645
32868ION     NA49342  10.791  13.585  10.881 -0.0036  0.2361  0.3495
32869ION     NA49343  14.193  17.911   0.222  0.1683 -0.2354 -0.4439
32870ION     NA49344   5.391   5.457   0.902  0.4011  0.0590 -0.0841
32871ION     NA49345  12.851  17.395  10.016  0.1710 -0.3781  0.0309
32872ION     NA49346  15.161  10.303  10.335  0.2200 -0.2649  0.2382
32873ION     NA49347  13.195  16.680  13.366 -0.0934  0.0357 -0.3240
32874ION     NA49348   6.705   5.435   9.796  0.2237  0.0534 -0.0105
32875ION     NA49349  10.004   2.664   1.605 -0.0979 -0.5387 -0.0735
32876ION     NA49350  17.498  11.631   2.206  0.0614  0.2652 -0.0905
32877ION     NA49351   5.018  13.746   5.613  0.1038 -0.1137 -0.0228
32878ION     NA49352  11.102   5.295   5.797 -0.0924  0.2146 -0.1003
32879ION     NA49353  14.459   3.612  10.289  0.0541  0.1558 -0.0056
32880ION     NA49354  10.952   4.096  14.716  0.0088  0.1715 -0.0921
32881ION     NA49355  17.095  13.428   5.304 -0.0528 -0.1970  0.2411
32882ION     NA49356   8.186   9.879  13.708  0.2901  0.0496  0.0851
32883ION     NA49357  14.474   6.328   4.269  0.0294  0.2451 -0.1132
32884ION     NA49358  10.909   6.135  14.930 -0.2141  0.0230  0.2110
32885ION     NA49359  13.773   5.311  10.257 -0.0910  0.1507 -0.0927
32886ION     NA49360  11.663   1.709   5.931 -0.1077  0.0265 -0.3659
32887ION     NA49361   1.508  14.957   9.934  0.1090 -0.1526 -0.2475
32888ION     NA49362  14.741   2.351   0.668 -0.1188 -0.2526 -0.5685
32889ION     NA49363  18.610   3.356  14.571 -0.2771 -0.2006 -0.2070
32890ION     NA49364  16.341   6.731  12.634  0.1263  0.2709 -0.1815
32891ION     NA49365  18.624   2.877   3.277  0.0748 -0.0366  0.2288
32892ION     NA49366  15.376   3.098   5.833  0.1913 -0.0510 -0.1807
32893ION     NA49367  17.894   2.801  10.306 -0.3336 -0.0156  0.2110
32894ION     NA49368  16.995  17.009   5.689  0.1746  0.0379  0.1529
32895ION     NA49369  13.395  13.844   0.482  0.1704  0.2855 -0.1608
32896ION     NA49370  11.409   8.586   5.925  0.2856 -0.3215  0.1617
32897ION     NA49371  12.926  15.467  10.243  0.0954 -0.0244 -0.1040
32898ION     NA49372   4.010   6.718   9.357 -0.0247  0.1244 -0.1257
32899ION     NA49373  10.799   2.970  15.277 -0.1522  0.1677 -0.2242
32900ION     NA49374  13.163   2.661   4.456 -0.2470  0.1132  0.0686
32901ION     NA49375   7.091  18.404   3.762 -0.1083 -0.0323  0.2042
32902ION     NA49376  13.447   6.046   9.950 -0.0661 -0.2977 -0.0553
32903ION     NA49377  11.242  11.635  10.494 -0.1995  0.1432  0.1779
32904ION     NA49378  15.345   7.677  10.169 -0.0453 -0.0196  0.1448
32905ION     NA49379   0.962  16.925  10.363  0.0396  0.2263  0.1141
32906ION     NA49380   5.321  12.467  15.231 -0.0289 -0.0774 -0.1235
32907ION     NA49381   3.553  18.637   1.720 -0.1698 -0.1643  0.0861
32908ION     NA49382   1.659  17.715   5.171  0.0128 -0.3072 -0.2482
32909ION     NA49383  17.507  16.359   5.433  0.1589 -0.0601 -0.1750
32910ION     NA49384   4.523  16.717   3.470 -0.1109  0.0530 -0.1342
32911ION     NA49385   4.954   2.664   9.706 -0.0070 -0.2959  0.0730
32912ION     NA49386  14.431   9.767   0.318 -0.1816 -0.0458 -0.0456
32913ION     NA49387  13.245   1.065  15.361  0.0968  0.2901  0.0636
32914ION     NA49388  17.475  17.499   9.851  0.0209  0.1463  0.2325
32915ION     NA49389  17.549   9.486  10.906  0.1542  0.2105  0.3087
32916ION     NA49390  15.485  17.523   5.881  0.0100 -0.2969 -0.3595
32917ION     NA49391  15.826  12.002  14.862  0.0545 -0.1447 -0.1298
32918ION     NA49392  11.313  13.873   0.491 -0.1776 -0.1603  0.3365
32919ION     NA49393  12.480  15.268   5.387  0.1549 -0.0027 -0.1749
32920ION     NA49394  10.105   6.317  14.285  0.1100 -0.0718 -0.0983
32921ION     NA49395   5.606  17.632   5.163 -0.0784 -0.1345 -0.1833
32922ION     NA49396  17.652  10.997   3.504 -0.1517  0.3812 -0.2631
32923ION     NA49397  14.323  14.974   5.428  0.3479  0.2038  0.3905
32924ION     NA49398  10.389  16.364  15.065 -0.1441 -0.1151 -0.3222
32925ION     NA49399   5.954   6.723   2.471 -0.2275  0.1568 -0.1871
32926ION     NA49400   6.866  11.336  14.731  0.0375 -0.1857 -0.3006
32927ION     NA49401  14.172   3.989   5.796  0.2652  0.2028 -0.1558
32928ION     NA49402   3.061   7.215   9.675  0.1108  0.1196  0.0781
32929ION     NA49403   0.353   5.309   1.093  0.0580  0.2327  0.2755
32930ION     NA49404   2.005   6.324   4.070  0.0421 -0.2216 -0.1293
32931ION     NA49405  15.670  18.490  15.091 -0.0125  0.1394  0.0839
32932ION     NA49406   5.874  12.260   1.936 -0.3298  0.2388  0.0699
32933ION     NA49407  12.215  18.181   0.501  0.0038 -0.0043 -0.2160
32934ION     NA49408  14.893  15.686  10.361 -0.1789 -0.2751 -0.0182
32935ION     NA49409   2.151  17.565   2.654 -0.0839 -0.4973 -0.0046
32936ION     NA49410   9.976  10.731  15.456  0.0750 -0.1235  0.0290
32937ION     NA49411   1.046  12.515   2.484  0.5671 -0.1515 -0.2175
32938ION     NA49412  12.816   9.832   2.204  0.0454  0.0665  0.5230
32939ION     NA49413  13.010   0.956  12.483  0.0213  0.0322 -0.2571
32940ION     NA49414  10.103   4.341  10.295 -0.0182  0.1861 -0.0716
32941ION     NA49415  13.922  16.748  11.428 -0.1187 -0.2069  0.1909
32942ION     NA49416   1.575   9.931  12.261 -0.0145  0.2995 -0.1199
32943ION     NA49417  15.621   4.680  10.845 -0.0430 -0.2994 -0.0751
32944ION     NA49418  18.414   6.084   9.832 -0.0976  0.2138  0.0728
32945ION     NA49419   1.413   2.485   4.983  0.0044  0.1239 -0.0360
32946ION     NA49420   3.760   0.225   5.204  0.0470 -0.0034  0.1294
32947ION     NA49421   5.280   2.529   4.868  0.0629  0.0766 -0.2207
32948ION     NA49422   1.718  11.761   5.171  0.2819  0.1930  0.1442
32949ION     NA49423  15.230   4.402   2.744 -0.0915  0.2024 -0.2720
32950ION     NA49424  16.799   2.281   1.361  0.0834  0.0074  0.0835
32951ION     NA49425  18.423  16.461   5.471  0.0068 -0.2672 -0.0351
32952ION     NA49426  15.308  12.021  10.528  0.0799 -0.0204  0.1500
32953ION     NA49427   8.038   0.301  12.068  0.0946  0.0477  0.0016
32954ION     NA49428   8.672   6.287  10.186  0.0754  0.2159  0.0055
32955ION     NA49429   0.550  10.800   1.560  0.0479 -0.3379 -0.1839
32956ION     NA49430   9.989   8.826  12.241  0.0887 -0.1429  0.1132
32957ION     NA49431   7.858  16.065  15.556 -0.0042  0.0921 -0.2071
32958ION     NA49432   1.289   0.195   9.748 -0.1323 -0.0686 -0.0036
32959ION     NA49433   4.474  10.854   5.158  0.2329 -0.2343  0.0749
32960ION     NA49434   3.491   6.639   9.553 -0.0305  0.2002 -0.1184
32961ION     NA49435  13.836   0.708  14.652 -0.0866  0.1091  0.1161
32962ION     NA49436   3.937   9.212   5.213 -0.0459  0.0622 -0.2499
32963ION     NA49437   9.738  11.267   3.740 -0.3007 -0.0951 -0.1573
32964ION     NA49438   3.780   3.802   9.591  0.1759 -0.1092 -0.1834
32965ION     NA49439   9.409   9.594  10.019  0.1288  0.2225 -0.0043
32966ION     NA49440   0.818   6.506   9.576  0.0545 -0.2417  0.0073
32967ION     NA49441  13.904   0.171  12.211  0.1443 -0.0515  0.1051
32968ION     NA49442  10.665  13.308   4.124  0.1033  0.0775 -0.0655
32969ION     NA49443   8.335  16.031  14.016 -0.2308  0.1292 -0.2568
32970ION     NA49444  10.510  10.363   2.733 -0.2819  0.0276  0.0981
32971ION     NA49445  12.708   9.418  11.623 -0.0486 -0.2163 -0.2627
32972ION     NA49446   9.203  11.758   1.405  0.1816 -0.1903 -0.1192
32973ION     NA49447  10.447  12.387   3.553  0.0855  0.0166 -0.3718
32974ION     NA49448   1.719   4.877   0.516 -0.0224  0.2245 -0.2293
32975ION     NA49449   6.995   2.860   0.019 -0.0024  0.2168 -0.3220
32976ION     NA49450  12.191   3.810  10.261 -0.2069  0.0556 -0.0231
32977ION     NA49451  10.567  11.726  13.942 -0.5033 -0.1130  0.2426
32978ION     NA49452   9.675  14.926   5.882 -0.2013  0.1374 -0.1723
32979ION     NA49453   8.050  12.907  10.165 -0.1000  0.0511 -0.0191
32980ION     NA49454  16.104  15.256  10.817 -0.2990 -0.1086  0.1803
32981ION     NA49455  14.388   9.630  10.532  0.0441 -0.2185  0.2325
32982ION     NA49456  12.056   4.971   2.158 -0.1864  0.2754 -0.0611
32983ION     NA49457   9.340   6.799   0.696 -0.0656 -0.2332  0.2239
32984ION     NA49458  12.140   2.517   6.001 -0.1641  0.1622  0.1531
32985ION     NA49459   2.459   9.423   2.354 -0.0666  0.3124 -0.0529
32986ION     NA49460  14.802  11.162  10.600  0.0870 -0.3029 -0.0591
32987ION     NA49461  12.222   5.230  13.888 -0.0163 -0.2651 -0.0550
32988ION     NA49462  12.677  13.212   2.403 -0.0941 -0.2275  0.0134
32989ION     NA49463  15.595  11.042   5.994 -0.0625 -0.1291 -0.4491
32990ION     NA49464   8.757   2.686   3.271  0.1425  0.1206 -0.1641
32991ION     NA49465  14.750   9.098   3.915 -0.2500 -0.0674 -0.2378
32992ION     NA49466   7.300   6.304  12.914  0.2133  0.1125 -0.1499
32993ION     NA49467  13.085  13.142  11.637  0.0738  0.3995  0.1927
32994ION     NA49468  11.237   0.684   4.869 -0.1468 -0.1067 -0.3047
32995ION     NA49469   9.062  14.387  10.860  0.1626  0.0031 -0.1889
32996ION     NA49470  18.028  11.683   9.993 -0.0618 -0.2476 -0.0385
32997ION     NA49471   2.860  12.485   5.599 -0.0870  0.1083 -0.2147
32998ION     NA49472  18.273   3.190   5.388  0.2518 -0.2353 -0.1243
32999ION     NA49473   0.460   1.638  10.035  0.2305 -0.1837  0.4981
33000ION     NA49474  17.228   7.306   0.682 -0.0831 -0.0127 -0.2377
33001ION     NA49475   0.485   5.603   5.097 -0.2926  0.1322  0.1159
33002ION     NA49476  11.477   0.497   3.532  0.3564  0.1326  0.2078
33003ION     NA49477  13.378   6.367   5.623 -0.0778  0.2558 -0.0547
33004ION     NA49478  11.469   7.408   2.142  0.0826  0.0661 -0.1071
33005ION     NA49479  12.661  10.705   5.498 -0.3283 -0.3504  0.3263
33006ION     NA49480   0.860   5.473   9.439  0.0172 -0.2440 -0.0292
33007ION     NA49481  15.148   7.673   4.712  0.0754 -0.1087 -0.1891
33008ION     NA49482  17.002   1.441   4.603  0.0776  0.2765 -0.3099
33009ION     NA49483  12.998  13.613  14.447  0.1226  0.0203 -0.2504
33010ION     NA49484   0.283  15.452   1.328 -0.0118  0.2586  0.0933
33011ION     NA49485   8.555  11.604  15.001  0.0502  0.1945 -0.1269
33012ION     NA49486  17.686  17.912   5.303 -0.0426  0.0041 -0.0758
33013ION     NA49487  14.843   3.223   4.155 -0.4158 -0.1026 -0.1571
33014ION     NA49488  15.514  17.519   0.475  0.0943 -0.1843  0.0366
33015ION     NA49489   2.765  13.248   1.566  0.2564 -0.0670  0.1608
33016ION     NA49490   0.692  13.537   9.732 -0.0807 -0.1948 -0.3929
33017ION     NA49491  12.122   5.525   5.620  0.0959  0.3539  0.2451
33018ION     NA49492  10.895   2.312   0.455  0.1000 -0.1334  0.2721
33019ION     NA49493   6.378   3.153   1.118  0.2685 -0.0219  0.0286
33020ION     NA49494  11.392  13.970  13.899  0.2369 -0.1672 -0.1552
33021ION     NA49495   6.527  11.588   3.653  0.1511  0.0453  0.1839
33022ION     NA49496  16.856   7.345   5.944  0.0428  0.3483  0.3348
33023ION     NA49497   9.763   0.901  14.879 -0.2754  0.3777 -0.0287
33024ION     NA49498  13.097  13.053   6.212 -0.0469 -0.3153  0.2997
33025ION     NA49499   1.426   3.182   4.184  0.0835  0.1486  0.3152
33026ION     NA49500   3.346   9.358   5.471  0.0918 -0.1116 -0.0572
33027ION     NA49501  16.113  14.296  10.814  0.1263 -0.0870  0.1284
33028ION     NA49502   3.597  14.171   5.639 -0.0397  0.0044  0.1461
33029ION     NA49503  14.408  10.846  14.045 -0.0788  0.0036  0.0856
33030ION     NA49504   6.561  17.927   4.860  0.2009  0.0181  0.0827
33031ION     NA49505   5.733  14.518   2.507  0.2144  0.1210 -0.1678
33032ION     NA49506   5.642  12.455   5.492  0.0236 -0.2092  0.0889
33033ION     NA49507   0.056   4.925   2.719  0.1517 -0.1161  0.1287
33034ION     NA49508  18.359   3.774  13.231  0.0826 -0.2550  0.3718
33035ION     NA49509  10.444   1.316   0.578 -0.2486  0.1701  0.0458
33036ION     NA49510  16.280   2.019   5.278  0.1554  0.2784 -0.0931
33037ION     NA49511   2.058  13.275   9.780  0.1415 -0.0653 -0.0996
33038ION     NA49512   1.676   7.081   2.517  0.1980 -0.0811 -0.0385
33039ION     NA49513  10.484   6.752   1.471 -0.0130  0.1968  0.1920
33040ION     NA49514  12.712   9.219  10.299 -0.0778  0.0485 -0.3163
33041ION     NA49515   7.343   3.186   9.898  0.1672  0.1893  0.0945
33042ION     NA49516   4.728   4.010   9.319  0.1681  0.1122  0.2556
33043ION     NA49517  12.367  10.229   1.351  0.1813 -0.0876  0.0445
33044ION     NA49518   1.241   4.804   2.442 -0.1944 -0.0687 -0.0512
33045ION     NA49519  11.504   5.842   4.039  0.1179  0.1998 -0.1389
33046ION     NA49520   2.351  12.999  12.821  0.0610  0.0192 -0.2470
33047ION     NA49521   7.410   8.265   5.328 -0.0318  0.0198  0.1917
33048ION     NA49522  11.503   0.230   1.572 -0.3011 -0.2069  0.0678
33049ION     NA49523   3.392   9.025  11.500 -0.0443 -0.2009 -0.0010
33050ION     NA49524   8.265   9.608   0.716 -0.1714  0.1523 -0.1556
33051ION     NA49525   4.593   5.653   9.923  0.3015 -0.1920  0.0844
33052ION     NA49526   7.692   7.849  14.556 -0.0731  0.2017  0.0923
33053ION     NA49527   7.400  13.396  13.904  0.2320  0.1528  0.0946
33054ION     NA49528   0.523  12.154   9.839 -0.3865  0.1144 -0.0242
33055ION     NA49529   3.223   1.807   5.621  0.0159  0.0602  0.0300
33056ION     NA49530  12.824   0.466   0.969 -0.1339 -0.0459 -0.1423
33057ION     NA49531   6.337  16.349  11.415 -0.2002  0.1339  0.4691
33058ION     NA49532   8.940  14.824   5.705 -0.0925 -0.1113 -0.3439
33059ION     NA49533  16.929   6.200   5.096  0.1158  0.2047  0.1646
33060ION     NA49534   1.446  10.559   9.714 -0.0690 -0.0092  0.2374
33061ION     NA49535   5.991  10.730   9.834  0.3070  0.0529  0.2194
33062ION     NA49536  12.862  11.174  10.863  0.2171 -0.1102  0.1181
33063ION     NA49537   5.985   9.369   3.985 -0.1388 -0.0506  0.1219
33064ION     NA49538   9.263   4.062  10.227  0.0407  0.1198 -0.0972
33065ION     NA49539  10.824   5.867  10.249  0.0565 -0.3572  0.0758
33066ION     NA49540  12.142  16.914   5.184  0.0674  0.2637  0.1768
33067ION     NA49541  11.174   8.241   5.269  0.5306 -0.1153  0.2565
33068ION     NA49542   1.504   4.110   5.114 -0.0864 -0.0891  0.1145
33069ION     NA49543  10.378   5.424   3.095 -0.6040 -0.0761  0.0178
33070ION     NA49544   9.288   8.283  13.663  0.3283  0.0341  0.0699
33071ION     NA49545  16.058   7.858  13.618 -0.0319 -0.2184 -0.1320
33072ION     NA49546  14.318   6.027  10.217 -0.1323  0.2257  0.1744
33073ION     NA49547   1.143   2.959  10.003  0.1555  0.1741 -0.2494
33074ION     NA49548   5.119   0.318   5.490 -0.0266  0.2243 -0.3684
33075ION     NA49549   1.471   1.303  12.424  0.3631  0.2006 -0.0865
33076ION     NA49550  11.434  10.849   6.009 -0.1278 -0.0747 -0.1236
33077ION     NA49551  16.524   5.758   1.028  0.1434  0.1501 -0.0138
33078ION     NA49552  12.362   7.012  13.433 -0.0100 -0.4464 -0.0486
33079ION     NA49553   7.701  10.980   1.537  0.0249 -0.3542  0.0968
33080ION     NA49554  13.634  12.411  14.728 -0.2485  0.0529 -0.1278
33081ION     NA49555   8.448  15.657   4.119  0.1032 -0.1598 -0.0150
33082ION     NA49556   1.520   3.521   5.245 -0.3559  0.1960 -0.3866
33083ION     NA49557  11.492  10.917   3.337  0.1957  0.0255 -0.2538
33084ION     NA49558   8.227  10.677  13.096  0.2019 -0.1037 -0.1033
33085ION     NA49559   8.105  13.328  14.583  0.0756 -0.0065  0.0202
33086ION     NA49560   1.660   7.510   9.665  0.2736 -0.0715  0.1276
33087ION     NA49561   4.662   9.058  13.358  0.1838  0.0816  0.1390
33088ION     NA49562   7.107   4.073   9.725 -0.0408 -0.2059 -0.0697
33089ION     NA49563  13.108   9.115   4.061  0.0040 -0.5014 -0.3813
33090ION     NA49564  15.481   2.892   1.567 -0.2585 -0.2242 -0.0201
33091ION     NA49565  18.775   4.286   9.811 -0.2831 -0.0592 -0.0779
33092ION     NA49566   1.954  16.036   1.285 -0.1309  0.1363  0.2419
33093ION     NA49567  17.384  15.408  13.135  0.3783  0.2266  0.1084
33094ION     NA49568  17.439   3.906   2.118 -0.4188  0.2179 -0.0712
33095ION     NA49569   2.412  14.540  14.364 -0.1613  0.0452  0.0338
33096ION     NA49570   6.073  17.285  10.086  0.3030  0.0937  0.2186
33097ION     NA49571   8.975  15.331  13.833 -0.2933 -0.0081  0.0593
33098ION     NA49572   1.109  10.620   4.151 -0.0340 -0.1162  0.0688
33099ION     NA49573  13.423  11.981  10.696  0.0886  0.0394 -0.1646
33100ION     NA49574   9.642   0.405   0.283 -0.0826  0.1463  0.2365
33101ION     NA49575   2.135   7.670   2.369  0.0389  0.0324 -0.2144
33102ION     NA49576   1.181   3.480   0.536 -0.2720 -0.0720 -0.0619
33103ION     NA49577  13.258  12.978   3.101  0.2203 -0.0255  0.0437
33104ION     NA49578   6.416   2.252  10.002  0.2931  0.0418 -0.1876
33105ION     NA49579  14.557   8.106   2.957 -0.1659 -0.1114  0.0845
33106ION     NA49580   7.266  12.503   9.926 -0.0952  0.1537  0.0617
33107ION     NA49581   6.558   0.637   0.973  0.0216 -0.2821  0.0021
33108ION     NA49582  16.604   6.853   4.226 -0.1611  0.1745  0.0181
33109ION     NA49583   4.604   9.266  14.944  0.3071 -0.0966  0.1715
33110ION     NA49584  17.162   0.747   0.425  0.0377 -0.0981  0.0335
33111ION     NA49585   5.576  17.169   5.396 -0.1389  0.0360  0.0335
33112ION     NA49586  16.651  12.380   3.341  0.2577 -0.2531  0.2621
33113ION     NA49587  16.331  15.408  14.740 -0.2718  0.1482 -0.0593
33114ION     NA49588   3.949  14.270  12.054 -0.1338 -0.4579 -0.2333
33115ION     NA49589   0.492   8.297   9.863  0.0534 -0.5755  0.0610
33116ION     NA49590  11.902  16.573   3.741 -0.0208  0.0796  0.1024
33117ION     NA49591  16.904   8.400  10.060  0.1453 -0.1044 -0.0024
33118ION     NA49592  10.262   5.204  10.111  0.2249  0.0165  0.0870
33119ION     NA49593  10.854  15.687   0.894 -0.1794  0.0649 -0.2235
33120ION     NA49594   1.520  11.741  15.246  0.1414 -0.1673  0.1449
33121ION     NA49595  18.649  10.252  14.660 -0.1922  0.0642 -0.0349
33122ION     NA49596   3.852  15.740   9.784  0.3999  0.0930 -0.4425
33123ION     NA49597   1.550   4.441   9.659 -0.1625 -0.0867  0.0450
33124ION     NA49598   6.105   4.853   5.179  0.0013  0.0419 -0.1713
33125ION     NA49599  16.190   4.033   1.258  0.1899  0.2610 -0.1643
33126ION     NA49600   5.600   8.108   4.328  0.1376 -0.0999 -0.0606
33127ION     NA49601   1.081   1.335   5.494  0.0038  0.0620  0.1201
33128ION     NA49602  18.279  18.650  10.132  0.1382 -0.2223  0.1108
33129ION     NA49603   6.982   1.967   9.903  0.0992  0.1127  0.1548
33130ION     NA49604   3.084  11.095   9.617 -0.0121  0.0802  0.0444
33131ION     NA49605   3.549   8.905   9.715  0.2292 -0.0158 -0.0954
33132ION     NA49606   0.326   9.038  10.976 -0.1113 -0.0906  0.4661
  18.79041  18.79041  15.57400
