INSANE! Membrane UpperLeaflet>loPI:POPI:DPPI:PYPI:ERGO=180.0:5.0:3.0:2.0:10.0 LowerLeaflet>PSPI:POPI:POPS:YOPS:POPE:YOPE:POPC:YOPC:ERGO=6.0:14.0:21.0:9.0:9.0:21.0:12.0:48.0:60.0
49606
    1loPI    C1    1  14.320  17.510   9.701  0.0781 -0.0877 -0.0663
    1loPI    C2    2  14.212  17.510  10.086 -0.3064  0.1844 -0.1689
    1loPI    C3    3  14.420  17.818   9.937  0.2512 -0.1350 -0.0761
    1loPI   PO4    4  14.066  17.484   9.568  0.1463  0.2857  0.1128
    1loPI   GL1    5  13.811  17.731   9.316 -0.0237 -0.0169  0.0327
    1loPI   GL2    6  13.752  18.010   9.153  0.0900 -0.4956  0.0079
    1loPI   C1A    7  13.718  17.419   8.935  0.0322  0.6224  0.1407
    1loPI   C2A    8  13.854  17.110   8.613 -0.0488  0.1775 -0.3195
    1loPI   C3A    9  13.738  16.714   8.305 -0.1519  0.0939 -0.3196
    1loPI   C4A   10  13.469  16.616   7.996  0.0293  0.2546  0.1417
    1loPI   C5A   11  13.435  16.571   7.586 -0.0677 -0.1210 -0.0442
    1loPI   C6A   12  13.613  16.791   7.271  0.2041  0.2361  0.1439
    1loPI   C1B   13  13.664  17.903   8.816 -0.0172 -0.0886 -0.1810
    1loPI   C2B   14  13.576  17.746   8.474  0.4921  0.2244 -0.2091
    1loPI   C3B   15  13.448  17.339   8.343 -0.0482  0.2251 -0.0259
    1loPI   C4B   16  13.309  17.089   8.036 -0.3240  0.4134 -0.2369
    2loPI    C1   17  17.921  18.383  10.285 -0.0598 -0.1577 -0.1064
    2loPI    C2   18  17.694  18.686  10.155  0.1149 -0.0057 -0.0608
    2loPI    C3   19  17.615  18.514  10.508  0.1117  0.0914 -0.0139
    2loPI   PO4   20  17.938  18.265  10.098  0.2356 -0.0483  0.0185
    2loPI   GL1   21  17.767  18.424   9.733 -0.3030  0.0102  0.0045
    2loPI   GL2   22  17.571  18.019   9.703 -0.1880 -0.2085 -0.1061
    2loPI   C1A   23  18.041  18.501   9.382 -0.0807  0.0332  0.2648
    2loPI   C2A   24  18.191  18.460   8.880  0.2396  0.4734  0.1412
    2loPI   C3A   25  18.522  18.536   8.580  0.1109  0.2076 -0.0718
    2loPI   C4A   26  18.884  18.476   8.455 -0.0253 -0.0601  0.1117
    2loPI   C5A   27  19.027  18.526   8.065 -0.2403 -0.3020  0.3005
    2loPI   C6A   28  18.923  18.411   7.610 -0.2277  0.2233  0.0536
    2loPI   C1B   29  17.898  18.020   9.364  0.2762 -0.0739  0.0158
    2loPI   C2B   30  18.019  18.000   8.921 -0.1632 -0.0688 -0.0100
    2loPI   C3B   31  18.115  18.088   8.490  0.0226 -0.0897 -0.0263
    2loPI   C4B   32  17.893  18.074   8.103 -0.1137 -0.0378 -0.3885
    3loPI    C1   33   5.642  10.965  10.067 -0.0199  0.0898  0.1869
    3loPI    C2   34   5.331  11.195   9.965  0.1672  0.3135  0.1124
    3loPI    C3   35   5.404  11.118  10.350 -0.0662  0.1363  0.1233
    3loPI   PO4   36   5.524  10.813   9.747  0.2205 -0.0114  0.4517
    3loPI   GL1   37   5.540  10.656   9.285  0.0904  0.0204  0.1061
    3loPI   GL2   38   5.297  10.814   9.266  0.0584  0.1383 -0.0707
    3loPI   C1A   39   5.760  10.647   8.896 -0.1527 -0.3182 -0.0485
    3loPI   C2A   40   5.862  10.894   8.608 -0.0653  0.0702  0.0973
    3loPI   C3A   41   6.094  11.022   8.214 -0.1689 -0.1199  0.0535
    3loPI   C4A   42   6.445  11.084   7.917  0.3929  0.1866  0.3670
    3loPI   C5A   43   6.831  11.066   7.918 -0.2698  0.2475  0.0678
    3loPI   C6A   44   7.047  11.035   8.252  0.3172 -0.1827  0.1163
    3loPI   C1B   45   5.603  11.131   9.018  0.3724 -0.1677  0.2643
    3loPI   C2B   46   6.100  11.154   9.021 -0.1034  0.0336 -0.3312
    3loPI   C3B   47   6.306  11.091   8.704  0.0179 -0.2915  0.1394
    3loPI   C4B   48   6.591  11.007   8.382  0.1085 -0.1522 -0.1408
    4loPI    C1   49  13.242  17.199  10.028 -0.2887 -0.2335  0.1650
    4loPI    C2   50  13.155  17.589  10.031 -0.0948 -0.1890  0.1108
    4loPI    C3   51  13.236  17.400  10.374  0.0458 -0.1274  0.1125
    4loPI   PO4   52  13.366  17.159   9.734  0.1367 -0.2019  0.0306
    4loPI   GL1   53  13.605  17.262   9.441 -0.0911  0.0590 -0.3347
    4loPI   GL2   54  13.245  17.448   9.314 -0.4064 -0.0700  0.1281
    4loPI   C1A   55  13.942  17.005   9.096  0.3276 -0.0594  0.0600
    4loPI   C2A   56  14.318  17.202   8.791 -0.2538  0.0085  0.1706
    4loPI   C3A   57  14.575  17.554   8.577  0.1614  0.0039  0.1625
    4loPI   C4A   58  14.874  17.839   8.585  0.3553  0.0248  0.1727
    4loPI   C5A   59  15.250  17.831   8.479 -0.0730  0.2271  0.2163
    4loPI   C6A   60  15.673  18.004   8.398  0.0885  0.0197  0.0831
    4loPI   C1B   61  13.198  17.582   8.805  0.1261  0.0364 -0.1052
    4loPI   C2B   62  12.944  17.634   8.429 -0.0193 -0.4456  0.2023
    4loPI   C3B   63  12.502  17.660   8.223 -0.1268  0.1392  0.2187
    4loPI   C4B   64  12.242  17.663   7.911  0.1710 -0.4300  0.0180
    5loPI    C1   65   8.316   5.457  10.097  0.1953  0.2700 -0.0027
    5loPI    C2   66   8.572   5.164  10.191 -0.0223  0.0066 -0.2119
    5loPI    C3   67   8.217   5.186  10.374  0.0548  0.2355 -0.0855
    5loPI   PO4   68   8.190   5.330   9.712  0.2347  0.0568 -0.1174
    5loPI   GL1   69   8.088   5.229   9.286 -0.1035 -0.3313 -0.0532
    5loPI   GL2   70   8.139   5.434   8.981  0.2596 -0.2462  0.0923
    5loPI   C1A   71   7.692   5.232   9.085  0.2191 -0.1681  0.0293
    5loPI   C2A   72   7.436   5.370   8.791 -0.0512 -0.2489 -0.1202
    5loPI   C3A   73   7.112   5.327   8.518  0.0327 -0.0867  0.1778
    5loPI   C4A   74   6.810   5.461   8.195 -0.0586  0.1741  0.0650
    5loPI   C5A   75   6.535   5.453   7.864 -0.0237  0.3208  0.1622
    5loPI   C6A   76   6.121   5.232   7.678  0.1543 -0.0908  0.0547
    5loPI   C1B   77   7.881   5.626   8.705  0.3622 -0.1732 -0.0468
    5loPI   C2B   78   7.612   5.635   8.329  0.1104  0.0548 -0.0212
    5loPI   C3B   79   7.264   5.733   8.076 -0.0792  0.2059 -0.2847
    5loPI   C4B   80   6.890   5.905   7.913 -0.1377  0.0305 -0.0124
    6loPI    C1   81  12.745  19.037   9.518  0.0405 -0.3492  0.1150
    6loPI    C2   82  13.043  19.020   9.784  0.1358 -0.1510  0.0227
    6loPI    C3   83  12.844  19.362   9.728  0.0618 -0.2136 -0.1017
    6loPI   PO4   84  12.815  18.986   9.249  0.2438  0.2368 -0.2115
    6loPI   GL1   85  12.572  18.741   8.962 -0.1280  0.1971  0.2987
    6loPI   GL2   86  12.802  18.535   8.998 -0.0465 -0.0476 -0.0558
    6loPI   C1A   87  12.485  18.520   8.596  0.1850  0.1764  0.2062
    6loPI   C2A   88  12.310  18.269   8.247 -0.0979  0.0598  0.2000
    6loPI   C3A   89  12.064  18.095   7.962 -0.1366  0.3027 -0.1000
    6loPI   C4A   90  11.813  17.838   7.996  0.3699  0.2556  0.1641
    6loPI   C5A   91  11.441  17.655   8.151 -0.0450  0.1273 -0.2692
    6loPI   C6A   92  11.147  17.495   7.973 -0.0582  0.0568 -0.3271
    6loPI   C1B   93  12.953  18.478   8.574  0.1101 -0.2293  0.1657
    6loPI   C2B   94  13.128  18.407   8.046  0.0451 -0.1035 -0.0581
    6loPI   C3B   95  13.190  18.171   7.609 -0.2279  0.1066  0.0713
    6loPI   C4B   96  13.077  17.984   7.372 -0.0884 -0.1525  0.1517
    7loPI    C1   97   8.456   3.774   9.541  0.0263  0.0992 -0.0265
    7loPI    C2   98   8.149   3.742   9.287  0.0340  0.0333 -0.0277
    7loPI    C3   99   8.126   3.577   9.651  0.0395  0.0915 -0.0007
    7loPI   PO4  100   8.541   4.034   9.542 -0.3629 -0.1999 -0.1804
    7loPI   GL1  101   8.537   4.322   9.177  0.2464 -0.2799 -0.1599
    7loPI   GL2  102   8.768   4.394   8.932 -0.0049 -0.2283 -0.0269
    7loPI   C1A  103   8.279   4.167   8.891  0.2621  0.0589  0.0979
    7loPI   C2A  104   8.149   4.049   8.474  0.0301  0.2276  0.0013
    7loPI   C3A  105   8.249   4.359   8.145  0.1445 -0.3603 -0.3387
    7loPI   C4A  106   8.171   4.566   7.768 -0.1832 -0.1014 -0.1456
    7loPI   C5A  107   8.017   4.950   7.667  0.1126  0.1520 -0.2951
    7loPI   C6A  108   8.051   5.175   7.302 -0.2723  0.1948 -0.3658
    7loPI   C1B  109   8.675   4.262   8.530 -0.0125 -0.6136  0.1308
    7loPI   C2B  110   8.787   4.305   8.087 -0.1735 -0.0718  0.2479
    7loPI   C3B  111   8.628   4.432   7.692 -0.1741  0.1903 -0.0929
    7loPI   C4B  112   8.853   4.513   7.290  0.1227 -0.1797  0.1698
    8loPI    C1  113   6.112  10.163   9.992 -0.0761 -0.2472 -0.0326
    8loPI    C2  114   5.838  10.455   9.993  0.0520 -0.1259  0.0025
    8loPI    C3  115   5.859  10.198  10.299 -0.0168 -0.1304  0.0036
    8loPI   PO4  116   6.110  10.067   9.707 -0.3380  0.2224 -0.0413
    8loPI   GL1  117   5.901  10.043   9.293 -0.1487  0.0710 -0.0054
    8loPI   GL2  118   5.515  10.131   9.109  0.0918 -0.0514 -0.0810
    8loPI   C1A  119   5.926  10.172   8.829  0.1292 -0.0550 -0.0788
    8loPI   C2A  120   5.953  10.263   8.431  0.0519  0.2464 -0.2832
    8loPI   C3A  121   6.008  10.093   7.971  0.1980  0.1302 -0.0383
    8loPI   C4A  122   6.333  10.214   7.644  0.0417  0.0351 -0.1430
    8loPI   C5A  123   6.617  10.373   7.292  0.3643  0.0660  0.0691
    8loPI   C6A  124   6.797  10.665   7.174  0.2007  0.0461 -0.1252
    8loPI   C1B  125   5.449  10.253   8.683  0.3391 -0.1128  0.0068
    8loPI   C2B  126   5.209  10.246   8.197 -0.2587 -0.0234  0.2047
    8loPI   C3B  127   5.108  10.388   7.720  0.1146  0.1065 -0.0279
    8loPI   C4B  128   5.075  10.439   7.344 -0.2249 -0.0524 -0.3217
    9loPI    C1  129  18.784   8.691   9.970  0.0597  0.0319 -0.3273
    9loPI    C2  130  18.568   8.369  10.068  0.1160  0.0510 -0.1356
    9loPI    C3  131  18.816   8.533  10.336  0.1585  0.1977 -0.2630
    9loPI   PO4  132  18.897   8.669   9.777  0.0529  0.3139 -0.1029
    9loPI   GL1  133  19.053   8.720   9.388  0.0142 -0.0213  0.0294
    9loPI   GL2  134  19.113   8.885   9.056  0.3555 -0.1004 -0.3926
    9loPI   C1A  135  18.790   8.530   9.090 -0.1080  0.1533  0.0262
    9loPI   C2A  136  18.606   8.344   8.747 -0.1091 -0.2984 -0.0951
    9loPI   C3A  137  18.339   8.286   8.378 -0.2393 -0.1918 -0.1390
    9loPI   C4A  138  18.183   8.289   7.939 -0.0572  0.0061  0.0353
    9loPI   C5A  139  17.992   8.241   7.455 -0.0729  0.2299 -0.0931
    9loPI   C6A  140  17.945   8.649   7.163  0.2076 -0.1370  0.0027
    9loPI   C1B  141  18.982   8.778   8.649  0.1585  0.2369  0.1652
    9loPI   C2B  142  19.049   8.827   8.195 -0.0059  0.1746 -0.2282
    9loPI   C3B  143  18.759   9.068   7.871 -0.0152  0.0840 -0.0529
    9loPI   C4B  144  18.625   9.119   7.387 -0.3781 -0.1650  0.0710
   10loPI    C1  145  17.242   5.773   9.916  0.1107  0.0828  0.1011
   10loPI    C2  146  17.428   5.446   9.779  0.0233 -0.0326  0.2557
   10loPI    C3  147  17.477   5.560  10.160 -0.1186  0.0104  0.2617
   10loPI   PO4  148  17.002   5.762   9.821 -0.3853  0.1956  0.3014
   10loPI   GL1  149  16.926   5.573   9.551  0.1591 -0.0132  0.6016
   10loPI   GL2  150  16.619   5.300   9.657  0.0838 -0.1497 -0.0118
   10loPI   C1A  151  16.845   5.869   9.126  0.0229  0.3654  0.1356
   10loPI   C2A  152  17.263   5.981   8.769 -0.1628  0.3758 -0.1515
   10loPI   C3A  153  17.392   6.070   8.316 -0.0288 -0.0316  0.1157
   10loPI   C4A  154  17.488   5.968   7.837 -0.1445  0.0819  0.1593
   10loPI   C5A  155  17.798   6.033   7.609 -0.0468 -0.0125 -0.1041
   10loPI   C6A  156  18.169   6.039   7.376 -0.3753  0.0166 -0.0284
   10loPI   C1B  157  16.706   5.305   9.226  0.3576  0.0809  0.2671
   10loPI   C2B  158  16.804   5.349   8.916 -0.2084 -0.2484  0.0499
   10loPI   C3B  159  16.844   5.697   8.577  0.4056 -0.1050  0.2172
   10loPI   C4B  160  16.701   5.933   8.116 -0.0228  0.0721 -0.1368
   11loPI    C1  161  14.232  10.962   9.941  0.3355  0.0125 -0.0048
   11loPI    C2  162  14.273  10.901  10.334  0.0389  0.0794  0.0390
   11loPI    C3  163  14.055  11.209  10.201 -0.1275 -0.1284 -0.1770
   11loPI   PO4  164  14.448  10.766   9.879 -0.1746  0.4403  0.0582
   11loPI   GL1  165  14.546  10.783   9.488 -0.0264 -0.2030 -0.0638
   11loPI   GL2  166  14.193  11.015   9.441  0.0151 -0.0163  0.1619
   11loPI   C1A  167  14.705  11.005   9.148 -0.1545 -0.0861 -0.0735
   11loPI   C2A  168  14.652  10.886   8.716  0.1955  0.6281 -0.0567
   11loPI   C3A  169  14.547  11.026   8.262 -0.0258  0.1275  0.0901
   11loPI   C4A  170  14.370  11.162   7.891  0.0348 -0.0982 -0.1463
   11loPI   C5A  171  14.217  11.509   7.684 -0.3878 -0.2881  0.3146
   11loPI   C6A  172  14.041  11.623   7.392  0.0475 -0.0639 -0.0422
   11loPI   C1B  173  14.207  10.960   8.952 -0.0030 -0.3763  0.1138
   11loPI   C2B  174  14.347  11.291   8.648 -0.0846  0.1569 -0.4898
   11loPI   C3B  175  14.380  11.524   8.262  0.1159 -0.0217 -0.0374
   11loPI   C4B  176  14.233  11.919   8.173 -0.1061  0.0166  0.2380
   12loPI    C1  177   9.077   7.990   9.802 -0.0992  0.0525  0.0630
   12loPI    C2  178   9.087   8.331  10.011 -0.2588  0.1022 -0.0086
   12loPI    C3  179   9.427   8.138   9.926 -0.1812  0.1586  0.1696
   12loPI   PO4  180   8.895   8.034   9.662 -0.3144 -0.1237  0.1507
   12loPI   GL1  181   8.939   8.344   9.340 -0.1270 -0.1603  0.1076
   12loPI   GL2  182   9.241   8.407   9.477 -0.1027 -0.0952  0.1257
   12loPI   C1A  183   9.090   8.668   9.085 -0.0134 -0.3984 -0.1950
   12loPI   C2A  184   9.309   8.639   8.659 -0.2560 -0.2267 -0.0807
   12loPI   C3A  185   9.172   8.327   8.414  0.2009  0.0427  0.1037
   12loPI   C4A  186   9.124   8.133   8.000 -0.0277 -0.0233 -0.0869
   12loPI   C5A  187   8.839   7.977   7.667 -0.0294  0.1134 -0.0410
   12loPI   C6A  188   8.733   7.624   7.461  0.1808  0.0492  0.0936
   12loPI   C1B  189   9.231   8.218   8.977  0.0772 -0.1418  0.0745
   12loPI   C2B  190   9.442   7.935   8.658  0.2089  0.1899 -0.4340
   12loPI   C3B  191   9.522   7.945   8.229  0.1526  0.2096 -0.1073
   12loPI   C4B  192   9.824   8.058   7.911 -0.2118  0.0835  0.1941
   13loPI    C1  193  13.647   7.003  10.342 -0.0658 -0.1142  0.0178
   13loPI    C2  194  13.563   6.750  10.043  0.0816  0.1175 -0.2236
   13loPI    C3  195  13.266   6.915  10.255 -0.0176 -0.1996 -0.1100
   13loPI   PO4  196  13.885   7.171  10.260  0.1934  0.2335  0.0903
   13loPI   GL1  197  13.954   7.028   9.862 -0.0506  0.1257  0.0390
   13loPI   GL2  198  14.183   7.268   9.616 -0.1227  0.0370  0.1072
   13loPI   C1A  199  13.863   6.805   9.429  0.0256  0.1425 -0.1799
   13loPI   C2A  200  13.849   6.731   8.957  0.1825  0.1684  0.1849
   13loPI   C3A  201  13.626   6.770   8.549 -0.1109 -0.1982  0.3384
   13loPI   C4A  202  13.625   7.013   8.144 -0.0793 -0.0830 -0.3964
   13loPI   C5A  203  13.703   7.097   7.667  0.1591  0.1096  0.0478
   13loPI   C6A  204  13.760   7.514   7.500 -0.1145  0.1848 -0.1158
   13loPI   C1B  205  14.214   7.163   9.175  0.1525 -0.2336  0.0357
   13loPI   C2B  206  14.089   7.264   8.804  0.1851  0.0517  0.1972
   13loPI   C3B  207  14.103   7.139   8.451 -0.1511 -0.1878 -0.0625
   13loPI   C4B  208  14.160   7.022   8.101  0.1046  0.0409 -0.2180
   14loPI    C1  209  17.116   3.154  10.216  0.0530  0.0642 -0.0343
   14loPI    C2  210  16.875   2.836  10.189 -0.0275  0.1194  0.0281
   14loPI    C3  211  16.834   3.093  10.493  0.1482  0.0981  0.0712
   14loPI   PO4  212  17.389   3.012  10.080  0.1377  0.1324 -0.1413
   14loPI   GL1  213  17.505   2.747   9.823  0.1121 -0.1179  0.0651
   14loPI   GL2  214  17.305   2.617   9.703  0.2742 -0.5289 -0.0121
   14loPI   C1A  215  17.506   2.723   9.275  0.1392 -0.1217 -0.1950
   14loPI   C2A  216  17.609   2.438   8.994  0.0976 -0.2066  0.1627
   14loPI   C3A  217  17.851   2.206   8.744 -0.1437  0.1724  0.0155
   14loPI   C4A  218  18.069   1.873   8.493 -0.3386 -0.1857 -0.1674
   14loPI   C5A  219  18.174   1.738   8.022  0.0950 -0.1166  0.3259
   14loPI   C6A  220  18.520   1.845   7.718  0.0112  0.1093 -0.2529
   14loPI   C1B  221  16.999   2.738   9.283  0.0647  0.0744  0.3929
   14loPI   C2B  222  17.208   2.617   8.854  0.0965 -0.1448 -0.1324
   14loPI   C3B  223  17.558   2.639   8.503  0.1491  0.0915 -0.0801
   14loPI   C4B  224  17.661   2.696   8.092  0.2532 -0.2577  0.1682
   15loPI    C1  225  12.378  13.820  10.474 -0.0910  0.1187  0.1558
   15loPI    C2  226  12.498  14.197  10.533 -0.0644  0.1040  0.1952
   15loPI    C3  227  12.202  14.044  10.755 -0.2738  0.1956 -0.0172
   15loPI   PO4  228  12.518  13.808  10.223 -0.1949 -0.0983  0.0819
   15loPI   GL1  229  12.552  13.720   9.807 -0.1728 -0.1289 -0.3197
   15loPI   GL2  230  12.639  13.892   9.578  0.2103 -0.5555  0.1690
   15loPI   C1A  231  12.439  13.476   9.391 -0.3136 -0.0176 -0.2995
   15loPI   C2A  232  12.637  13.439   9.051  0.1184 -0.1155 -0.3340
   15loPI   C3A  233  12.824  13.652   8.743  0.0964 -0.0306 -0.2578
   15loPI   C4A  234  12.974  13.706   8.332 -0.1634 -0.3411  0.0169
   15loPI   C5A  235  12.803  13.645   7.951  0.4008  0.1180 -0.1879
   15loPI   C6A  236  12.954  13.853   7.518  0.0796 -0.0523  0.0121
   15loPI   C1B  237  12.767  14.013   9.227  0.1030 -0.2292 -0.2656
   15loPI   C2B  238  12.609  14.093   8.886 -0.1521 -0.3475  0.0482
   15loPI   C3B  239  12.685  14.075   8.464  0.1839 -0.1061 -0.3414
   15loPI   C4B  240  12.485  14.083   8.018 -0.2865  0.2779 -0.0725
   16loPI    C1  241   9.016   7.586  10.005 -0.0784 -0.1312  0.0690
   16loPI    C2  242   9.017   7.254  10.229  0.1646  0.0323  0.3175
   16loPI    C3  243   8.850   7.589  10.369 -0.0178  0.0365  0.0962
   16loPI   PO4  244   8.983   7.456   9.769  0.1146  0.4030  0.0551
   16loPI   GL1  245   9.136   7.222   9.505 -0.0839 -0.0373  0.3263
   16loPI   GL2  246   8.763   7.179   9.401 -0.2551  0.3734  0.0550
   16loPI   C1A  247   8.963   7.492   9.103 -0.0689 -0.0690  0.2181
   16loPI   C2A  248   9.085   7.478   8.721  0.3467 -0.1893  0.0832
   16loPI   C3A  249   9.311   7.485   8.332  0.0379 -0.0606  0.0268
   16loPI   C4A  250   9.656   7.428   8.177 -0.2597 -0.2121 -0.2941
   16loPI   C5A  251   9.980   7.710   8.303  0.1573 -0.2998 -0.0796
   16loPI   C6A  252  10.438   7.697   8.312 -0.0869  0.0332 -0.0652
   16loPI   C1B  253   9.065   6.967   9.119 -0.2525  0.0913 -0.1783
   16loPI   C2B  254   9.506   7.063   8.825  0.1289  0.0768  0.1589
   16loPI   C3B  255   9.821   7.355   8.663 -0.0686  0.4167 -0.1372
   16loPI   C4B  256  10.229   7.529   8.747  0.1242  0.2396  0.0536
   17loPI    C1  257   4.509  13.843   9.867 -0.0010 -0.0736  0.2480
   17loPI    C2  258   4.253  13.827  10.174 -0.1018 -0.1361  0.1612
   17loPI    C3  259   4.640  13.746  10.233 -0.1489 -0.3095  0.2407
   17loPI   PO4  260   4.386  13.769   9.583  0.1336 -0.2896 -0.0790
   17loPI   GL1  261   4.381  13.810   9.202 -0.2609  0.2507  0.1070
   17loPI   GL2  262   4.541  13.956   9.070 -0.0414  0.0510  0.2299
   17loPI   C1A  263   3.981  13.796   8.878 -0.2205  0.1287  0.2002
   17loPI   C2A  264   4.014  13.754   8.397 -0.0391  0.0610  0.0109
   17loPI   C3A  265   3.919  13.801   8.000 -0.1745 -0.0052 -0.1180
   17loPI   C4A  266   3.727  13.808   7.649 -0.2215 -0.0319 -0.1150
   17loPI   C5A  267   3.631  14.089   7.380 -0.1802  0.0225  0.3399
   17loPI   C6A  268   3.827  14.391   7.101  0.1606 -0.0404  0.1280
   17loPI   C1B  269   4.569  13.957   8.540  0.0394 -0.2476 -0.0637
   17loPI   C2B  270   4.377  13.902   8.028 -0.2566 -0.0117  0.0041
   17loPI   C3B  271   4.166  13.636   7.546  0.1152 -0.1724  0.2109
   17loPI   C4B  272   3.879  13.420   7.209 -0.0470 -0.1064 -0.1489
   18loPI    C1  273  16.030   6.640  10.044 -0.1354  0.0842 -0.1276
   18loPI    C2  274  16.427   6.595  10.048 -0.1547 -0.0854  0.0143
   18loPI    C3  275  16.242   6.766  10.358 -0.1954 -0.0290 -0.0409
   18loPI   PO4  276  15.977   6.400   9.913 -0.1904 -0.0802  0.0774
   18loPI   GL1  277  15.857   6.314   9.415  0.2309  0.2934 -0.0873
   18loPI   GL2  278  15.555   6.180   9.564  0.0939 -0.3407 -0.1000
   18loPI   C1A  279  15.657   6.268   9.025 -0.1519 -0.0516 -0.0697
   18loPI   C2A  280  15.648   6.422   8.614 -0.1147  0.0167 -0.1193
   18loPI   C3A  281  15.715   6.393   8.128  0.0479 -0.0058 -0.1066
   18loPI   C4A  282  15.603   6.165   7.785 -0.2162  0.1024  0.0128
   18loPI   C5A  283  15.804   5.726   7.576  0.1175 -0.1487 -0.2092
   18loPI   C6A  284  15.711   5.322   7.653 -0.3216  0.1073  0.0635
   18loPI   C1B  285  15.345   5.865   9.262  0.1296  0.2031  0.1494
   18loPI   C2B  286  15.368   5.817   8.868 -0.0859 -0.1337 -0.0877
   18loPI   C3B  287  15.291   6.009   8.505 -0.3046 -0.0958 -0.0926
   18loPI   C4B  288  15.305   6.046   8.145  0.1594 -0.2052 -0.1080
   19loPI    C1  289  17.174   1.127  10.035 -0.0454 -0.2010 -0.0397
   19loPI    C2  290  17.003   0.853  10.270 -0.0674 -0.1085  0.0527
   19loPI    C3  291  17.073   1.221  10.410  0.0343 -0.0900 -0.0455
   19loPI   PO4  292  17.322   0.978   9.893 -0.0898 -0.1779 -0.0872
   19loPI   GL1  293  17.407   0.697   9.572 -0.0763  0.4232 -0.3114
   19loPI   GL2  294  17.670   0.754   9.660 -0.0801  0.1974  0.2135
   19loPI   C1A  295  17.311   0.806   9.224 -0.3969  0.1049  0.2399
   19loPI   C2A  296  17.381   0.786   8.726  0.0930 -0.0871  0.0361
   19loPI   C3A  297  17.462   0.614   8.363  0.3120 -0.2059  0.0265
   19loPI   C4A  298  17.742   0.321   8.141 -0.2957  0.2147 -0.2346
   19loPI   C5A  299  18.078  -0.082   8.045 -0.1474 -0.1508 -0.1678
   19loPI   C6A  300  18.505   0.014   7.842 -0.0287  0.0623 -0.1231
   19loPI   C1B  301  17.830   0.883   9.262  0.1086  0.2463  0.4297
   19loPI   C2B  302  17.923   0.980   8.927  0.1263  0.0093 -0.1687
   19loPI   C3B  303  18.045   0.882   8.450  0.1515  0.0412 -0.0348
   19loPI   C4B  304  17.896   0.789   8.074 -0.1039 -0.1832 -0.1647
   20loPI    C1  305  17.295   0.256  10.023 -0.1792 -0.0577  0.1157
   20loPI    C2  306  17.529   0.566  10.120  0.0476 -0.1837 -0.0213
   20loPI    C3  307  17.254   0.434  10.379  0.0019  0.0820  0.0682
   20loPI   PO4  308  17.180   0.299   9.779 -0.3656 -0.0410 -0.0443
   20loPI   GL1  309  17.189   0.315   9.342 -0.1944 -0.0085 -0.0025
   20loPI   GL2  310  16.959   0.547   9.415  0.1428 -0.3410  0.0163
   20loPI   C1A  311  17.307   0.319   8.878  0.0993 -0.0648  0.3225
   20loPI   C2A  312  17.257   0.210   8.352 -0.0568  0.2937  0.1218
   20loPI   C3A  313  17.026   0.364   8.084  0.0158 -0.2919 -0.1223
   20loPI   C4A  314  16.778   0.261   7.861  0.0567  0.0641  0.4665
   20loPI   C5A  315  16.520   0.565   7.528 -0.1736 -0.1472  0.0580
   20loPI   C6A  316  16.246   0.753   7.306 -0.2760 -0.0458 -0.1464
   20loPI   C1B  317  16.801   0.527   8.990 -0.2373 -0.2146 -0.1967
   20loPI   C2B  318  16.947   0.592   8.542  0.0341  0.0843 -0.1977
   20loPI   C3B  319  17.110   0.870   8.198  0.0216  0.1164  0.0981
   20loPI   C4B  320  17.360   0.604   7.841  0.0169  0.0282 -0.1818
   21loPI    C1  321  16.934  15.157   9.998 -0.2349  0.0135 -0.1151
   21loPI    C2  322  16.785  15.207  10.366  0.2328  0.1373  0.0639
   21loPI    C3  323  17.076  14.940  10.302  0.1274  0.0884 -0.2266
   21loPI   PO4  324  16.791  15.148   9.859  0.4708 -0.5347 -0.0623
   21loPI   GL1  325  16.497  15.001   9.540  0.2293 -0.0158  0.1794
   21loPI   GL2  326  16.745  14.837   9.455 -0.2310 -0.0694 -0.2339
   21loPI   C1A  327  16.285  15.159   9.158 -0.3373 -0.2588 -0.3659
   21loPI   C2A  328  16.212  15.281   8.684  0.1578  0.2643 -0.1344
   21loPI   C3A  329  16.202  15.166   8.217 -0.0110  0.2798 -0.2429
   21loPI   C4A  330  16.000  15.156   7.796 -0.0048 -0.0579  0.0961
   21loPI   C5A  331  15.642  15.125   7.572  0.0091  0.3160  0.3103
   21loPI   C6A  332  15.526  15.030   7.190  0.0323  0.0503 -0.2786
   21loPI   C1B  333  16.983  14.474   9.146 -0.1397 -0.1207 -0.5237
   21loPI   C2B  334  17.124  14.494   8.774 -0.1143 -0.1699 -0.2905
   21loPI   C3B  335  17.009  14.602   8.348  0.0385 -0.1227  0.0974
   21loPI   C4B  336  17.182  14.589   7.957 -0.0165 -0.0554  0.3439
   22loPI    C1  337   7.650   0.676   9.952 -0.1812  0.1986  0.0575
   22loPI    C2  338   7.977   0.522  10.122 -0.1159  0.0724 -0.1787
   22loPI    C3  339   7.969   0.908  10.017 -0.1184  0.1252  0.0127
   22loPI   PO4  340   7.541   0.630   9.683  0.1687  0.0581 -0.2961
   22loPI   GL1  341   7.261   0.937   9.409  0.1393  0.2501 -0.0421
   22loPI   GL2  342   7.107   0.644   9.286  0.2050 -0.0890  0.0604
   22loPI   C1A  343   7.144   1.288   9.173  0.2774 -0.0201 -0.1163
   22loPI   C2A  344   7.233   1.315   8.743  0.0175 -0.1033 -0.2239
   22loPI   C3A  345   7.002   1.190   8.330 -0.3127  0.0152  0.0204
   22loPI   C4A  346   7.039   1.165   7.828 -0.0266  0.1073  0.3448
   22loPI   C5A  347   7.241   1.007   7.497  0.0501 -0.2164 -0.0490
   22loPI   C6A  348   7.690   1.059   7.427  0.0739  0.1414  0.0266
   22loPI   C1B  349   7.060   0.785   8.800  0.0469 -0.1315 -0.0252
   22loPI   C2B  350   6.805   0.725   8.395 -0.0117  0.0968 -0.3738
   22loPI   C3B  351   6.539   0.591   8.027 -0.3505 -0.1313  0.3349
   22loPI   C4B  352   6.149   0.833   7.908  0.0936  0.0636  0.0280
   23loPI    C1  353   4.976  10.430   9.994  0.0884  0.0081  0.0235
   23loPI    C2  354   5.182  10.744  10.132  0.1641 -0.0386  0.0177
   23loPI    C3  355   5.139  10.418  10.360  0.1299 -0.0442  0.0035
   23loPI   PO4  356   5.111  10.484   9.723 -0.0276  0.0212 -0.1324
   23loPI   GL1  357   5.051  10.367   9.332  0.0814 -0.1496 -0.1114
   23loPI   GL2  358   4.809  10.113   9.351 -0.0143 -0.0409  0.0090
   23loPI   C1A  359   5.067  10.556   8.937  0.0584  0.2132  0.2329
   23loPI   C2A  360   5.279  10.804   8.632 -0.2459  0.2719 -0.0976
   23loPI   C3A  361   5.448  10.760   8.257  0.3075  0.1368 -0.3285
   23loPI   C4A  362   5.572  10.542   7.885  0.1767  0.0567  0.1441
   23loPI   C5A  363   5.707  10.603   7.459 -0.1540  0.3416 -0.4143
   23loPI   C6A  364   5.554  10.284   7.150 -0.0114  0.0276  0.1605
   23loPI   C1B  365   4.621  10.136   9.018  0.1077  0.1054  0.0121
   23loPI   C2B  366   4.652  10.255   8.652  0.0954 -0.3086 -0.0872
   23loPI   C3B  367   4.788  10.582   8.431  0.1015 -0.1202  0.2603
   23loPI   C4B  368   4.977  10.697   8.097  0.0713 -0.0963 -0.2547
   24loPI    C1  369  12.200   2.496   9.726  0.0994 -0.0166  0.0700
   24loPI    C2  370  12.049   2.308   9.407  0.1317 -0.0318  0.0637
   24loPI    C3  371  11.867   2.278   9.762  0.1560 -0.1033  0.0703
   24loPI   PO4  372  12.312   2.712   9.538  0.0291 -0.1119  0.0332
   24loPI   GL1  373  12.144   2.768   9.071  0.2679  0.1644  0.0829
   24loPI   GL2  374  12.339   3.022   9.074 -0.1487  0.0080  0.1494
   24loPI   C1A  375  12.388   2.643   8.696  0.1646  0.0133 -0.0248
   24loPI   C2A  376  12.451   2.710   8.257 -0.0810 -0.2678  0.2114
   24loPI   C3A  377  12.588   2.828   7.891 -0.0822  0.2182 -0.2944
   24loPI   C4A  378  12.466   3.255   7.797  0.0161 -0.2574  0.1930
   24loPI   C5A  379  12.445   3.677   7.731  0.0410  0.0356 -0.0175
   24loPI   C6A  380  12.446   4.001   7.522 -0.1498 -0.2979  0.0489
   24loPI   C1B  381  12.425   3.231   8.705 -0.0629 -0.1223  0.1869
   24loPI   C2B  382  12.712   3.186   8.276 -0.2596  0.0926 -0.1255
   24loPI   C3B  383  12.868   3.582   8.019  0.3361 -0.0372  0.1209
   24loPI   C4B  384  12.765   3.930   8.006 -0.1788  0.1118  0.1347
   25loPI    C1  385   2.592  16.194  10.083 -0.0078  0.1796 -0.0356
   25loPI    C2  386   2.854  16.381  10.319  0.3769 -0.2504 -0.1092
   25loPI    C3  387   2.673  16.048  10.446  0.0210 -0.0736 -0.1420
   25loPI   PO4  388   2.718  16.135   9.881  0.1414  0.0926 -0.0309
   25loPI   GL1  389   2.662  16.292   9.533 -0.1474 -0.2290 -0.2360
   25loPI   GL2  390   2.780  16.659   9.523 -0.2010  0.1480  0.3525
   25loPI   C1A  391   2.703  16.097   9.149  0.1966 -0.1465  0.1634
   25loPI   C2A  392   2.692  16.051   8.765  0.2537 -0.2141 -0.0444
   25loPI   C3A  393   2.677  16.193   8.270  0.1483 -0.0095 -0.0458
   25loPI   C4A  394   2.777  16.285   7.932 -0.1538 -0.1219 -0.3401
   25loPI   C5A  395   2.590  16.232   7.532 -0.1209  0.0048  0.1757
   25loPI   C6A  396   2.588  16.179   7.151 -0.1836  0.1482 -0.1218
   25loPI   C1B  397   2.722  16.632   9.133  0.3117  0.0803  0.0865
   25loPI   C2B  398   2.772  16.570   8.734 -0.2588 -0.1618  0.1255
   25loPI   C3B  399   2.722  16.678   8.302  0.2959 -0.3814 -0.2330
   25loPI   C4B  400   2.757  16.805   7.821  0.0323 -0.1258 -0.1351
   26loPI    C1  401   4.314   1.064  10.285 -0.0377  0.0793 -0.0317
   26loPI    C2  402   4.184   0.690  10.338 -0.2680  0.1570 -0.0353
   26loPI    C3  403   4.423   0.859  10.611  0.2532 -0.1640 -0.2752
   26loPI   PO4  404   4.248   1.170  10.083 -0.1105  0.0830  0.0366
   26loPI   GL1  405   3.997   1.218   9.785  0.3592  0.0069 -0.0076
   26loPI   GL2  406   4.322   1.490   9.694 -0.3296 -0.2789  0.0441
   26loPI   C1A  407   3.984   1.192   9.301  0.2957 -0.1931  0.1090
   26loPI   C2A  408   3.986   1.268   8.906 -0.0117  0.0377 -0.1282
   26loPI   C3A  409   4.031   1.332   8.478 -0.3829  0.1323  0.3031
   26loPI   C4A  410   4.217   1.276   8.185 -0.0659 -0.1039 -0.1514
   26loPI   C5A  411   4.176   1.164   7.744 -0.1501  0.0016 -0.3249
   26loPI   C6A  412   4.222   0.870   7.529 -0.0071  0.0906 -0.1991
   26loPI   C1B  413   4.449   1.368   9.227 -0.1961  0.1591 -0.1056
   26loPI   C2B  414   4.441   1.459   8.822  0.0348 -0.1045  0.0586
   26loPI   C3B  415   4.711   1.500   8.530  0.2168  0.1203 -0.0902
   26loPI   C4B  416   4.727   1.540   8.024 -0.2894  0.1188  0.0121
   27loPI    C1  417  13.713   3.295   9.570  0.1900 -0.0127  0.2114
   27loPI    C2  418  13.552   3.548   9.834  0.0074  0.0544  0.0375
   27loPI    C3  419  13.573   3.158   9.918 -0.0461  0.0762  0.1529
   27loPI   PO4  420  13.737   3.375   9.374  0.3650  0.1611 -0.0718
   27loPI   GL1  421  14.005   3.503   9.057  0.0223  0.0674  0.1314
   27loPI   GL2  422  14.160   3.274   8.822 -0.0815  0.2709  0.0148
   27loPI   C1A  423  14.385   3.717   8.819 -0.1514  0.6558 -0.1343
   27loPI   C2A  424  14.619   3.809   8.475  0.0360 -0.3833 -0.3484
   27loPI   C3A  425  14.754   4.157   8.219 -0.0780  0.0271 -0.1546
   27loPI   C4A  426  14.918   4.309   7.831  0.1918  0.0796 -0.2951
   27loPI   C5A  427  15.045   4.587   7.543 -0.0973  0.4764 -0.1360
   27loPI   C6A  428  14.960   4.807   7.187  0.0135  0.0265  0.0437
   27loPI   C1B  429  14.208   3.483   8.402 -0.1993  0.0514  0.2161
   27loPI   C2B  430  14.182   3.322   8.006  0.0700 -0.1823 -0.1125
   27loPI   C3B  431  14.367   3.270   7.617  0.0534 -0.3744 -0.3064
   27loPI   C4B  432  14.366   3.206   7.077  0.2199 -0.3145  0.0943
   28loPI    C1  433   9.861   5.869  10.199 -0.4112  0.3175 -0.0954
   28loPI    C2  434   9.680   5.896  10.554  0.0015 -0.0852  0.1560
   28loPI    C3  435  10.078   5.920  10.531 -0.0192 -0.0913 -0.2786
   28loPI   PO4  436   9.776   6.032   9.996  0.2697  0.6473  0.0090
   28loPI   GL1  437   9.698   6.070   9.556 -0.3058  0.0629  0.1261
   28loPI   GL2  438  10.061   6.111   9.474  0.1880 -0.0551 -0.1210
   28loPI   C1A  439   9.564   6.099   9.076 -0.2587 -0.1611 -0.0970
   28loPI   C2A  440   9.412   6.179   8.670 -0.1020 -0.0391 -0.2427
   28loPI   C3A  441   9.501   6.274   8.219 -0.2468  0.0022  0.0290
   28loPI   C4A  442   9.655   6.545   7.929 -0.1522 -0.0493  0.1830
   28loPI   C5A  443   9.537   6.740   7.553  0.2477  0.2037 -0.0325
   28loPI   C6A  444   9.643   6.676   7.217  0.1291  0.0239  0.1243
   28loPI   C1B  445  10.073   6.026   9.068 -0.0182 -0.0419 -0.2168
   28loPI   C2B  446   9.938   6.089   8.703  0.2401 -0.0201 -0.0512
   28loPI   C3B  447   9.973   6.144   8.153 -0.1620  0.3181 -0.0919
   28loPI   C4B  448   9.724   6.067   7.671 -0.0899 -0.0412 -0.0455
   29loPI    C1  449   8.353  13.373  10.169  0.5573  0.1190 -0.1098
   29loPI    C2  450   8.523  13.123  10.431  0.0820  0.0847  0.1787
   29loPI    C3  451   8.588  13.517  10.460  0.0940  0.0742  0.3002
   29loPI   PO4  452   8.320  13.177   9.941  0.1079 -0.1542  0.2406
   29loPI   GL1  453   8.184  12.903   9.589 -0.1169  0.0073  0.1171
   29loPI   GL2  454   7.962  12.877   9.405 -0.1682  0.4253 -0.1880
   29loPI   C1A  455   8.383  13.078   9.197 -0.0553  0.0348  0.0995
   29loPI   C2A  456   8.447  13.063   8.775  0.0544  0.0300  0.0345
   29loPI   C3A  457   8.581  13.035   8.355 -0.0428 -0.0265  0.1341
   29loPI   C4A  458   8.497  12.882   7.950  0.2519 -0.1442  0.1008
   29loPI   C5A  459   8.193  13.031   7.655 -0.4523 -0.4331 -0.2866
   29loPI   C6A  460   7.976  12.754   7.347 -0.0949  0.2702 -0.0854
   29loPI   C1B  461   7.906  12.940   9.073 -0.2800  0.1549 -0.0069
   29loPI   C2B  462   7.965  12.973   8.672 -0.0179  0.4485 -0.2079
   29loPI   C3B  463   8.080  13.104   8.304 -0.2944 -0.2968  0.1630
   29loPI   C4B  464   8.214  13.420   8.022 -0.0193  0.0070 -0.2536
   30loPI    C1  465   8.183  11.138  10.232  0.0932 -0.2496  0.0436
   30loPI    C2  466   8.293  11.518  10.293 -0.5031 -0.0545 -0.0359
   30loPI    C3  467   8.208  11.282  10.604 -0.2296 -0.0963  0.0094
   30loPI   PO4  468   8.358  11.004  10.143 -0.2002  0.0422  0.2411
   30loPI   GL1  469   8.533  11.228   9.814  0.1657 -0.2215  0.1481
   30loPI   GL2  470   8.396  11.498   9.827  0.1234  0.1274 -0.1090
   30loPI   C1A  471   8.736  10.999   9.400  0.1279  0.1184 -0.2292
   30loPI   C2A  472   8.631  11.089   9.008  0.1161 -0.0551  0.0229
   30loPI   C3A  473   8.569  11.117   8.533 -0.0164 -0.1979  0.1509
   30loPI   C4A  474   8.583  11.169   8.095 -0.0677 -0.2566  0.2567
   30loPI   C5A  475   8.690  10.991   7.614  0.0208 -0.2836  0.2195
   30loPI   C6A  476   8.638  11.044   7.272  0.1065 -0.1783 -0.1071
   30loPI   C1B  477   8.647  11.631   9.473 -0.0204  0.0879  0.2687
   30loPI   C2B  478   8.886  11.664   9.096  0.0895 -0.2096 -0.4089
   30loPI   C3B  479   8.767  11.607   8.704  0.2967 -0.1868  0.0363
   30loPI   C4B  480   8.761  11.595   8.236  0.0326 -0.0263  0.1694
   31loPI    C1  481   1.317  16.167  10.098  0.0959 -0.2098 -0.1359
   31loPI    C2  482   1.048  15.918  10.258  0.1592 -0.3204 -0.1999
   31loPI    C3  483   0.929  16.264  10.094  0.1129 -0.1071  0.2666
   31loPI   PO4  484   1.406  16.038   9.948  0.1167  0.1774  0.1804
   31loPI   GL1  485   1.190  15.797   9.699 -0.0677 -0.0672 -0.0998
   31loPI   GL2  486   1.479  15.749   9.527 -0.2534  0.0033 -0.0995
   31loPI   C1A  487   0.963  15.952   9.260  0.1262 -0.1141  0.4214
   31loPI   C2A  488   0.961  16.025   8.812  0.1720 -0.0453  0.2570
   31loPI   C3A  489   0.979  16.154   8.327  0.2334  0.1440 -0.3134
   31loPI   C4A  490   1.103  15.889   7.897 -0.1857 -0.2545  0.0591
   31loPI   C5A  491   1.401  15.602   7.691 -0.2856 -0.1152 -0.1494
   31loPI   C6A  492   1.332  15.252   7.667  0.1309  0.0077 -0.2217
   31loPI   C1B  493   1.373  15.773   9.066 -0.2059 -0.0044  0.3190
   31loPI   C2B  494   1.323  15.689   8.597 -0.0968 -0.2212 -0.2902
   31loPI   C3B  495   1.425  15.984   8.244 -0.1037 -0.1853 -0.2018
   31loPI   C4B  496   1.606  16.010   7.898 -0.0663 -0.0427 -0.0315
   32loPI    C1  497  16.113  15.499  10.363  0.1001 -0.0896  0.0644
   32loPI    C2  498  15.899  15.163  10.397  0.0941 -0.1033 -0.0999
   32loPI    C3  499  15.896  15.433  10.692 -0.0867 -0.1396 -0.0671
   32loPI   PO4  500  16.026  15.545  10.093 -0.0896  0.2095 -0.1985
   32loPI   GL1  501  15.879  15.589   9.646  0.0929 -0.0421  0.0158
   32loPI   GL2  502  15.683  15.376   9.487 -0.0499  0.1936 -0.0896
   32loPI   C1A  503  16.170  15.623   9.245  0.0859 -0.0773 -0.2676
   32loPI   C2A  504  16.246  15.781   8.791 -0.0015 -0.1279 -0.1333
   32loPI   C3A  505  16.148  15.769   8.396 -0.1144  0.3457 -0.0704
   32loPI   C4A  506  16.222  15.606   7.905  0.0128  0.1745 -0.0096
   32loPI   C5A  507  16.151  15.702   7.557 -0.2822 -0.1478 -0.0892
   32loPI   C6A  508  16.390  15.837   7.168 -0.0543 -0.0921 -0.0688
   32loPI   C1B  509  15.795  15.315   9.109 -0.1255  0.1927 -0.2199
   32loPI   C2B  510  15.737  15.596   8.716 -0.2836 -0.2024 -0.2575
   32loPI   C3B  511  15.737  15.563   8.255  0.1718  0.0702  0.0769
   32loPI   C4B  512  15.697  15.710   7.760  0.0714 -0.0532  0.0251
   33loPI    C1  513  16.380  18.795  10.022  0.1956 -0.0420 -0.0800
   33loPI    C2  514  16.380  19.194   9.988 -0.0294 -0.0566 -0.2730
   33loPI    C3  515  16.475  19.023  10.337  0.0368  0.1661 -0.1801
   33loPI   PO4  516  16.577  18.723   9.796  0.1072 -0.1861  0.2170
   33loPI   GL1  517  16.458  18.516   9.470  0.2816  0.0267 -0.0016
   33loPI   GL2  518  16.623  18.692   9.295 -0.1412 -0.2489  0.3420
   33loPI   C1A  519  16.292  18.383   9.053  0.2222  0.2500  0.1306
   33loPI   C2A  520  16.294  18.528   8.605 -0.0004  0.0775  0.0148
   33loPI   C3A  521  16.203  18.482   8.296  0.1685 -0.1136  0.2280
   33loPI   C4A  522  16.189  18.528   7.868  0.1890  0.0403 -0.1271
   33loPI   C5A  523  15.921  18.485   7.479 -0.0879 -0.2066 -0.2307
   33loPI   C6A  524  15.551  18.762   7.414 -0.3434  0.0151 -0.1104
   33loPI   C1B  525  16.707  18.749   8.879  0.0726  0.0975 -0.1742
   33loPI   C2B  526  16.718  18.627   8.434 -0.2046 -0.0259  0.0957
   33loPI   C3B  527  16.698  18.460   8.007  0.1949  0.0437 -0.2648
   33loPI   C4B  528  16.666  18.627   7.644  0.0869  0.2096  0.1069
   34loPI    C1  529  15.145   1.979   9.424  0.4807  0.1964 -0.2104
   34loPI    C2  530  15.244   1.793   9.764 -0.1799  0.1381 -0.0353
   34loPI    C3  531  15.420   1.688   9.421 -0.0096 -0.2951  0.1763
   34loPI   PO4  532  14.875   1.952   9.393  0.0496  0.2561  0.2658
   34loPI   GL1  533  14.820   1.687   9.061  0.0042 -0.0993 -0.0146
   34loPI   GL2  534  14.886   1.982   8.863  0.0435 -0.2687  0.1703
   34loPI   C1A  535  14.780   1.522   8.620  0.2149  0.2150  0.2889
   34loPI   C2A  536  14.608   1.149   8.257  0.2096  0.0394  0.2366
   34loPI   C3A  537  14.427   1.241   7.883 -0.1084 -0.0882 -0.2023
   34loPI   C4A  538  14.696   1.245   7.656  0.0599  0.2687  0.1335
   34loPI   C5A  539  15.104   1.308   7.489  0.1690  0.1141  0.1585
   34loPI   C6A  540  15.524   1.459   7.366  0.1671 -0.0180  0.1910
   34loPI   C1B  541  14.690   2.062   8.419 -0.3628 -0.3049  0.0815
   34loPI   C2B  542  14.725   2.027   8.047 -0.0421 -0.2135 -0.2610
   34loPI   C3B  543  14.698   2.141   7.703  0.3001 -0.1080 -0.1765
   34loPI   C4B  544  14.831   2.189   7.353 -0.2556  0.2948  0.2437
   35loPI    C1  545  10.014  12.425  10.614  0.0288  0.0283  0.0312
   35loPI    C2  546   9.664  12.383  10.804  0.0813 -0.0727  0.1068
   35loPI    C3  547   9.997  12.227  10.961  0.1598  0.0174  0.0319
   35loPI   PO4  548   9.881  12.500  10.362  0.1316 -0.0290 -0.0147
   35loPI   GL1  549   9.780  12.330   9.974  0.4588 -0.2871 -0.2735
   35loPI   GL2  550   9.800  12.068   9.725  0.3344 -0.1960  0.1186
   35loPI   C1A  551   9.838  12.644   9.588  0.4773  0.2127 -0.0298
   35loPI   C2A  552   9.813  12.601   9.186  0.1222 -0.1032  0.1998
   35loPI   C3A  553  10.004  12.359   8.840  0.0969 -0.1845  0.1562
   35loPI   C4A  554  10.082  12.294   8.410 -0.0295 -0.3066  0.0368
   35loPI   C5A  555  10.021  12.122   8.022  0.0120 -0.0957  0.6082
   35loPI   C6A  556   9.676  12.142   7.728 -0.2139 -0.1398 -0.0080
   35loPI   C1B  557   9.802  11.824   9.411  0.2263 -0.3626 -0.3395
   35loPI   C2B  558   9.770  11.710   9.026  0.0089  0.0794  0.1495
   35loPI   C3B  559   9.865  11.749   8.692  0.1742 -0.1361  0.1473
   35loPI   C4B  560   9.874  11.674   8.220  0.0780 -0.2775 -0.1009
   36loPI    C1  561  12.764  15.235  10.064 -0.3242  0.0164 -0.1164
   36loPI    C2  562  12.517  15.523  10.191 -0.0343  0.2718 -0.1194
   36loPI    C3  563  12.824  15.407  10.420 -0.1602 -0.0526 -0.1098
   36loPI   PO4  564  12.840  15.384   9.754  0.0533  0.1095  0.0950
   36loPI   GL1  565  13.197  15.369   9.481  0.0536 -0.0066  0.0754
   36loPI   GL2  566  13.466  15.139   9.524 -0.0741  0.0852  0.0562
   36loPI   C1A  567  13.140  15.368   9.019  0.1690 -0.0736  0.1664
   36loPI   C2A  568  13.297  15.584   8.749  0.0614 -0.0648 -0.5119
   36loPI   C3A  569  13.509  15.692   8.342  0.0882  0.0733  0.3518
   36loPI   C4A  570  13.454  15.618   7.770 -0.2514  0.2185 -0.2251
   36loPI   C5A  571  13.379  15.118   7.641 -0.0744  0.0259 -0.2746
   36loPI   C6A  572  13.157  14.707   7.615  0.3341 -0.1473 -0.0789
   36loPI   C1B  573  13.483  14.988   9.087 -0.1204 -0.1682  0.1490
   36loPI   C2B  574  13.446  15.143   8.608  0.1908  0.3090 -0.3164
   36loPI   C3B  575  13.296  15.138   8.197 -0.1413 -0.0144  0.2245
   36loPI   C4B  576  12.994  15.251   7.913  0.0626  0.0422  0.0531
   37loPI    C1  577   3.457  12.534   9.776 -0.1818 -0.0148  0.0309
   37loPI    C2  578   3.488  12.872   9.988 -0.0742 -0.0461  0.0657
   37loPI    C3  579   3.342  12.542  10.159 -0.2397 -0.0009  0.0134
   37loPI   PO4  580   3.688  12.601   9.571 -0.1802  0.2664 -0.2386
   37loPI   GL1  581   3.666  12.664   9.168  0.0531  0.1730  0.0455
   37loPI   GL2  582   3.971  12.547   9.023 -0.0107 -0.0819 -0.2311
   37loPI   C1A  583   3.380  12.731   8.738  0.1713 -0.1145  0.2702
   37loPI   C2A  584   3.104  12.703   8.277 -0.1902  0.0926  0.4451
   37loPI   C3A  585   2.824  12.610   7.947 -0.1428  0.0758  0.1035
   37loPI   C4A  586   2.779  12.512   7.572 -0.0589 -0.0714 -0.1226
   37loPI   C5A  587   2.573  12.610   7.255  0.0566  0.3001 -0.0623
   37loPI   C6A  588   2.397  13.007   7.155  0.0963  0.2052  0.2545
   37loPI   C1B  589   3.817  12.695   8.561 -0.2006  0.1677  0.0570
   37loPI   C2B  590   3.641  12.810   8.107  0.1640  0.1794  0.0543
   37loPI   C3B  591   3.244  12.863   7.836 -0.1234  0.2303  0.1433
   37loPI   C4B  592   2.762  13.063   7.547  0.1460  0.1565  0.0590
   38loPI    C1  593   4.240   8.645   9.985  0.0205  0.0453  0.1210
   38loPI    C2  594   4.554   8.398  10.019  0.1633  0.2363  0.2119
   38loPI    C3  595   4.194   8.253   9.920  0.2801  0.0158  0.1033
   38loPI   PO4  596   4.335   8.776   9.691 -0.2304 -0.4291 -0.2366
   38loPI   GL1  597   4.273   8.692   9.260 -0.3126 -0.3000  0.0340
   38loPI   GL2  598   3.984   8.567   9.167 -0.3549  0.0137 -0.0896
   38loPI   C1A  599   4.541   8.533   8.918  0.0129  0.0826  0.0680
   38loPI   C2A  600   4.661   8.591   8.499 -0.3011  0.1953  0.4558
   38loPI   C3A  601   4.710   8.798   8.171  0.2543 -0.1856  0.1284
   38loPI   C4A  602   4.792   8.792   7.686 -0.0542  0.1851 -0.1307
   38loPI   C5A  603   4.761   9.028   7.312  0.0197 -0.1880 -0.0048
   38loPI   C6A  604   4.616   9.435   7.338  0.0679 -0.1398  0.0461
   38loPI   C1B  605   4.100   8.893   8.867  0.1714 -0.1168 -0.0164
   38loPI   C2B  606   4.223   8.984   8.450 -0.0852 -0.3048 -0.2703
   38loPI   C3B  607   4.213   9.020   8.043 -0.2708  0.2443  0.2004
   38loPI   C4B  608   4.308   8.795   7.724 -0.2041 -0.2630  0.0326
   39loPI    C1  609  11.831   5.234  10.173  0.0615  0.0989 -0.0505
   39loPI    C2  610  12.037   4.894  10.220 -0.0792  0.0127 -0.0518
   39loPI    C3  611  11.908   5.096  10.541 -0.0064  0.0586 -0.0513
   39loPI   PO4  612  11.667   5.261   9.930  0.3177  0.0465 -0.1120
   39loPI   GL1  613  11.836   5.422   9.523 -0.1368 -0.4346 -0.1040
   39loPI   GL2  614  11.781   5.098   9.443 -0.2880  0.2135  0.1077
   39loPI   C1A  615  11.817   5.439   9.065  0.1617 -0.1391 -0.0762
   39loPI   C2A  616  12.051   5.597   8.565  0.0134 -0.3735  0.1084
   39loPI   C3A  617  12.248   5.353   8.247  0.0621 -0.1352  0.2387
   39loPI   C4A  618  12.186   5.295   7.772 -0.1557 -0.0389 -0.0086
   39loPI   C5A  619  12.196   4.951   7.427  0.0040  0.0963 -0.2078
   39loPI   C6A  620  12.523   4.794   7.145  0.0085 -0.0743  0.0635
   39loPI   C1B  621  11.356   5.260   9.283 -0.1228  0.0252 -0.1576
   39loPI   C2B  622  11.379   5.341   8.841  0.1267 -0.3431  0.2342
   39loPI   C3B  623  11.486   5.565   8.524 -0.0522 -0.4623  0.0360
   39loPI   C4B  624  11.510   5.697   8.133  0.0055 -0.0178 -0.0273
   40loPI    C1  625   4.906   3.902  10.365  0.1032 -0.0970 -0.0733
   40loPI    C2  626   5.276   3.808  10.483  0.1305  0.0591 -0.0326
   40loPI    C3  627   5.052   4.053  10.706  0.1026  0.1825 -0.1944
   40loPI   PO4  628   4.872   3.746  10.093 -0.0893  0.1258  0.1153
   40loPI   GL1  629   4.696   3.510   9.856  0.0720 -0.1545 -0.1638
   40loPI   GL2  630   5.006   3.337   9.847  0.0914  0.5495  0.2588
   40loPI   C1A  631   4.564   3.757   9.466 -0.2390 -0.1388  0.0738
   40loPI   C2A  632   4.560   3.912   8.984  0.2553  0.1200  0.2775
   40loPI   C3A  633   4.523   3.992   8.516 -0.1269 -0.0675  0.0251
   40loPI   C4A  634   4.577   3.859   8.116  0.0517 -0.0371  0.0710
   40loPI   C5A  635   4.431   3.477   7.937 -0.0813 -0.1037  0.1972
   40loPI   C6A  636   4.120   3.175   8.037 -0.2547  0.0364 -0.2730
   40loPI   C1B  637   4.877   3.371   9.404  0.0515 -0.1042 -0.1020
   40loPI   C2B  638   4.674   3.429   9.024  0.6232 -0.0890 -0.1888
   40loPI   C3B  639   4.680   3.478   8.553  0.0012  0.1220  0.0206
   40loPI   C4B  640   4.761   3.198   8.165 -0.0429 -0.1354 -0.3480
   41loPI    C1  641  16.821  16.059  10.115  0.1110  0.4035 -0.1042
   41loPI    C2  642  17.097  16.272  10.312  0.1640  0.0624  0.2009
   41loPI    C3  643  16.878  16.000  10.507 -0.0941  0.0300 -0.1265
   41loPI   PO4  644  17.015  16.044   9.875 -0.0010 -0.1895 -0.0229
   41loPI   GL1  645  17.356  16.044   9.483  0.1531  0.0236  0.0150
   41loPI   GL2  646  17.573  15.771   9.300 -0.1282  0.0532 -0.0685
   41loPI   C1A  647  17.029  16.289   9.170  0.2125  0.0898  0.2213
   41loPI   C2A  648  16.744  16.393   8.808 -0.0797  0.2257 -0.1116
   41loPI   C3A  649  16.396  16.181   8.550 -0.0522 -0.1118  0.2850
   41loPI   C4A  650  16.208  16.196   8.178  0.1562 -0.0341 -0.1234
   41loPI   C5A  651  16.069  16.116   7.811 -0.0490 -0.0802 -0.1576
   41loPI   C6A  652  16.111  16.197   7.333 -0.0016  0.1652  0.2146
   41loPI   C1B  653  17.711  15.869   8.799 -0.1230  0.3822  0.1554
   41loPI   C2B  654  17.775  15.813   8.352  0.0914  0.0724 -0.0325
   41loPI   C3B  655  17.815  16.064   7.951  0.4671  0.0266  0.1213
   41loPI   C4B  656  17.544  16.258   7.790 -0.0761  0.0276 -0.1051
   42loPI    C1  657   7.658  14.420  10.066 -0.3569 -0.2111  0.0660
   42loPI    C2  658   7.893  14.101  10.123  0.0066  0.0113 -0.1481
   42loPI    C3  659   7.856  14.375  10.412  0.0215 -0.0171 -0.1191
   42loPI   PO4  660   7.525  14.323   9.875 -0.3400  0.1599 -0.0921
   42loPI   GL1  661   7.550  14.372   9.353  0.0450 -0.4034  0.1239
   42loPI   GL2  662   7.336  14.155   9.276  0.3069 -0.3099 -0.6846
   42loPI   C1A  663   7.964  14.398   9.066  0.1899 -0.0112  0.0488
   42loPI   C2A  664   8.033  14.476   8.633 -0.0542  0.0833 -0.2103
   42loPI   C3A  665   8.169  14.416   8.210  0.0735  0.6371 -0.0261
   42loPI   C4A  666   8.139  14.527   7.751 -0.1595 -0.0545  0.1784
   42loPI   C5A  667   8.296  14.883   7.461  0.0657  0.0965 -0.2307
   42loPI   C6A  668   8.267  15.183   7.183  0.2806 -0.0223  0.0721
   42loPI   C1B  669   7.535  14.341   8.860  0.2092  0.2805  0.3686
   42loPI   C2B  670   7.383  14.453   8.441  0.1087  0.0689  0.0895
   42loPI   C3B  671   7.306  14.453   8.032 -0.0423  0.2851  0.1404
   42loPI   C4B  672   7.274  14.366   7.540  0.1185  0.1170  0.1456
   43loPI    C1  673   1.363   7.588   9.583  0.1466 -0.1891 -0.0012
   43loPI    C2  674   1.520   7.956   9.590 -0.1335 -0.0629 -0.1662
   43loPI    C3  675   1.496   7.743   9.927 -0.0066  0.0853 -0.0620
   43loPI   PO4  676   1.406   7.464   9.390  0.0210  0.0640  0.0896
   43loPI   GL1  677   1.232   7.322   8.980 -0.0878 -0.4825  0.1124
   43loPI   GL2  678   1.097   7.090   8.886  0.0639  0.0098  0.0252
   43loPI   C1A  679   1.362   7.479   8.594 -0.0193 -0.1113  0.0226
   43loPI   C2A  680   1.280   7.404   8.115  0.3860  0.0255  0.0932
   43loPI   C3A  681   1.106   7.434   7.670 -0.3453 -0.2954  0.1047
   43loPI   C4A  682   0.990   7.379   7.256  0.0984  0.0775  0.2150
   43loPI   C5A  683   1.083   7.548   6.983 -0.1689  0.2196  0.2623
   43loPI   C6A  684   1.321   7.973   6.797 -0.0783  0.1902  0.1395
   43loPI   C1B  685   0.965   6.960   8.513  0.1665 -0.1320  0.2474
   43loPI   C2B  686   0.733   6.571   8.421  0.3491  0.1299 -0.1717
   43loPI   C3B  687   0.590   6.236   8.236  0.0051  0.0151  0.2582
   43loPI   C4B  688   0.093   6.221   8.072  0.2308  0.0505 -0.0627
   44loPI    C1  689  18.439   6.971   9.986  0.1335  0.0059  0.0387
   44loPI    C2  690  18.548   7.325  10.137 -0.1340 -0.0044  0.2655
   44loPI    C3  691  18.408   7.039  10.379 -0.1452 -0.1823  0.0526
   44loPI   PO4  692  18.647   6.870   9.767  0.0795 -0.1244  0.0890
   44loPI   GL1  693  18.665   6.717   9.233 -0.0822  0.2557 -0.4056
   44loPI   GL2  694  18.632   7.023   9.294  0.0204  0.0219 -0.3440
   44loPI   C1A  695  18.712   6.729   8.798  0.0033 -0.1049  0.0442
   44loPI   C2A  696  18.804   6.724   8.434  0.1946  0.1501 -0.0302
   44loPI   C3A  697  18.960   6.719   8.043 -0.0337  0.3201  0.0242
   44loPI   C4A  698  18.969   6.669   7.608  0.0796  0.2076  0.0129
   44loPI   C5A  699  18.930   6.889   7.201  0.1378 -0.0051 -0.2086
   44loPI   C6A  700  18.901   6.820   6.806  0.3825  0.3042 -0.0372
   44loPI   C1B  701  18.616   7.218   9.040 -0.0928  0.2090  0.0137
   44loPI   C2B  702  18.670   7.224   8.619 -0.1039 -0.3885 -0.0826
   44loPI   C3B  703  18.814   7.481   8.251  0.1266 -0.2628 -0.1945
   44loPI   C4B  704  18.867   7.526   7.794  0.1335  0.2489  0.2842
   45loPI    C1  705   9.877   8.474  10.368  0.0511  0.0658  0.1726
   45loPI    C2  706   9.486   8.390  10.380  0.1111 -0.2570 -0.0042
   45loPI    C3  707   9.705   8.370  10.714 -0.0648  0.1583  0.1436
   45loPI   PO4  708   9.953   8.384  10.096  0.1210  0.0537  0.0036
   45loPI   GL1  709  10.007   8.437   9.703  0.2149  0.1175 -0.0831
   45loPI   GL2  710   9.726   8.433   9.612  0.0476  0.0715  0.0528
   45loPI   C1A  711  10.221   8.181   9.324  0.0271 -0.2230 -0.0800
   45loPI   C2A  712  10.522   8.267   8.982 -0.1330 -0.3690  0.1113
   45loPI   C3A  713  10.683   8.367   8.582 -0.1726  0.0358 -0.1958
   45loPI   C4A  714  10.724   8.166   8.228  0.1126  0.3016  0.1855
   45loPI   C5A  715  10.758   8.006   7.789 -0.1578 -0.0401 -0.1974
   45loPI   C6A  716  10.597   7.940   7.474 -0.3101  0.1228 -0.0586
   45loPI   C1B  717   9.684   8.491   9.146 -0.1021 -0.2808 -0.1990
   45loPI   C2B  718   9.779   8.442   8.695 -0.0749  0.2246  0.1582
   45loPI   C3B  719   9.827   8.297   8.418  0.0749  0.0467  0.2992
   45loPI   C4B  720   9.565   8.487   8.083  0.1274 -0.0905  0.0734
   46loPI    C1  721   8.071   1.316   9.617  0.1949  0.1960 -0.1922
   46loPI    C2  722   8.428   1.219   9.769  0.2198  0.1028 -0.3092
   46loPI    C3  723   8.281   1.016   9.456  0.0268  0.0855 -0.2090
   46loPI   PO4  724   8.208   1.669   9.631 -0.5953 -0.1566 -0.0678
   46loPI   GL1  725   8.237   1.959   9.281 -0.1853  0.0497  0.2146
   46loPI   GL2  726   8.407   2.170   9.236  0.1317  0.1766 -0.1014
   46loPI   C1A  727   8.160   1.667   8.911 -0.0047  0.1779 -0.1728
   46loPI   C2A  728   8.046   1.488   8.454  0.0455  0.1933  0.4339
   46loPI   C3A  729   8.138   1.489   7.996 -0.1238 -0.2180 -0.1010
   46loPI   C4A  730   8.334   1.690   7.654 -0.1382 -0.2591 -0.0376
   46loPI   C5A  731   8.345   1.911   7.158  0.0699  0.2572  0.3187
   46loPI   C6A  732   8.661   2.001   6.891  0.0320  0.2694 -0.1048
   46loPI   C1B  733   8.455   2.263   8.759  0.0825 -0.0757  0.2975
   46loPI   C2B  734   8.613   2.116   8.353  0.2171  0.0119  0.2395
   46loPI   C3B  735   8.704   1.949   7.882 -0.0972 -0.1514 -0.1981
   46loPI   C4B  736   8.863   1.704   7.443 -0.0254  0.0645  0.0696
   47loPI    C1  737   5.353   9.521  10.006 -0.1195 -0.0675  0.0437
   47loPI    C2  738   5.577   9.248  10.194 -0.0050  0.0584  0.0918
   47loPI    C3  739   5.380   9.525  10.405  0.0415  0.1371  0.0327
   47loPI   PO4  740   5.299   9.385   9.745 -0.0390 -0.0408  0.0192
   47loPI   GL1  741   5.026   9.594   9.320  0.1113  0.0432  0.1393
   47loPI   GL2  742   5.132   9.281   9.230 -0.1852 -0.1822 -0.0355
   47loPI   C1A  743   5.092   9.910   8.955 -0.0251  0.3425 -0.0815
   47loPI   C2A  744   5.157   9.879   8.545 -0.1456  0.0050  0.1252
   47loPI   C3A  745   5.193   9.633   8.207  0.3398 -0.1869 -0.2639
   47loPI   C4A  746   5.390   9.506   7.849  0.0981 -0.0921  0.2468
   47loPI   C5A  747   5.628   9.547   7.556 -0.0087  0.0330  0.1390
   47loPI   C6A  748   5.761   9.272   7.138 -0.1498 -0.2435 -0.2376
   47loPI   C1B  749   4.994   9.431   8.805 -0.0570 -0.0092  0.3756
   47loPI   C2B  750   4.666   9.700   8.599 -0.2797  0.4336 -0.1222
   47loPI   C3B  751   4.748   9.860   8.233 -0.0054 -0.3373  0.1842
   47loPI   C4B  752   4.954   9.938   7.886 -0.0399  0.1285  0.0321
   48loPI    C1  753   3.695  11.946   9.483  0.0519  0.2832 -0.1747
   48loPI    C2  754   3.979  11.982   9.203  0.2421 -0.1226 -0.0411
   48loPI    C3  755   4.074  12.013   9.591  0.0675 -0.0626 -0.0021
   48loPI   PO4  756   3.496  12.056   9.470  0.0178  0.0338 -0.2746
   48loPI   GL1  757   3.510  12.209   9.077  0.1532  0.0193  0.0955
   48loPI   GL2  758   3.241  12.206   8.906 -0.1032 -0.1250  0.1099
   48loPI   C1A  759   3.737  12.190   8.688 -0.2584  0.0403 -0.1849
   48loPI   C2A  760   3.803  12.297   8.203  0.4034 -0.2919 -0.2132
   48loPI   C3A  761   3.812  12.326   7.873  0.0462 -0.4657  0.2737
   48loPI   C4A  762   3.989  12.574   7.647  0.1665 -0.4095 -0.0366
   48loPI   C5A  763   4.236  12.616   7.226  0.2209  0.0324 -0.0839
   48loPI   C6A  764   4.223  12.753   6.870 -0.3923 -0.4151  0.1545
   48loPI   C1B  765   3.283  12.207   8.483 -0.2471 -0.0274 -0.3071
   48loPI   C2B  766   2.979  12.144   8.076  0.3531 -0.3258  0.1417
   48loPI   C3B  767   2.689  12.018   7.649  0.1205  0.1861 -0.3081
   48loPI   C4B  768   2.365  12.208   7.411  0.2848 -0.0902 -0.2087
   49loPI    C1  769   8.291   8.272  10.025  0.0630 -0.1088  0.0074
   49loPI    C2  770   8.131   8.636  10.066 -0.0224 -0.1795  0.3314
   49loPI    C3  771   8.516   8.575  10.158  0.1575 -0.0471 -0.2857
   49loPI   PO4  772   8.302   8.147   9.736 -0.1990 -0.1727  0.0475
   49loPI   GL1  773   8.415   8.209   9.320 -0.5227 -0.1620  0.0622
   49loPI   GL2  774   8.624   7.998   9.205 -0.0509  0.0808 -0.1204
   49loPI   C1A  775   8.286   8.061   8.873  0.0993 -0.1655  0.0832
   49loPI   C2A  776   8.485   8.043   8.416 -0.2584 -0.0618  0.1344
   49loPI   C3A  777   8.488   7.835   8.052 -0.1172 -0.2150 -0.3254
   49loPI   C4A  778   8.352   7.440   7.855  0.0403  0.2173 -0.1466
   49loPI   C5A  779   8.484   7.207   7.500 -0.0452  0.0883 -0.0938
   49loPI   C6A  780   8.490   6.771   7.526  0.1397 -0.1153 -0.0309
   49loPI   C1B  781   8.844   7.968   8.821  0.1197  0.0731 -0.3697
   49loPI   C2B  782   8.959   7.843   8.376 -0.0996 -0.1897  0.1775
   49loPI   C3B  783   8.933   7.588   7.947  0.0909  0.0116 -0.3155
   49loPI   C4B  784   8.932   7.224   7.615  0.1946 -0.0649  0.2277
   50loPI    C1  785  14.686  14.043  10.454  0.0084  0.2209  0.0730
   50loPI    C2  786  14.488  13.953  10.790  0.0291 -0.0112  0.0246
   50loPI    C3  787  14.746  14.258  10.786 -0.0092  0.0248  0.2053
   50loPI   PO4  788  14.453  14.004  10.265 -0.0905 -0.0438  0.2451
   50loPI   GL1  789  14.435  13.972   9.791  0.0133  0.2000 -0.2233
   50loPI   GL2  790  14.743  13.916   9.647  0.0107 -0.1902  0.3183
   50loPI   C1A  791  14.474  13.576   9.442 -0.2520  0.0025  0.1904
   50loPI   C2A  792  14.493  13.408   9.016  0.4107  0.0826  0.0983
   50loPI   C3A  793  14.523  13.387   8.613  0.0346  0.0120 -0.1231
   50loPI   C4A  794  14.364  13.343   8.228  0.3095  0.2850  0.0716
   50loPI   C5A  795  14.342  13.051   7.773  0.2766 -0.1274  0.1227
   50loPI   C6A  796  14.133  12.652   7.568 -0.1044  0.1263 -0.0357
   50loPI   C1B  797  14.681  14.105   9.280 -0.1135  0.3769 -0.1336
   50loPI   C2B  798  14.581  14.215   8.809  0.3225  0.0678  0.0904
   50loPI   C3B  799  14.512  14.334   8.308 -0.1887  0.1413  0.3004
   50loPI   C4B  800  14.810  14.348   7.937 -0.0196 -0.4924  0.0048
   51loPI    C1  801   6.309   9.126   9.708 -0.0817  0.0914 -0.0495
   51loPI    C2  802   6.431   8.745   9.695 -0.0288  0.1095 -0.0958
   51loPI    C3  803   6.235   8.882  10.016 -0.0317  0.0485 -0.0712
   51loPI   PO4  804   6.157   9.137   9.448 -0.0058  0.1508  0.0627
   51loPI   GL1  805   6.093   9.257   8.985 -0.3293 -0.2387  0.0283
   51loPI   GL2  806   6.439   9.343   9.090 -0.1846 -0.1579 -0.0727
   51loPI   C1A  807   6.162   9.262   8.481  0.2208  0.0075 -0.0470
   51loPI   C2A  808   6.315   9.254   8.069 -0.2233 -0.2442 -0.0630
   51loPI   C3A  809   6.348   8.829   7.808 -0.2706 -0.2390  0.1022
   51loPI   C4A  810   6.295   8.702   7.361  0.1752  0.1463  0.1471
   51loPI   C5A  811   6.348   8.685   6.970  0.0920 -0.1269 -0.1370
   51loPI   C6A  812   6.701   8.848   6.685  0.3472 -0.0552 -0.2170
   51loPI   C1B  813   6.530   9.546   8.702 -0.0057 -0.2944  0.0790
   51loPI   C2B  814   6.703   9.537   8.354 -0.0285  0.1734 -0.0688
   51loPI   C3B  815   6.731   9.659   7.897 -0.1411  0.1942 -0.1141
   51loPI   C4B  816   6.755  10.034   7.695 -0.0720 -0.0001  0.2995
   52loPI    C1  817  15.886   8.679  10.145  0.3599  0.0846  0.1289
   52loPI    C2  818  15.965   9.069  10.106 -0.0807  0.1537 -0.1462
   52loPI    C3  819  15.726   8.942  10.401 -0.1072  0.1166 -0.1835
   52loPI   PO4  820  15.966   8.695   9.797  0.1907  0.2004 -0.1518
   52loPI   GL1  821  16.171   8.658   9.403 -0.1118  0.1120 -0.1569
   52loPI   GL2  822  16.411   8.673   9.122  0.0415  0.0919  0.0993
   52loPI   C1A  823  15.860   8.736   9.030 -0.1055 -0.1288  0.2767
   52loPI   C2A  824  15.844   8.707   8.618 -0.3288  0.0348 -0.0938
   52loPI   C3A  825  15.942   8.580   8.251 -0.1760  0.0314  0.1427
   52loPI   C4A  826  15.918   8.621   7.792 -0.0928 -0.0396  0.0061
   52loPI   C5A  827  15.761   8.921   7.438 -0.2593 -0.0499 -0.0532
   52loPI   C6A  828  15.992   8.921   6.989  0.1049  0.2494  0.0963
   52loPI   C1B  829  16.230   8.466   8.771 -0.2598  0.3505  0.0311
   52loPI   C2B  830  16.382   8.381   8.290 -0.2024 -0.0648 -0.2946
   52loPI   C3B  831  16.364   8.750   7.927  0.2994 -0.1445 -0.1594
   52loPI   C4B  832  16.640   9.060   7.704 -0.0743  0.1713  0.3661
   53loPI    C1  833  14.284  12.862  10.116  0.2203 -0.1831  0.0747
   53loPI    C2  834  13.944  12.668  10.032  0.0705  0.1418 -0.0913
   53loPI    C3  835  14.087  12.670  10.406  0.0723 -0.2747 -0.0842
   53loPI   PO4  836  14.292  13.126   9.967 -0.1378  0.0795 -0.0694
   53loPI   GL1  837  14.403  13.010   9.539  0.2268  0.1067  0.3729
   53loPI   GL2  838  13.993  12.969   9.548  0.0781 -0.1201  0.0691
   53loPI   C1A  839  14.255  12.839   9.160 -0.1374  0.0652  0.0536
   53loPI   C2A  840  14.324  12.779   8.639  0.3304  0.0197 -0.5323
   53loPI   C3A  841  14.491  12.885   8.291  0.2645  0.2270 -0.1458
   53loPI   C4A  842  14.790  13.030   8.083 -0.2505  0.0150 -0.0097
   53loPI   C5A  843  15.013  12.911   7.777 -0.3000  0.1731 -0.0491
   53loPI   C6A  844  15.362  12.704   7.477  0.3094 -0.2450 -0.2232
   53loPI   C1B  845  13.722  12.763   9.337 -0.2066 -0.3618  0.1247
   53loPI   C2B  846  13.816  12.611   8.888  0.1653  0.2666 -0.2188
   53loPI   C3B  847  13.858  12.663   8.455 -0.4221  0.3450  0.0641
   53loPI   C4B  848  14.044  12.564   8.159  0.4800 -0.2202 -0.3576
   54loPI    C1  849   0.857  12.425  10.136  0.1380 -0.1520  0.0419
   54loPI    C2  850   0.652  12.085  10.188 -0.0965 -0.0641 -0.2801
   54loPI    C3  851   0.739  12.316  10.502 -0.1912 -0.2748 -0.0967
   54loPI   PO4  852   0.676  12.455   9.833 -0.1684  0.1614  0.0733
   54loPI   GL1  853   0.662  12.295   9.415  0.0189  0.0719  0.2167
   54loPI   GL2  854   0.752  11.951   9.345 -0.1071 -0.1948 -0.2176
   54loPI   C1A  855   0.859  12.357   9.091 -0.0194  0.0030 -0.3238
   54loPI   C2A  856   1.105  12.605   8.746 -0.2405  0.5332 -0.3906
   54loPI   C3A  857   1.065  12.625   8.367 -0.0388  0.1809  0.3695
   54loPI   C4A  858   1.165  12.760   8.015 -0.2378  0.2296 -0.0623
   54loPI   C5A  859   1.091  13.042   7.723  0.2000  0.0705  0.1926
   54loPI   C6A  860   0.805  13.395   7.796 -0.0684 -0.1302  0.0545
   54loPI   C1B  861   1.149  11.970   9.313 -0.0551  0.1544  0.2656
   54loPI   C2B  862   1.526  11.772   9.048 -0.0854 -0.0269 -0.1298
   54loPI   C3B  863   1.592  11.288   8.914  0.0100 -0.1567  0.1449
   54loPI   C4B  864   1.896  11.182   8.647  0.0179 -0.0516  0.0266
   55loPI    C1  865   7.013  16.178   9.909  0.1942 -0.1402 -0.1768
   55loPI    C2  866   6.887  15.888   9.664  0.1583 -0.3902  0.1320
   55loPI    C3  867   6.643  16.031   9.947  0.1040  0.0903 -0.1475
   55loPI   PO4  868   7.073  16.341   9.716  0.0875  0.1111  0.1517
   55loPI   GL1  869   7.186  16.465   9.280 -0.1572 -0.1567 -0.0787
   55loPI   GL2  870   7.105  16.094   9.195 -0.0220 -0.0543  0.0542
   55loPI   C1A  871   7.295  16.413   8.842 -0.0569 -0.0159  0.0868
   55loPI   C2A  872   7.398  16.439   8.441 -0.0088  0.3629  0.2216
   55loPI   C3A  873   7.494  16.480   8.046 -0.2735  0.2398  0.0726
   55loPI   C4A  874   7.738  16.652   7.769 -0.5023 -0.2639  0.0940
   55loPI   C5A  875   7.798  16.897   7.399  0.0763 -0.2416 -0.1440
   55loPI   C6A  876   8.176  16.984   7.308 -0.1422  0.0044 -0.1483
   55loPI   C1B  877   6.866  16.104   8.844  0.1045  0.0108 -0.2277
   55loPI   C2B  878   6.909  15.865   8.450 -0.1702 -0.0395 -0.0996
   55loPI   C3B  879   6.964  15.767   8.038  0.1446 -0.0064  0.0497
   55loPI   C4B  880   7.234  15.721   7.760  0.2511 -0.3061  0.4305
   56loPI    C1  881  13.727  16.142   9.965 -0.0358  0.0744 -0.1918
   56loPI    C2  882  13.584  16.333  10.287  0.1853  0.0114 -0.0542
   56loPI    C3  883  13.513  15.942  10.237 -0.0396  0.0688 -0.1988
   56loPI   PO4  884  13.985  16.241   9.965  0.0508  0.0932  0.3006
   56loPI   GL1  885  14.035  16.380   9.593 -0.2110  0.2487 -0.4302
   56loPI   GL2  886  13.884  16.026   9.481  0.1824 -0.1661 -0.1078
   56loPI   C1A  887  14.092  16.483   9.186 -0.2855 -0.1994  0.0990
   56loPI   C2A  888  14.187  16.693   8.755 -0.3025 -0.0084  0.3159
   56loPI   C3A  889  14.284  16.804   8.360  0.1259 -0.0948  0.1112
   56loPI   C4A  890  14.348  16.862   7.948 -0.2745  0.1591  0.0989
   56loPI   C5A  891  14.329  17.016   7.554 -0.4322  0.1788  0.0750
   56loPI   C6A  892  14.427  17.415   7.283  0.3218 -0.1427 -0.1193
   56loPI   C1B  893  13.906  16.019   9.006  0.2043 -0.0723 -0.0809
   56loPI   C2B  894  13.878  15.854   8.595  0.0389 -0.1679 -0.3159
   56loPI   C3B  895  14.004  15.793   8.144  0.0390  0.0910  0.1088
   56loPI   C4B  896  13.961  15.763   7.794  0.0635 -0.0781 -0.1143
   57loPI    C1  897  14.864  10.535   9.876  0.3725  0.1164  0.2031
   57loPI    C2  898  14.653  10.498  10.214 -0.0253  0.1340 -0.0367
   57loPI    C3  899  14.797  10.172  10.032 -0.1608  0.0894 -0.0654
   57loPI   PO4  900  14.950  10.742   9.862  0.0612  0.0538 -0.4653
   57loPI   GL1  901  15.045  10.934   9.514 -0.2881 -0.3406  0.0073
   57loPI   GL2  902  14.849  11.179   9.684 -0.0161 -0.2802  0.1581
   57loPI   C1A  903  15.176  11.015   9.139  0.1102 -0.2452 -0.0937
   57loPI   C2A  904  15.166  11.263   8.810  0.0841 -0.0589  0.1495
   57loPI   C3A  905  14.917  11.250   8.511  0.1665  0.2819 -0.1478
   57loPI   C4A  906  14.861  11.421   8.106 -0.1387  0.2339  0.2937
   57loPI   C5A  907  14.678  11.592   7.841  0.1817  0.0753  0.1040
   57loPI   C6A  908  14.596  12.074   7.782  0.0619 -0.0126 -0.2197
   57loPI   C1B  909  14.742  11.521   9.394  0.3035  0.3812  0.2523
   57loPI   C2B  910  14.895  11.866   9.306 -0.3286 -0.1885 -0.2855
   57loPI   C3B  911  14.861  12.172   9.100 -0.0067  0.0210 -0.2216
   57loPI   C4B  912  15.032  12.225   8.739  0.1395 -0.0882  0.4502
   58loPI    C1  913   7.606  12.634   9.727 -0.0604  0.1473 -0.1529
   58loPI    C2  914   7.593  12.712  10.119 -0.4173 -0.1448 -0.1023
   58loPI    C3  915   7.878  12.473   9.972 -0.2641 -0.0097 -0.0277
   58loPI   PO4  916   7.454  12.914   9.598 -0.4463  0.1574  0.0588
   58loPI   GL1  917   7.436  12.872   9.229  0.5184  0.0142 -0.0621
   58loPI   GL2  918   7.323  13.169   9.159  0.0167 -0.1622 -0.0825
   58loPI   C1A  919   7.490  12.832   8.778 -0.0132 -0.1819  0.4030
   58loPI   C2A  920   7.548  12.964   8.315  0.2606  0.2010  0.1128
   58loPI   C3A  921   7.766  13.090   7.918  0.3409  0.1973 -0.2039
   58loPI   C4A  922   7.736  13.178   7.491  0.5350  0.2721  0.0373
   58loPI   C5A  923   7.924  13.414   7.196  0.2036  0.0018  0.1212
   58loPI   C6A  924   7.655  13.504   6.816 -0.1016 -0.0470  0.1561
   58loPI   C1B  925   7.639  13.321   8.856 -0.2244  0.3993  0.0405
   58loPI   C2B  926   7.777  13.523   8.520  0.3432 -0.1517  0.0004
   58loPI   C3B  927   7.672  13.679   8.030  0.1130  0.1598 -0.3158
   58loPI   C4B  928   7.799  13.713   7.560  0.4101  0.0199 -0.2657
   59loPI    C1  929  15.201  11.237  10.161  0.1187 -0.0596  0.1341
   59loPI    C2  930  14.954  11.527  10.039 -0.0281 -0.2898 -0.1288
   59loPI    C3  931  15.093  11.528  10.414 -0.0455  0.1035 -0.1186
   59loPI   PO4  932  15.321  11.154   9.941  0.1125  0.2278 -0.1267
   59loPI   GL1  933  15.238  11.495   9.644  0.0096  0.2325 -0.0565
   59loPI   GL2  934  15.246  11.879   9.716  0.0894  0.1888  0.0199
   59loPI   C1A  935  15.300  11.476   9.219  0.1879  0.0276  0.0380
   59loPI   C2A  936  15.519  11.628   8.807  0.1771 -0.0600  0.0424
   59loPI   C3A  937  15.457  11.492   8.493  0.1821 -0.2120 -0.2355
   59loPI   C4A  938  15.381  11.464   8.009 -0.1265 -0.2432  0.0995
   59loPI   C5A  939  15.137  11.370   7.686  0.0700  0.2172  0.1038
   59loPI   C6A  940  14.956  11.084   7.357 -0.1334  0.3448  0.0857
   59loPI   C1B  941  15.351  12.012   9.229  0.1653  0.0853 -0.2887
   59loPI   C2B  942  15.463  12.204   8.921  0.0314 -0.0280 -0.0644
   59loPI   C3B  943  15.494  12.312   8.500  0.2137 -0.1137 -0.0892
   59loPI   C4B  944  15.473  12.357   8.085 -0.1255 -0.1312 -0.0527
   60loPI    C1  945   9.794   5.367  10.120  0.0058 -0.1550 -0.2093
   60loPI    C2  946   9.441   5.466  10.280  0.1367  0.0540 -0.0444
   60loPI    C3  947   9.591   5.100  10.337 -0.1019 -0.0711 -0.2059
   60loPI   PO4  948   9.765   5.469   9.848 -0.1343  0.0500 -0.0510
   60loPI   GL1  949   9.846   5.337   9.467 -0.0165  0.2365  0.0216
   60loPI   GL2  950   9.978   5.604   9.245 -0.0489 -0.0202 -0.3690
   60loPI   C1A  951   9.769   5.239   8.978 -0.0998 -0.1008 -0.1060
   60loPI   C2A  952   9.786   5.182   8.562 -0.2782 -0.1507 -0.0652
   60loPI   C3A  953   9.877   5.324   8.195  0.0946  0.0600 -0.0494
   60loPI   C4A  954   9.826   5.320   7.807  0.0407 -0.2468  0.0326
   60loPI   C5A  955   9.637   5.205   7.424 -0.1443  0.2024 -0.1784
   60loPI   C6A  956   9.676   5.273   6.979  0.0620 -0.2056 -0.2124
   60loPI   C1B  957  10.069   5.578   8.762  0.0183  0.0395  0.0110
   60loPI   C2B  958  10.189   5.745   8.272  0.1489  0.0207 -0.2765
   60loPI   C3B  959  10.032   5.718   7.865  0.3052 -0.2519  0.1364
   60loPI   C4B  960   9.980   5.651   7.466 -0.2810 -0.2245  0.3368
   61loPI    C1  961  18.825  14.577  10.063  0.0808  0.3624  0.2147
   61loPI    C2  962  18.923  14.888   9.830  0.1690  0.0707 -0.1474
   61loPI    C3  963  19.137  14.550   9.814 -0.0863 -0.1044  0.0444
   61loPI   PO4  964  18.579  14.605  10.104  0.0338 -0.2747 -0.0523
   61loPI   GL1  965  18.317  14.758   9.839 -0.1213 -0.0529 -0.0720
   61loPI   GL2  966  18.418  15.034   9.665  0.0931  0.4179  0.2101
   61loPI   C1A  967  18.240  14.664   9.397  0.2315 -0.2050  0.1793
   61loPI   C2A  968  18.190  14.656   8.926  0.0786  0.1596  0.1758
   61loPI   C3A  969  17.973  14.574   8.516 -0.1415  0.4279 -0.2213
   61loPI   C4A  970  17.992  14.750   8.130  0.3620 -0.1306  0.0592
   61loPI   C5A  971  17.953  14.793   7.711  0.0343  0.1114 -0.1965
   61loPI   C6A  972  17.944  15.007   7.382  0.1257 -0.1355 -0.0739
   61loPI   C1B  973  18.444  15.098   9.125 -0.1459 -0.1210  0.2000
   61loPI   C2B  974  18.671  14.917   8.790  0.2096  0.0015 -0.0858
   61loPI   C3B  975  18.870  14.731   8.492  0.0011 -0.5840  0.0327
   61loPI   C4B  976  19.044  14.845   8.128 -0.1957  0.1739 -0.0873
   62loPI    C1  977   5.833  13.033   9.651  0.0524  0.0380  0.0196
   62loPI    C2  978   6.058  13.208   9.931 -0.0848  0.1332  0.0718
   62loPI    C3  979   5.661  13.193   9.975 -0.0864 -0.0683 -0.0005
   62loPI   PO4  980   5.898  13.183   9.457  0.0690  0.2969 -0.1298
   62loPI   GL1  981   5.974  13.500   9.250  0.1620 -0.3691  0.2298
   62loPI   GL2  982   5.730  13.534   9.031  0.2040  0.0056 -0.3138
   62loPI   C1A  983   6.320  13.466   8.847 -0.1571  0.0328 -0.0461
   62loPI   C2A  984   6.588  13.385   8.637  0.0086  0.3736 -0.0146
   62loPI   C3A  985   6.824  13.347   8.261 -0.1872  0.1221  0.4423
   62loPI   C4A  986   6.889  13.244   7.761 -0.3172 -0.2549 -0.2629
   62loPI   C5A  987   7.027  13.166   7.414  0.1597  0.0327  0.3075
   62loPI   C6A  988   7.075  13.159   6.963 -0.1993 -0.1063 -0.0655
   62loPI   C1B  989   5.886  13.514   8.616 -0.2541  0.1355  0.0772
   62loPI   C2B  990   6.197  13.557   8.312  0.0989 -0.2481 -0.2022
   62loPI   C3B  991   6.364  13.472   7.964  0.1585 -0.1374  0.3938
   62loPI   C4B  992   6.528  13.538   7.525  0.0636 -0.1636  0.2807
   63loPI    C1  993  15.776  10.460   9.932  0.0003  0.0202 -0.0947
   63loPI    C2  994  16.150  10.531  10.053 -0.0579  0.1949 -0.0140
   63loPI    C3  995  15.856  10.499  10.322 -0.0649 -0.1717 -0.0611
   63loPI   PO4  996  15.806  10.383   9.691 -0.0918 -0.1156 -0.1394
   63loPI   GL1  997  15.626  10.214   9.384 -0.1174 -0.2671 -0.0049
   63loPI   GL2  998  15.813   9.979   9.295  0.2148 -0.2411  0.3023
   63loPI   C1A  999  15.472  10.140   8.926 -0.0543 -0.1160 -0.0940
   63loPI   C2A 1000  15.415  10.294   8.561  0.0181  0.0143 -0.1962
   63loPI   C3A 1001  15.431  10.496   8.208  0.2550 -0.0049  0.0736
   63loPI   C4A 1002  15.541  10.306   7.793 -0.0419  0.0350  0.0577
   63loPI   C5A 1003  15.714  10.286   7.353  0.1654  0.3837  0.0124
   63loPI   C6A 1004  15.713  10.584   7.058 -0.1102 -0.3777  0.0151
   63loPI   C1B 1005  15.866   9.954   8.764 -0.0529  0.0806 -0.1057
   63loPI   C2B 1006  16.034   9.759   8.409 -0.0673 -0.0367 -0.0057
   63loPI   C3B 1007  16.215   9.627   8.003 -0.3380  0.1768  0.0678
   63loPI   C4B 1008  16.469   9.515   7.606  0.0537 -0.0021 -0.0604
   64loPI    C1 1009   0.779  15.939  10.695 -0.1026 -0.2945  0.0111
   64loPI    C2 1010   1.142  16.078  10.790 -0.2336  0.1656 -0.1371
   64loPI    C3 1011   1.046  15.698  10.870  0.3176  0.0052 -0.2007
   64loPI   PO4 1012   0.592  15.955  10.528 -0.1388 -0.2236 -0.0825
   64loPI   GL1 1013   0.630  15.794  10.075  0.1408  0.0506  0.0563
   64loPI   GL2 1014   0.424  15.647   9.930  0.3980  0.0209  0.2992
   64loPI   C1A 1015   0.741  15.991   9.666  0.0080 -0.0570 -0.0440
   64loPI   C2A 1016   0.480  16.097   9.204  0.1330  0.0391  0.2468
   64loPI   C3A 1017   0.413  16.345   8.872  0.0028 -0.0395  0.0780
   64loPI   C4A 1018   0.620  16.425   8.480 -0.1291 -0.0078 -0.0850
   64loPI   C5A 1019   0.543  16.324   8.093 -0.0648  0.2161  0.0029
   64loPI   C6A 1020   0.738  16.274   7.829 -0.0201 -0.2612 -0.0499
   64loPI   C1B 1021   0.473  15.603   9.480 -0.0707  0.0926 -0.1148
   64loPI   C2B 1022   0.668  15.553   9.225  0.2745 -0.0621  0.2074
   64loPI   C3B 1023   0.571  15.723   8.889  0.1217  0.0673  0.2620
   64loPI   C4B 1024   0.380  15.886   8.524 -0.3073  0.1014 -0.0581
   65loPI    C1 1025   8.529   3.125   9.834 -0.0237 -0.1941  0.1294
   65loPI    C2 1026   8.701   2.764   9.843 -0.2670 -0.3058  0.5731
   65loPI    C3 1027   8.736   3.010  10.156  0.0697  0.1461  0.1946
   65loPI   PO4 1028   8.321   3.104   9.591  0.1019  0.0399  0.0010
   65loPI   GL1 1029   8.193   3.216   9.246  0.0875  0.4652  0.2730
   65loPI   GL2 1030   7.942   3.173   8.993 -0.0744 -0.0674 -0.0248
   65loPI   C1A 1031   8.392   3.190   8.800 -0.2049 -0.0561 -0.1561
   65loPI   C2A 1032   8.508   3.186   8.380  0.1912  0.2462  0.0569
   65loPI   C3A 1033   8.717   3.322   8.069  0.2515 -0.0494  0.0394
   65loPI   C4A 1034   8.744   3.467   7.686 -0.1861  0.0759  0.0887
   65loPI   C5A 1035   8.885   3.494   7.305  0.0973  0.1140  0.0878
   65loPI   C6A 1036   9.040   3.473   6.929 -0.4409  0.0536 -0.1502
   65loPI   C1B 1037   7.937   3.124   8.572 -0.5101  0.3932 -0.1766
   65loPI   C2B 1038   7.747   2.864   8.319 -0.1873 -0.1760  0.1011
   65loPI   C3B 1039   7.750   2.646   8.034  0.0306  0.4772  0.0709
   65loPI   C4B 1040   7.999   2.633   7.652 -0.0491 -0.2092  0.0542
   66loPI    C1 1041   4.916  13.480   9.751  0.2477 -0.0691 -0.1747
   66loPI    C2 1042   5.210  13.472  10.023 -0.0543  0.0198  0.1624
   66loPI    C3 1043   4.868  13.278  10.093 -0.0976 -0.0433 -0.2050
   66loPI   PO4 1044   4.973  13.464   9.524  0.1148 -0.0132  0.2992
   66loPI   GL1 1045   5.237  13.722   9.233  0.0589 -0.1293 -0.3416
   66loPI   GL2 1046   4.876  13.568   9.052 -0.1170 -0.0236 -0.1556
   66loPI   C1A 1047   5.069  13.968   8.886 -0.3438 -0.0040 -0.0252
   66loPI   C2A 1048   5.115  13.898   8.408  0.0789 -0.0869  0.0044
   66loPI   C3A 1049   5.223  13.791   7.887 -0.0802  0.1414 -0.1293
   66loPI   C4A 1050   5.412  13.657   7.451  0.0320 -0.5961 -0.1823
   66loPI   C5A 1051   5.602  13.378   7.136  0.0161 -0.1176  0.3672
   66loPI   C6A 1052   5.629  13.030   7.101 -0.1828  0.0486  0.2148
   66loPI   C1B 1053   4.831  13.570   8.621  0.0790 -0.1671 -0.1817
   66loPI   C2B 1054   4.805  13.621   8.157 -0.0434  0.0216  0.1176
   66loPI   C3B 1055   4.731  13.906   7.716  0.1817  0.3625 -0.3553
   66loPI   C4B 1056   4.964  13.997   7.443  0.1760  0.0872  0.0340
   67loPI    C1 1057  14.029   1.406   9.376 -0.5642  0.1934  0.0557
   67loPI    C2 1058  14.062   1.087   9.614 -0.0212  0.1579 -0.0537
   67loPI    C3 1059  14.183   1.445   9.743  0.1107  0.1709 -0.2114
   67loPI   PO4 1060  13.876   1.314   9.202 -0.1672 -0.2113  0.0562
   67loPI   GL1 1061  13.715   1.273   8.787 -0.2885  0.0266 -0.2603
   67loPI   GL2 1062  13.960   0.988   8.811 -0.1503 -0.0514  0.0894
   67loPI   C1A 1063  13.407   1.024   8.657  0.2268  0.0138  0.0380
   67loPI   C2A 1064  13.109   1.156   8.328 -0.0290  0.2648  0.3443
   67loPI   C3A 1065  12.970   1.341   8.006  0.1075 -0.2907  0.2109
   67loPI   C4A 1066  13.064   1.749   7.807 -0.1148  0.0809 -0.0550
   67loPI   C5A 1067  12.982   2.048   7.421 -0.0249  0.0129  0.1769
   67loPI   C6A 1068  12.988   2.292   6.900  0.1593 -0.1028  0.2423
   67loPI   C1B 1069  14.424   0.930   8.785  0.1035  0.0128 -0.3130
   67loPI   C2B 1070  14.837   0.988   8.746 -0.2540 -0.1813  0.0432
   67loPI   C3B 1071  15.066   1.129   8.377 -0.0346  0.0790 -0.3370
   67loPI   C4B 1072  14.938   1.456   8.059  0.3134  0.1880 -0.0944
   68loPI    C1 1073  14.584   8.094  10.133  0.2581 -0.0439 -0.0221
   68loPI    C2 1074  14.554   7.935  10.499 -0.0049 -0.1738 -0.0975
   68loPI    C3 1075  14.397   8.296  10.424  0.0141 -0.1645 -0.0921
   68loPI   PO4 1076  14.483   8.014   9.938  0.0121 -0.2212  0.2336
   68loPI   GL1 1077  14.336   8.229   9.547  0.1603 -0.0190  0.0782
   68loPI   GL2 1078  14.542   8.495   9.615  0.0889  0.1880  0.0456
   68loPI   C1A 1079  14.389   8.309   9.167  0.0190  0.1083 -0.0747
   68loPI   C2A 1080  14.458   8.368   8.743  0.0864  0.1696 -0.1480
   68loPI   C3A 1081  14.461   8.639   8.377 -0.2729  0.3038 -0.1457
   68loPI   C4A 1082  14.545   8.766   8.001  0.1595  0.0277  0.1162
   68loPI   C5A 1083  14.296   8.672   7.646 -0.0556  0.1484  0.3277
   68loPI   C6A 1084  14.169   9.040   7.406 -0.0715  0.1331 -0.0067
   68loPI   C1B 1085  14.895   8.524   9.302  0.0964  0.0566 -0.0658
   68loPI   C2B 1086  15.102   8.525   8.896 -0.0063 -0.0711  0.1549
   68loPI   C3B 1087  14.972   8.656   8.491 -0.0685 -0.0003  0.4025
   68loPI   C4B 1088  14.816   9.016   8.271  0.2337  0.1169 -0.2488
   69loPI    C1 1089  11.827   4.466   9.545 -0.0069  0.2126  0.1903
   69loPI    C2 1090  12.108   4.525   9.823 -0.0507  0.0389  0.2723
   69loPI    C3 1091  11.760   4.720   9.847 -0.0545  0.0243  0.3395
   69loPI   PO4 1092  12.026   4.528   9.322  0.1481  0.2513 -0.0952
   69loPI   GL1 1093  11.953   4.498   8.953 -0.0906  0.2278 -0.3722
   69loPI   GL2 1094  11.620   4.483   8.869  0.3060  0.0741  0.4490
   69loPI   C1A 1095  12.181   4.351   8.602 -0.1300 -0.1516 -0.0620
   69loPI   C2A 1096  11.985   4.329   8.209 -0.2740  0.1876  0.3096
   69loPI   C3A 1097  11.918   4.022   7.925 -0.2148 -0.2279  0.2730
   69loPI   C4A 1098  11.958   3.851   7.605 -0.0758 -0.0852  0.0813
   69loPI   C5A 1099  11.723   4.161   7.254 -0.1334 -0.2158  0.1903
   69loPI   C6A 1100  11.835   4.590   7.125 -0.0944 -0.1105 -0.0769
   69loPI   C1B 1101  11.706   4.564   8.522  0.2434 -0.0699  0.2449
   69loPI   C2B 1102  11.586   4.669   8.163  0.3631  0.1203  0.1186
   69loPI   C3B 1103  11.659   4.866   7.740  0.2153 -0.2295  0.2327
   69loPI   C4B 1104  11.685   5.019   7.430 -0.0170 -0.3104  0.0345
   70loPI    C1 1105   7.504   7.688  10.272 -0.1506  0.0878  0.1846
   70loPI    C2 1106   7.466   7.699  10.670  0.2277 -0.1347  0.2317
   70loPI    C3 1107   7.827   7.737  10.503  0.0782 -0.0962 -0.0897
   70loPI   PO4 1108   7.388   7.895  10.225  0.1355 -0.1418  0.0993
   70loPI   GL1 1109   7.243   7.823   9.704 -0.0643  0.1631 -0.3618
   70loPI   GL2 1110   6.971   7.717   9.642  0.3566 -0.2606  0.0433
   70loPI   C1A 1111   7.340   8.117   9.306 -0.1343  0.0415  0.1721
   70loPI   C2A 1112   7.310   7.982   8.896  0.2386 -0.0246  0.1662
   70loPI   C3A 1113   7.058   7.674   8.609  0.1641 -0.0554 -0.0877
   70loPI   C4A 1114   6.890   7.493   8.255 -0.1275 -0.1280 -0.2094
   70loPI   C5A 1115   6.642   7.599   8.040 -0.0581 -0.1828 -0.1744
   70loPI   C6A 1116   6.342   7.838   7.765  0.0149 -0.0164 -0.4352
   70loPI   C1B 1117   6.929   7.615   9.067  0.0119  0.3164  0.0292
   70loPI   C2B 1118   6.624   7.430   8.754  0.2226 -0.1349 -0.1106
   70loPI   C3B 1119   6.415   7.345   8.425 -0.2623 -0.0567 -0.1781
   70loPI   C4B 1120   5.989   7.121   8.351  0.1737  0.0288 -0.0084
   71loPI    C1 1121  19.132   1.591  10.213 -0.1459 -0.1420 -0.1011
   71loPI    C2 1122  18.732   1.615  10.217 -0.1428 -0.1050  0.0503
   71loPI    C3 1123  18.943   1.730  10.537 -0.0056 -0.0395 -0.0622
   71loPI   PO4 1124  19.188   1.694   9.967 -0.0730  0.1619  0.1041
   71loPI   GL1 1125  19.124   2.128   9.759  0.1143  0.0686 -0.1165
   71loPI   GL2 1126  19.227   2.341   9.583 -0.2459 -0.1964  0.1688
   71loPI   C1A 1127  19.195   1.935   9.293 -0.1911  0.1068 -0.0917
   71loPI   C2A 1128  19.387   1.779   8.863 -0.0519 -0.0682  0.0414
   71loPI   C3A 1129  19.605   1.601   8.516  0.2606  0.0638 -0.0668
   71loPI   C4A 1130  19.640   1.680   8.137  0.0102  0.1066  0.1689
   71loPI   C5A 1131  19.744   1.511   7.743  0.0244  0.2366  0.1587
   71loPI   C6A 1132  19.913   1.049   7.648  0.0065 -0.2312  0.2887
   71loPI   C1B 1133  19.064   2.455   9.232  0.2240  0.1802  0.1368
   71loPI   C2B 1134  18.983   2.496   8.799 -0.2334  0.1256 -0.2134
   71loPI   C3B 1135  19.056   2.384   8.355  0.0183 -0.1030 -0.0500
   71loPI   C4B 1136  19.322   2.355   8.042 -0.0577  0.2694  0.0016
   72loPI    C1 1137   4.428  10.941   9.720 -0.2651 -0.1839 -0.0006
   72loPI    C2 1138   4.525  10.554   9.749 -0.1795 -0.1552  0.1040
   72loPI    C3 1139   4.695  10.821   9.993 -0.2184 -0.0478  0.0144
   72loPI   PO4 1140   4.192  10.943   9.728  0.1956 -0.0786 -0.1031
   72loPI   GL1 1141   4.007  10.765   9.334 -0.0793  0.2097  0.0872
   72loPI   GL2 1142   4.288  10.654   9.308  0.1734 -0.0608 -0.0692
   72loPI   C1A 1143   4.002  10.852   8.854  0.0931 -0.0327 -0.4935
   72loPI   C2A 1144   3.898  10.818   8.393 -0.1662  0.0502  0.1032
   72loPI   C3A 1145   3.895  10.709   7.934 -0.0926 -0.0466 -0.0358
   72loPI   C4A 1146   3.713  10.733   7.481  0.2999  0.1208  0.2034
   72loPI   C5A 1147   3.615  10.498   7.098 -0.0324  0.0062  0.1966
   72loPI   C6A 1148   3.288  10.475   6.763 -0.0858 -0.5121  0.1567
   72loPI   C1B 1149   4.491  10.627   8.929 -0.0066  0.1095 -0.3657
   72loPI   C2B 1150   4.661  11.004   8.642  0.0916 -0.0956 -0.1568
   72loPI   C3B 1151   4.975  11.174   8.311  0.1280 -0.0196 -0.1052
   72loPI   C4B 1152   5.290  11.172   7.954 -0.1026  0.1013 -0.3198
   73loPI    C1 1153  16.167   0.424  10.092  0.0982  0.2154  0.1775
   73loPI    C2 1154  16.031   0.150  10.350 -0.0991  0.1174 -0.0276
   73loPI    C3 1155  16.368   0.350  10.430  0.0798 -0.2266  0.0978
   73loPI   PO4 1156  16.005   0.284   9.830  0.0725  0.1648 -0.3248
   73loPI   GL1 1157  15.858   0.094   9.470  0.0518 -0.1973 -0.0058
   73loPI   GL2 1158  15.620  -0.025   9.383  0.0587  0.0257  0.0450
   73loPI   C1A 1159  16.190   0.175   9.176  0.0159  0.1430  0.0355
   73loPI   C2A 1160  16.368   0.401   8.846  0.1079  0.0942 -0.4451
   73loPI   C3A 1161  16.435   0.408   8.412 -0.2379  0.0656 -0.0340
   73loPI   C4A 1162  16.390   0.480   8.023  0.0360 -0.0051  0.1033
   73loPI   C5A 1163  16.056   0.416   7.659  0.0430 -0.0375 -0.0465
   73loPI   C6A 1164  15.869   0.415   7.299 -0.1739 -0.0955 -0.4970
   73loPI   C1B 1165  15.721  -0.087   8.971 -0.0449  0.1041  0.3334
   73loPI   C2B 1166  15.939  -0.276   8.627 -0.2154 -0.1242 -0.0550
   73loPI   C3B 1167  15.794  -0.361   8.231 -0.1191  0.1164  0.2407
   73loPI   C4B 1168  15.637  -0.593   7.879 -0.2176  0.0465  0.0382
   74loPI    C1 1169   8.889   0.385  10.218 -0.0336 -0.0205 -0.2532
   74loPI    C2 1170   8.686   0.041  10.192  0.0777 -0.1052 -0.0313
   74loPI    C3 1171   8.559   0.329  10.438  0.0368 -0.0229 -0.1476
   74loPI   PO4 1172   8.972   0.434   9.947  0.2671 -0.2410 -0.0693
   74loPI   GL1 1173   8.951   0.430   9.531 -0.2365  0.0432 -0.3438
   74loPI   GL2 1174   8.724   0.678   9.471  0.1249  0.1387  0.0636
   74loPI   C1A 1175   9.041   0.584   9.046  0.1098  0.0315 -0.1168
   74loPI   C2A 1176   8.740   0.740   8.747 -0.2453 -0.0302  0.0521
   74loPI   C3A 1177   8.320   0.738   8.857 -0.3614 -0.0063 -0.1305
   74loPI   C4A 1178   7.998   0.640   8.593 -0.3105 -0.0270 -0.0451
   74loPI   C5A 1179   8.051   0.497   8.229  0.2812  0.3670 -0.1003
   74loPI   C6A 1180   8.319   0.473   7.883  0.0909  0.1730 -0.0785
   74loPI   C1B 1181   8.365   0.560   9.271  0.0750 -0.1318 -0.0606
   74loPI   C2B 1182   8.135   0.244   9.068 -0.2705 -0.2303 -0.0168
   74loPI   C3B 1183   7.854   0.183   8.680 -0.2071  0.1470  0.1509
   74loPI   C4B 1184   7.694   0.100   8.206 -0.1831  0.1350  0.1683
   75loPI    C1 1185  14.996   9.375  10.065  0.3178 -0.1043  0.1374
   75loPI    C2 1186  14.676   9.140  10.114  0.1886  0.0330 -0.0320
   75loPI    C3 1187  14.859   9.300  10.433  0.1337 -0.1050  0.0696
   75loPI   PO4 1188  15.118   9.237   9.835  0.1335  0.4329  0.0126
   75loPI   GL1 1189  15.174   9.373   9.495 -0.0468 -0.1070 -0.3617
   75loPI   GL2 1190  15.358   9.280   9.255  0.1531 -0.0245 -0.1189
   75loPI   C1A 1191  14.900   9.505   9.083 -0.1176 -0.0503  0.2970
   75loPI   C2A 1192  14.726   9.633   8.757 -0.0627  0.1515  0.1125
   75loPI   C3A 1193  14.690   9.599   8.318 -0.1889 -0.0239 -0.0156
   75loPI   C4A 1194  14.662   9.403   7.986 -0.0391 -0.1017  0.0804
   75loPI   C5A 1195  14.854   9.033   7.744 -0.0217 -0.2282  0.3491
   75loPI   C6A 1196  15.268   8.820   7.609 -0.1429  0.1474  0.0803
   75loPI   C1B 1197  15.760   9.404   9.067  0.2752 -0.1458  0.0787
   75loPI   C2B 1198  16.125   9.536   8.897 -0.0525  0.0155 -0.0628
   75loPI   C3B 1199  16.359   9.399   8.475  0.2905 -0.3170  0.1528
   75loPI   C4B 1200  16.458   9.216   8.101  0.3022  0.2813  0.1197
   76loPI    C1 1201  12.551  17.927   9.572 -0.0755 -0.3255 -0.4501
   76loPI    C2 1202  12.855  18.149   9.434 -0.0003 -0.0616  0.1132
   76loPI    C3 1203  12.901  17.754   9.484  0.0821 -0.1039 -0.2705
   76loPI   PO4 1204  12.335  18.054   9.467 -0.0014 -0.4042 -0.4885
   76loPI   GL1 1205  12.425  18.264   9.040  0.2342 -0.3111  0.0494
   76loPI   GL2 1206  12.145  18.390   9.126 -0.2622  0.0960  0.2617
   76loPI   C1A 1207  12.199  17.894   8.903  0.1162 -0.0675 -0.0973
   76loPI   C2A 1208  12.079  17.777   8.490 -0.1050  0.0240 -0.1420
   76loPI   C3A 1209  11.961  17.418   8.206 -0.1743  0.0308  0.1469
   76loPI   C4A 1210  11.785  17.362   7.835  0.4092  0.2691  0.0805
   76loPI   C5A 1211  11.669  17.620   7.502 -0.0957 -0.2661 -0.3039
   76loPI   C6A 1212  11.566  17.872   7.214  0.0377 -0.3960 -0.1190
   76loPI   C1B 1213  11.921  18.428   8.732 -0.1147 -0.0873  0.0222
   76loPI   C2B 1214  11.797  18.171   8.408 -0.0683  0.2717 -0.5189
   76loPI   C3B 1215  11.471  18.315   8.094 -0.1688 -0.3372  0.1878
   76loPI   C4B 1216  11.307  18.735   8.104 -0.2756 -0.0679  0.1303
   77loPI    C1 1217   7.987  12.036  10.201 -0.0439  0.2755  0.1074
   77loPI    C2 1218   8.154  11.990  10.562 -0.1422  0.2627  0.1515
   77loPI    C3 1219   7.883  11.726  10.432 -0.0228  0.2033  0.0205
   77loPI   PO4 1220   8.194  12.028  10.047  0.1634 -0.1192  0.1255
   77loPI   GL1 1221   8.383  12.464   9.835 -0.1057  0.1867  0.0959
   77loPI   GL2 1222   8.110  12.394   9.529  0.0812  0.0375  0.2752
   77loPI   C1A 1223   8.636  12.593   9.444  0.2283  0.1574 -0.0628
   77loPI   C2A 1224   8.747  12.592   8.931 -0.0875 -0.2449  0.2948
   77loPI   C3A 1225   8.769  12.570   8.588 -0.1752 -0.0835  0.1765
   77loPI   C4A 1226   8.923  12.727   8.163  0.3089  0.1667  0.2279
   77loPI   C5A 1227   8.969  12.801   7.681  0.1052  0.3407  0.0252
   77loPI   C6A 1228   9.328  12.803   7.387  0.1414 -0.2474 -0.0231
   77loPI   C1B 1229   8.230  12.533   9.143 -0.0747  0.1318  0.0148
   77loPI   C2B 1230   8.252  12.503   8.677  0.1416 -0.3656 -0.0228
   77loPI   C3B 1231   8.295  12.554   8.278 -0.1275  0.1612  0.2252
   77loPI   C4B 1232   8.572  12.381   7.999 -0.1680  0.0124  0.1770
   78loPI    C1 1233   6.956  17.835   9.910 -0.4346  0.0668  0.1181
   78loPI    C2 1234   6.714  17.688  10.193 -0.2330  0.0862  0.3029
   78loPI    C3 1235   7.020  17.926  10.294 -0.1087  0.0256  0.0768
   78loPI   PO4 1236   6.823  17.888   9.730 -0.2679  0.2430  0.1817
   78loPI   GL1 1237   6.789  18.156   9.516 -0.4997  0.1565  0.0968
   78loPI   GL2 1238   7.049  17.998   9.325 -0.2180  0.1403 -0.1036
   78loPI   C1A 1239   6.536  18.118   9.159 -0.0256  0.1095  0.1314
   78loPI   C2A 1240   6.344  18.344   8.887 -0.0583  0.1274 -0.1140
   78loPI   C3A 1241   6.258  18.625   8.604  0.2437 -0.1378  0.1822
   78loPI   C4A 1242   6.163  18.726   8.191  0.1790  0.1122  0.0719
   78loPI   C5A 1243   6.064  18.968   7.868  0.0225 -0.2322  0.0542
   78loPI   C6A 1244   6.318  19.366   7.715 -0.2054 -0.0735 -0.2434
   78loPI   C1B 1245   7.000  18.031   8.878  0.1444 -0.2549  0.1528
   78loPI   C2B 1246   6.748  18.238   8.533 -0.3504 -0.0138 -0.0776
   78loPI   C3B 1247   6.681  18.578   8.271 -0.1505 -0.1638  0.0671
   78loPI   C4B 1248   6.537  18.618   7.772 -0.3435 -0.2393 -0.0840
   79loPI    C1 1249  18.900   5.302   9.679  0.1151 -0.0130 -0.0763
   79loPI    C2 1250  18.654   5.111   9.428  0.1537 -0.1251 -0.0291
   79loPI    C3 1251  18.641   5.032   9.820  0.2222 -0.0862 -0.0188
   79loPI   PO4 1252  19.163   5.205   9.501  0.0270 -0.0891 -0.0804
   79loPI   GL1 1253  19.050   5.086   9.130  0.0292  0.0524 -0.2193
   79loPI   GL2 1254  18.822   5.296   8.980  0.1576  0.1989  0.4248
   79loPI   C1A 1255  18.808   4.800   8.887  0.1994 -0.2811 -0.0862
   79loPI   C2A 1256  18.757   4.529   8.508  0.2722 -0.3143  0.2687
   79loPI   C3A 1257  18.344   4.514   8.226 -0.0486 -0.0809 -0.1199
   79loPI   C4A 1258  18.358   4.485   7.791 -0.1485 -0.2561  0.0842
   79loPI   C5A 1259  18.803   4.524   7.566  0.0015  0.0839  0.0504
   79loPI   C6A 1260  19.227   4.509   7.481  0.1826  0.0143 -0.2712
   79loPI   C1B 1261  19.036   5.183   8.574 -0.0317 -0.3370 -0.0362
   79loPI   C2B 1262  18.967   5.339   8.181  0.1420 -0.3552 -0.1373
   79loPI   C3B 1263  18.995   5.425   7.672  0.3477 -0.1541  0.0567
   79loPI   C4B 1264  18.862   5.506   7.238  0.2176 -0.0943 -0.0779
   80loPI    C1 1265   1.343   2.989  10.488  0.0522 -0.1058 -0.1467
   80loPI    C2 1266   1.115   2.663  10.528 -0.2964  0.1456 -0.0309
   80loPI    C3 1267   1.445   2.704  10.749 -0.4639  0.0488  0.2417
   80loPI   PO4 1268   1.281   3.092  10.264  0.0803  0.0374 -0.1163
   80loPI   GL1 1269   1.303   2.887   9.831 -0.0939  0.0114  0.1491
   80loPI   GL2 1270   1.574   2.794   9.860 -0.1819 -0.2490  0.2778
   80loPI   C1A 1271   1.239   2.924   9.298 -0.0481  0.1637  0.3082
   80loPI   C2A 1272   1.186   2.932   8.809  0.1661  0.0649  0.3578
   80loPI   C3A 1273   1.281   2.828   8.429  0.0542  0.2132 -0.0427
   80loPI   C4A 1274   1.246   2.502   8.025  0.0233 -0.0771 -0.0947
   80loPI   C5A 1275   1.035   2.091   8.033  0.2598  0.1725 -0.1976
   80loPI   C6A 1276   0.897   1.884   7.752 -0.1566 -0.2803 -0.4093
   80loPI   C1B 1277   1.682   3.127   9.508 -0.0970 -0.0780 -0.0542
   80loPI   C2B 1278   1.602   3.154   9.116 -0.1286 -0.0875  0.1165
   80loPI   C3B 1279   1.599   3.134   8.673 -0.3004 -0.0501 -0.1351
   80loPI   C4B 1280   1.639   3.194   8.201 -0.0314 -0.1945  0.0198
   81loPI    C1 1281   8.969  16.102   9.882 -0.1091  0.0858  0.0340
   81loPI    C2 1282   9.189  15.946  10.177  0.0179  0.1914 -0.0037
   81loPI    C3 1283   8.881  16.187  10.263 -0.0250  0.1192  0.0463
   81loPI   PO4 1284   9.017  15.978   9.707  0.0553 -0.0854 -0.0146
   81loPI   GL1 1285   8.936  15.807   9.387 -0.1566 -0.1507 -0.0822
   81loPI   GL2 1286   8.771  15.602   9.316 -0.0820 -0.1013 -0.0514
   81loPI   C1A 1287   8.858  16.114   9.019 -0.3306  0.0770 -0.3078
   81loPI   C2A 1288   8.782  16.232   8.593 -0.1171 -0.0067 -0.1838
   81loPI   C3A 1289   8.856  16.133   8.172  0.3747  0.5413 -0.2470
   81loPI   C4A 1290   8.751  15.851   7.798  0.1858  0.0234 -0.2485
   81loPI   C5A 1291   8.578  15.574   7.477  0.0271 -0.0407 -0.1547
   81loPI   C6A 1292   8.716  15.153   7.472 -0.2932  0.0381  0.1363
   81loPI   C1B 1293   8.992  15.674   8.932  0.0167 -0.0103  0.0641
   81loPI   C2B 1294   9.079  15.635   8.510  0.1533 -0.1691  0.0683
   81loPI   C3B 1295   8.929  15.405   8.175 -0.1438 -0.2589 -0.0060
   81loPI   C4B 1296   9.143  15.165   7.973 -0.2510  0.1018  0.1932
   82loPI    C1 1297  10.390   3.789   9.506 -0.0592 -0.1145  0.2528
   82loPI    C2 1298  10.081   3.875   9.745 -0.1566 -0.3462  0.2122
   82loPI    C3 1299  10.226   3.502   9.731  0.0892 -0.2517  0.1881
   82loPI   PO4 1300  10.339   3.936   9.279  0.1017 -0.2446  0.0962
   82loPI   GL1 1301  10.160   4.195   8.979 -0.2622 -0.1859  0.0822
   82loPI   GL2 1302  10.362   4.143   8.731 -0.1722 -0.2595 -0.1993
   82loPI   C1A 1303   9.864   4.317   8.602 -0.1023 -0.1305 -0.0419
   82loPI   C2A 1304   9.724   4.454   8.173  0.1718  0.1816 -0.1423
   82loPI   C3A 1305   9.587   4.671   7.791  0.1127  0.1556  0.5423
   82loPI   C4A 1306   9.348   4.700   7.435 -0.2134  0.0276 -0.1533
   82loPI   C5A 1307   9.190   5.036   7.266 -0.1384 -0.1847  0.0501
   82loPI   C6A 1308   9.147   5.455   7.206 -0.4142  0.0974  0.2247
   82loPI   C1B 1309  10.441   4.264   8.258  0.0419  0.1769 -0.0110
   82loPI   C2B 1310  10.505   4.201   7.869  0.3618  0.2486 -0.2963
   82loPI   C3B 1311  10.598   4.178   7.420 -0.1777 -0.0094  0.1530
   82loPI   C4B 1312  10.902   4.605   7.145  0.0763  0.0068 -0.0549
   83loPI    C1 1313  15.136   8.923  10.227  0.1868  0.0541 -0.2385
   83loPI    C2 1314  15.327   8.652  10.450  0.0472  0.1030 -0.0574
   83loPI    C3 1315  15.266   9.021  10.592 -0.2664  0.0592 -0.0716
   83loPI   PO4 1316  15.075   8.785  10.043  0.2319  0.0309  0.1273
   83loPI   GL1 1317  14.845   8.869   9.653  0.5543 -0.0736 -0.0539
   83loPI   GL2 1318  14.687   9.151   9.560  0.0836 -0.0265 -0.2232
   83loPI   C1A 1319  14.925   8.970   9.176  0.0337 -0.1457  0.2022
   83loPI   C2A 1320  14.842   9.043   8.760 -0.2357 -0.1575  0.2483
   83loPI   C3A 1321  15.136   9.339   8.530  0.1768  0.0738 -0.0162
   83loPI   C4A 1322  15.165   9.450   8.130 -0.0933  0.0979 -0.1576
   83loPI   C5A 1323  15.271   9.348   7.709 -0.0887  0.0432 -0.1164
   83loPI   C6A 1324  15.064   9.226   7.357  0.2893 -0.2645  0.1658
   83loPI   C1B 1325  14.487   9.328   9.169 -0.1643 -0.1836 -0.2484
   83loPI   C2B 1326  14.403   9.206   8.768  0.1331  0.2494  0.0483
   83loPI   C3B 1327  14.250   9.218   8.336 -0.1039 -0.1802  0.0476
   83loPI   C4B 1328  14.240   9.198   7.868 -0.1322 -0.2245  0.1594
   84loPI    C1 1329   2.254  18.921  10.446  0.0404 -0.2740  0.1788
   84loPI    C2 1330   1.887  19.028  10.563  0.1774  0.3805  0.0499
   84loPI    C3 1331   2.188  19.026  10.826  0.0999 -0.1082  0.1442
   84loPI   PO4 1332   2.315  18.924  10.169 -0.0830 -0.0913  0.0224
   84loPI   GL1 1333   2.165  18.968   9.714  0.0552  0.2658  0.0366
   84loPI   GL2 1334   1.879  19.192   9.602 -0.0660  0.0887  0.1538
   84loPI   C1A 1335   2.263  19.033   9.164  0.2815  0.4547  0.1267
   84loPI   C2A 1336   2.170  19.318   8.705  0.1827  0.0151  0.1529
   84loPI   C3A 1337   2.184  19.418   8.240 -0.1165 -0.0545  0.2067
   84loPI   C4A 1338   2.052  19.573   7.880 -0.0831 -0.1166 -0.2311
   84loPI   C5A 1339   2.063  20.039   7.825  0.1607  0.0985 -0.2519
   84loPI   C6A 1340   2.198  20.437   7.934 -0.0015  0.4321 -0.2270
   84loPI   C1B 1341   1.841  18.810   9.326 -0.1422  0.3637 -0.2333
   84loPI   C2B 1342   1.835  18.825   8.930  0.0116 -0.1071 -0.2208
   84loPI   C3B 1343   1.585  18.726   8.526  0.2347  0.0040  0.0517
   84loPI   C4B 1344   1.337  18.670   8.130 -0.3632 -0.2630 -0.0224
   85loPI    C1 1345   8.926   0.933   9.868 -0.4561  0.0742  0.1262
   85loPI    C2 1346   8.938   1.179  10.183  0.0229  0.0780  0.1133
   85loPI    C3 1347   9.197   0.875  10.158 -0.3368 -0.2237 -0.0397
   85loPI   PO4 1348   8.915   1.088   9.663  0.0475  0.1637 -0.1791
   85loPI   GL1 1349   8.949   1.396   9.443  0.1640 -0.1811  0.1432
   85loPI   GL2 1350   8.565   1.412   9.353  0.2178 -0.1858 -0.0929
   85loPI   C1A 1351   8.911   1.477   8.984 -0.3356  0.0947 -0.3700
   85loPI   C2A 1352   8.957   1.182   8.685 -0.0508  0.3770 -0.2923
   85loPI   C3A 1353   8.928   1.002   8.307  0.4275  0.0777 -0.2536
   85loPI   C4A 1354   8.867   0.846   7.884  0.0328  0.4080  0.1143
   85loPI   C5A 1355   8.574   0.729   7.565 -0.0444  0.0734 -0.0695
   85loPI   C6A 1356   8.454   0.343   7.290 -0.2210  0.1757  0.2339
   85loPI   C1B 1357   8.499   1.269   8.906  0.0360 -0.3674  0.1811
   85loPI   C2B 1358   8.429   1.074   8.483  0.3154  0.1587 -0.3420
   85loPI   C3B 1359   8.496   0.766   8.282 -0.0086  0.1945  0.2130
   85loPI   C4B 1360   8.598   0.368   8.390  0.1977 -0.1250  0.1465
   86loPI    C1 1361   6.410   0.026  10.293  0.3132  0.2607  0.0516
   86loPI    C2 1362   6.345  -0.239  10.586 -0.0479 -0.0038 -0.2579
   86loPI    C3 1363   6.313   0.152  10.660 -0.0229 -0.0633  0.0807
   86loPI   PO4 1364   6.352  -0.113  10.121 -0.0241  0.0073 -0.0031
   86loPI   GL1 1365   6.201   0.022   9.725  0.1138  0.0157 -0.0141
   86loPI   GL2 1366   6.213  -0.296   9.639  0.3199 -0.2310  0.0488
   86loPI   C1A 1367   6.216   0.333   9.372  0.1556 -0.1126 -0.1861
   86loPI   C2A 1368   6.001   0.327   9.030  0.0975 -0.0023 -0.1180
   86loPI   C3A 1369   6.012   0.402   8.562  0.1669  0.0882  0.0431
   86loPI   C4A 1370   6.043   0.371   8.150  0.0160 -0.2607 -0.1910
   86loPI   C5A 1371   5.792   0.442   7.788  0.0892  0.2839 -0.1570
   86loPI   C6A 1372   5.432   0.232   7.732  0.1139 -0.0584  0.4354
   86loPI   C1B 1373   6.283  -0.217   9.203  0.0121 -0.0170  0.3234
   86loPI   C2B 1374   6.037  -0.156   8.834  0.0463 -0.1209  0.0101
   86loPI   C3B 1375   5.894  -0.057   8.408  0.3485  0.0764 -0.0093
   86loPI   C4B 1376   5.626  -0.093   8.070  0.0015 -0.2106 -0.2733
   87loPI    C1 1377  10.966   7.825  10.493 -0.0920  0.0517  0.1836
   87loPI    C2 1378  11.340   7.917  10.388 -0.1340  0.1031  0.0771
   87loPI    C3 1379  11.182   8.071  10.721 -0.0582  0.0754  0.1261
   87loPI   PO4 1380  10.841   7.785  10.216  0.3338 -0.0967 -0.2008
   87loPI   GL1 1381  10.843   7.735   9.752 -0.1958  0.0151 -0.0155
   87loPI   GL2 1382  11.186   7.817   9.855  0.2968  0.0831 -0.0202
   87loPI   C1A 1383  10.657   7.868   9.524 -0.0190  0.0948  0.2097
   87loPI   C2A 1384  10.461   7.752   9.158 -0.0341 -0.1988  0.0686
   87loPI   C3A 1385  10.717   7.764   8.724  0.0565 -0.3434 -0.2300
   87loPI   C4A 1386  11.003   7.840   8.529 -0.2612  0.1345 -0.0007
   87loPI   C5A 1387  11.164   7.818   8.183 -0.2886  0.2046 -0.0185
   87loPI   C6A 1388  11.296   7.448   7.894 -0.0096 -0.2052 -0.1197
   87loPI   C1B 1389  11.295   7.981   9.523  0.0121 -0.1282 -0.1892
   87loPI   C2B 1390  11.503   7.973   9.141 -0.0879 -0.1809  0.2387
   87loPI   C3B 1391  11.487   7.942   8.661 -0.1356 -0.0130 -0.1070
   87loPI   C4B 1392  11.549   7.589   8.322  0.0766 -0.0840 -0.1265
   88loPI    C1 1393   5.278  14.164   9.725 -0.0180  0.1342  0.0375
   88loPI    C2 1394   5.033  13.927   9.935  0.0704  0.0136  0.0052
   88loPI    C3 1395   5.409  13.985  10.058  0.1182 -0.0452 -0.1109
   88loPI   PO4 1396   5.270  14.140   9.543  0.0176  0.2757 -0.0924
   88loPI   GL1 1397   5.400  14.251   9.210 -0.1049  0.1186  0.1013
   88loPI   GL2 1398   5.373  14.404   8.934 -0.2963 -0.2637 -0.0727
   88loPI   C1A 1399   5.559  13.952   8.850 -0.3225  0.0394  0.1740
   88loPI   C2A 1400   5.590  13.817   8.428  0.0892 -0.1848  0.0599
   88loPI   C3A 1401   5.691  13.444   8.094 -0.0363 -0.1303 -0.2339
   88loPI   C4A 1402   5.919  13.495   7.703 -0.2268 -0.0137 -0.1030
   88loPI   C5A 1403   5.923  13.721   7.281  0.0582 -0.1285 -0.2678
   88loPI   C6A 1404   5.710  14.086   7.034  0.1298  0.1485 -0.0417
   88loPI   C1B 1405   5.425  14.315   8.534 -0.3201 -0.1625 -0.2001
   88loPI   C2B 1406   5.418  14.307   8.143  0.0475  0.2613  0.1060
   88loPI   C3B 1407   5.564  14.512   7.755 -0.1101  0.1171  0.0735
   88loPI   C4B 1408   5.317  14.422   7.231  0.2104 -0.1535 -0.2196
   89loPI    C1 1409  18.636  13.636  10.106  0.0648 -0.2183  0.0157
   89loPI    C2 1410  18.401  13.702  10.423  0.2250  0.1505  0.0624
   89loPI    C3 1411  18.624  13.370  10.405  0.0157 -0.0006  0.2096
   89loPI   PO4 1412  18.531  13.821   9.882 -0.4481  0.2818  0.0304
   89loPI   GL1 1413  18.552  13.836   9.406  0.1906  0.0546  0.2142
   89loPI   GL2 1414  18.628  13.517   9.258 -0.0350 -0.0040  0.2856
   89loPI   C1A 1415  18.513  14.255   9.086 -0.1762  0.3762  0.0506
   89loPI   C2A 1416  18.476  14.428   8.578  0.1829  0.3329 -0.2377
   89loPI   C3A 1417  18.503  14.572   8.235  0.1274  0.1619  0.0594
   89loPI   C4A 1418  18.388  14.643   7.770 -0.2911 -0.2556 -0.0923
   89loPI   C5A 1419  18.401  15.085   7.610 -0.0219 -0.1468  0.1014
   89loPI   C6A 1420  18.584  15.596   7.771 -0.0320  0.0248  0.1377
   89loPI   C1B 1421  18.471  13.676   8.823 -0.0239  0.1789 -0.1617
   89loPI   C2B 1422  18.421  13.953   8.503  0.3451 -0.1278 -0.2246
   89loPI   C3B 1423  18.676  14.102   8.082 -0.0236 -0.0251  0.2376
   89loPI   C4B 1424  18.491  13.975   7.695 -0.1475  0.2960 -0.1735
   90loPI    C1 1425  14.124   5.086  10.079 -0.2458  0.0338 -0.0260
   90loPI    C2 1426  14.216   4.719  10.212  0.1604  0.1450  0.0131
   90loPI    C3 1427  14.273   5.038  10.447 -0.2598  0.2316  0.0066
   90loPI   PO4 1428  14.225   5.081   9.817  0.1585  0.1127 -0.0093
   90loPI   GL1 1429  14.381   5.334   9.489  0.1067  0.1618 -0.2673
   90loPI   GL2 1430  14.542   5.228   9.288 -0.0482 -0.0326  0.0747
   90loPI   C1A 1431  14.216   5.540   9.109  0.1436 -0.0824  0.1800
   90loPI   C2A 1432  14.347   5.634   8.666  0.0263 -0.0518 -0.0731
   90loPI   C3A 1433  14.432   5.792   8.224  0.2019  0.0689  0.0032
   90loPI   C4A 1434  14.361   6.019   7.734 -0.0775  0.1938 -0.1600
   90loPI   C5A 1435  13.924   6.180   7.680  0.0539 -0.2863  0.0229
   90loPI   C6A 1436  13.618   5.910   7.467 -0.1164 -0.1085 -0.0982
   90loPI   C1B 1437  14.537   5.291   8.900  0.0792  0.2255  0.2134
   90loPI   C2B 1438  14.687   5.293   8.535 -0.0499 -0.4530 -0.3896
   90loPI   C3B 1439  14.546   5.122   8.231 -0.0472  0.1417  0.1221
   90loPI   C4B 1440  14.274   4.899   7.906 -0.1399  0.0560 -0.1859
   91loPI    C1 1441   8.184  16.600   9.730 -0.0750 -0.5661 -0.0548
   91loPI    C2 1442   8.416  16.353   9.943  0.2680 -0.1178  0.1061
   91loPI    C3 1443   8.164  16.601  10.130  0.2077 -0.0723 -0.0344
   91loPI   PO4 1444   8.328  16.717   9.639 -0.2601 -0.3299  0.1345
   91loPI   GL1 1445   8.307  16.901   9.255  0.0812  0.3241 -0.0026
   91loPI   GL2 1446   8.225  16.630   9.084  0.1965  0.1332 -0.0582
   91loPI   C1A 1447   8.227  16.846   8.684 -0.3218 -0.0291 -0.0549
   91loPI   C2A 1448   8.439  16.764   8.344 -0.1644  0.2156 -0.1336
   91loPI   C3A 1449   8.725  16.591   8.108  0.4251  0.2078 -0.1715
   91loPI   C4A 1450   8.651  16.362   7.708  0.1868 -0.2448  0.1908
   91loPI   C5A 1451   8.377  16.283   7.514  0.0578  0.0863 -0.1826
   91loPI   C6A 1452   8.280  15.930   7.290 -0.3030  0.1819 -0.1949
   91loPI   C1B 1453   8.216  16.360   8.786  0.1608 -0.0852  0.1720
   91loPI   C2B 1454   8.349  16.217   8.375 -0.0637  0.1076  0.0223
   91loPI   C3B 1455   8.201  16.302   8.023 -0.1441  0.0106 -0.1489
   91loPI   C4B 1456   8.292  16.751   7.809 -0.1496  0.4039 -0.1587
   92loPI    C1 1457   2.009   6.845  10.087 -0.1521 -0.0394 -0.3734
   92loPI    C2 1458   1.949   6.500  10.280  0.0056  0.0575 -0.1453
   92loPI    C3 1459   1.771   6.834  10.409  0.1684  0.1365 -0.1236
   92loPI   PO4 1460   1.899   6.752   9.827 -0.0071  0.0181 -0.1210
   92loPI   GL1 1461   2.070   6.482   9.428  0.1979  0.0296 -0.1952
   92loPI   GL2 1462   2.340   6.776   9.445  0.3467  0.1592  0.0723
   92loPI   C1A 1463   2.086   6.591   8.949  0.2912 -0.4125  0.2065
   92loPI   C2A 1464   2.337   6.544   8.614 -0.2911  0.2433 -0.1410
   92loPI   C3A 1465   2.251   6.373   8.275 -0.0064 -0.1815 -0.0957
   92loPI   C4A 1466   2.298   6.206   7.808  0.1761  0.1030 -0.2545
   92loPI   C5A 1467   1.937   6.345   7.547  0.2140 -0.1651 -0.3197
   92loPI   C6A 1468   1.705   6.771   7.514 -0.0578 -0.2259 -0.0830
   92loPI   C1B 1469   2.536   6.855   8.993  0.0019  0.0809  0.0278
   92loPI   C2B 1470   2.615   6.949   8.602 -0.1605  0.1414 -0.1600
   92loPI   C3B 1471   2.561   6.995   8.173 -0.0647  0.1508 -0.2533
   92loPI   C4B 1472   2.373   6.703   7.894  0.3873  0.0994  0.0138
   93loPI    C1 1473  14.323   9.413  10.212  0.0025  0.2676  0.1492
   93loPI    C2 1474  14.369   9.173  10.528 -0.3686 -0.1865 -0.1289
   93loPI    C3 1475  14.157   9.510  10.562 -0.0223  0.0045  0.2122
   93loPI   PO4 1476  14.212   9.220  10.054  0.0231  0.1540 -0.1461
   93loPI   GL1 1477  14.174   9.104   9.605 -0.0456  0.0123 -0.2059
   93loPI   GL2 1478  14.299   8.873   9.743 -0.1174 -0.0389  0.1634
   93loPI   C1A 1479  14.051   9.161   9.162  0.0149 -0.2054  0.1211
   93loPI   C2A 1480  13.921   9.150   8.857  0.2220  0.1338  0.3502
   93loPI   C3A 1481  13.805   9.220   8.469  0.0414 -0.5467 -0.1314
   93loPI   C4A 1482  13.760   9.323   8.016 -0.0431 -0.1740  0.1118
   93loPI   C5A 1483  13.728   9.343   7.585  0.1617 -0.3045  0.1780
   93loPI   C6A 1484  13.688   9.363   7.030 -0.1232  0.4772  0.2501
   93loPI   C1B 1485  14.463   8.827   9.218  0.0069 -0.1702 -0.0737
   93loPI   C2B 1486  14.207   8.721   8.911  0.1540 -0.1808 -0.2479
   93loPI   C3B 1487  14.044   8.791   8.437  0.1837 -0.0183  0.0038
   93loPI   C4B 1488  13.915   8.806   7.984  0.2136  0.1609 -0.0131
   94loPI    C1 1489   0.063   7.486   9.776 -0.0879  0.1358  0.2709
   94loPI    C2 1490  -0.106   7.173   9.960  0.4805 -0.4208 -0.1133
   94loPI    C3 1491   0.223   7.341  10.113  0.1177  0.0736  0.1485
   94loPI   PO4 1492  -0.129   7.696   9.735  0.0999  0.1290  0.2288
   94loPI   GL1 1493  -0.332   7.775   9.318  0.2784  0.2881 -0.0037
   94loPI   GL2 1494  -0.633   7.743   9.268  0.0611 -0.1390 -0.0843
   94loPI   C1A 1495  -0.126   7.566   8.971  0.0084 -0.1834  0.2501
   94loPI   C2A 1496  -0.031   7.680   8.638  0.3062 -0.1690  0.1197
   94loPI   C3A 1497  -0.031   7.964   8.220 -0.1559  0.2083 -0.0105
   94loPI   C4A 1498  -0.153   7.953   7.901  0.1586  0.1675  0.0343
   94loPI   C5A 1499  -0.158   8.040   7.488 -0.2044 -0.3077 -0.1432
   94loPI   C6A 1500  -0.335   8.145   7.061 -0.0033  0.0798  0.1467
   94loPI   C1B 1501  -0.523   7.778   8.810  0.2379 -0.0994  0.0034
   94loPI   C2B 1502  -0.626   7.857   8.433 -0.2549  0.2213 -0.0840
   94loPI   C3B 1503  -0.636   7.870   7.952 -0.0052  0.0025 -0.2445
   94loPI   C4B 1504  -0.669   7.856   7.452 -0.3260 -0.1695  0.1430
   95loPI    C1 1505   1.664   8.778   9.850 -0.1739 -0.1640 -0.0828
   95loPI    C2 1506   1.569   8.391   9.887 -0.2964 -0.1295 -0.0307
   95loPI    C3 1507   1.645   8.610  10.213 -0.2598 -0.1012 -0.0581
   95loPI   PO4 1508   1.784   8.750   9.552  0.3753  0.1192  0.0991
   95loPI   GL1 1509   1.634   8.378   9.215  0.1766  0.1643  0.0663
   95loPI   GL2 1510   1.307   8.386   8.940 -0.0451 -0.0119 -0.1004
   95loPI   C1A 1511   1.736   8.361   8.746 -0.0015  0.0328 -0.0414
   95loPI   C2A 1512   1.625   8.294   8.297 -0.1151 -0.1414 -0.5301
   95loPI   C3A 1513   1.723   8.389   7.924 -0.0359 -0.0150  0.1444
   95loPI   C4A 1514   1.952   8.157   7.602  0.0826 -0.0996  0.0795
   95loPI   C5A 1515   2.017   7.893   7.299 -0.0224  0.0406 -0.1362
   95loPI   C6A 1516   1.880   7.993   6.852  0.0229 -0.0005  0.1206
   95loPI   C1B 1517   1.315   8.640   8.500  0.0028  0.3984  0.0787
   95loPI   C2B 1518   1.245   8.830   8.099  0.2701  0.0236  0.1181
   95loPI   C3B 1519   1.473   8.798   7.769  0.0162  0.1971 -0.0466
   95loPI   C4B 1520   1.719   9.192   7.594  0.1037 -0.1821 -0.1892
   96loPI    C1 1521  16.008   3.668  10.003  0.0519 -0.0435 -0.2869
   96loPI    C2 1522  16.048   3.280  10.092 -0.0085 -0.0034 -0.0801
   96loPI    C3 1523  15.684   3.443  10.069  0.0277  0.1263  0.2152
   96loPI   PO4 1524  16.185   3.730   9.716  0.1728  0.0385  0.3344
   96loPI   GL1 1525  16.314   3.929   9.408  0.3062 -0.0694 -0.0010
   96loPI   GL2 1526  16.494   4.160   9.220  0.0458  0.0613  0.2884
   96loPI   C1A 1527  16.219   3.757   8.959 -0.0282 -0.0335  0.3159
   96loPI   C2A 1528  16.185   3.584   8.583 -0.0378 -0.0254  0.3818
   96loPI   C3A 1529  16.181   3.447   8.167  0.3478  0.0631  0.1413
   96loPI   C4A 1530  16.322   3.197   7.722  0.0360 -0.0875 -0.0387
   96loPI   C5A 1531  16.446   2.935   7.357 -0.0723  0.0643  0.0438
   96loPI   C6A 1532  16.401   2.986   6.936  0.3468 -0.1467  0.0886
   96loPI   C1B 1533  16.630   3.908   8.727  0.1246  0.0406 -0.0580
   96loPI   C2B 1534  16.643   3.757   8.382 -0.2888 -0.4255 -0.0295
   96loPI   C3B 1535  16.801   3.731   7.878  0.2834 -0.0518 -0.1015
   96loPI   C4B 1536  16.734   3.726   7.437  0.1694  0.1873  0.1095
   97loPI    C1 1537  10.610  14.098  10.046 -0.0649  0.1268  0.0695
   97loPI    C2 1538  10.288  14.289  10.187 -0.0814  0.0470  0.1409
   97loPI    C3 1539  10.526  14.087  10.437  0.0584  0.1561  0.0970
   97loPI   PO4 1540  10.504  13.915   9.895 -0.0297  0.0232 -0.0367
   97loPI   GL1 1541  10.438  13.729   9.565  0.2205  0.1692 -0.2644
   97loPI   GL2 1542  10.094  13.803   9.460  0.1269 -0.1195 -0.0184
   97loPI   C1A 1543  10.765  13.849   9.176 -0.4125  0.4112  0.0481
   97loPI   C2A 1544  10.713  13.738   8.711 -0.1445  0.0505  0.1402
   97loPI   C3A 1545  10.920  13.700   8.272  0.1789  0.3654 -0.0975
   97loPI   C4A 1546  10.687  13.459   8.062  0.1909 -0.0679 -0.4058
   97loPI   C5A 1547  10.299  13.441   7.695 -0.0448  0.4122 -0.0592
   97loPI   C6A 1548  10.226  13.373   7.310  0.1243  0.0318 -0.1692
   97loPI   C1B 1549  10.263  13.707   9.068  0.1251 -0.3428 -0.0357
   97loPI   C2B 1550  10.196  13.806   8.646 -0.0797 -0.0501 -0.0215
   97loPI   C3B 1551  10.452  13.938   8.325  0.0677 -0.0101 -0.0490
   97loPI   C4B 1552  10.620  14.026   7.922  0.0247 -0.0717  0.0451
   98loPI    C1 1553   3.912  11.557   9.735  0.0030  0.3531  0.1844
   98loPI    C2 1554   3.584  11.518   9.961 -0.1132 -0.1041 -0.0504
   98loPI    C3 1555   3.908  11.296  10.038  0.0595  0.1706  0.0304
   98loPI   PO4 1556   3.853  11.482   9.392  0.1483  0.2420  0.0595
   98loPI   GL1 1557   3.966  11.417   9.012 -0.1006  0.1965  0.0006
   98loPI   GL2 1558   4.255  11.327   8.796  0.1622  0.2501 -0.0707
   98loPI   C1A 1559   3.800  11.344   8.556 -0.0864 -0.0045 -0.2442
   98loPI   C2A 1560   3.604  11.174   8.147  0.1136  0.4950  0.0797
   98loPI   C3A 1561   3.622  11.292   7.745  0.0260 -0.2219  0.0961
   98loPI   C4A 1562   3.477  11.621   7.580 -0.2811  0.1310 -0.1061
   98loPI   C5A 1563   3.286  11.842   7.301  0.0073  0.1523 -0.1206
   98loPI   C6A 1564   3.192  11.838   6.899 -0.1348  0.0371  0.1631
   98loPI   C1B 1565   4.292  11.224   8.368 -0.3488  0.2359 -0.0593
   98loPI   C2B 1566   4.016  11.376   8.057  0.1870 -0.1245  0.3334
   98loPI   C3B 1567   4.144  11.121   7.777 -0.0559  0.1166 -0.1016
   98loPI   C4B 1568   4.317  10.981   7.380 -0.1486  0.2437 -0.0433
   99loPI    C1 1569   5.861  11.420   9.824  0.1975  0.1265 -0.0055
   99loPI    C2 1570   5.872  11.791   9.975  0.0353  0.1256  0.0100
   99loPI    C3 1571   5.668  11.503  10.165 -0.1857  0.1283 -0.2180
   99loPI   PO4 1572   6.123  11.373   9.715  0.0872  0.0434  0.0557
   99loPI   GL1 1573   6.514  11.364   9.567  0.2321 -0.0213 -0.2127
   99loPI   GL2 1574   6.387  11.523   9.300 -0.2071 -0.2494 -0.6097
   99loPI   C1A 1575   6.713  11.147   9.203  0.2649 -0.0088  0.2709
   99loPI   C2A 1576   7.071  10.893   8.914  0.1207 -0.0034 -0.1115
   99loPI   C3A 1577   7.295  10.682   8.647 -0.0678  0.0502 -0.0750
   99loPI   C4A 1578   7.356  10.646   8.180  0.2714 -0.0207 -0.1621
   99loPI   C5A 1579   7.385  10.513   7.709  0.0030 -0.0149  0.0492
   99loPI   C6A 1580   7.054  10.379   7.504  0.0069 -0.2187  0.3662
   99loPI   C1B 1581   6.538  11.599   8.864  0.0164  0.0763 -0.0584
   99loPI   C2B 1582   6.826  11.461   8.502 -0.1408 -0.2049  0.4524
   99loPI   C3B 1583   6.714  11.478   8.131 -0.1353  0.2493 -0.1298
   99loPI   C4B 1584   6.767  11.652   7.757  0.0966 -0.0402 -0.2538
  100loPI    C1 1585  12.767   7.997   9.963  0.3263  0.2600 -0.2355
  100loPI    C2 1586  13.047   8.048  10.244 -0.1398 -0.3773  0.3805
  100loPI    C3 1587  12.686   8.216  10.289 -0.0558 -0.0415 -0.1198
  100loPI   PO4 1588  12.986   7.904   9.751  0.1209  0.2395  0.2044
  100loPI   GL1 1589  12.905   7.585   9.472  0.1496  0.0922  0.1806
  100loPI   GL2 1590  13.033   7.945   9.260  0.0705  0.0485 -0.2042
  100loPI   C1A 1591  13.263   7.468   9.202 -0.3587 -0.0282  0.0138
  100loPI   C2A 1592  13.194   7.656   8.774  0.1496  0.2960 -0.0125
  100loPI   C3A 1593  13.049   7.497   8.355  0.4140  0.3153 -0.2443
  100loPI   C4A 1594  13.203   7.387   7.996  0.1433 -0.1917  0.0205
  100loPI   C5A 1595  13.226   7.491   7.630  0.1097  0.0637 -0.0735
  100loPI   C6A 1596  13.369   7.847   7.375 -0.0796  0.0271 -0.2517
  100loPI   C1B 1597  12.832   8.050   8.907  0.3211 -0.0302  0.0136
  100loPI   C2B 1598  12.884   8.043   8.474 -0.0343  0.3931 -0.2783
  100loPI   C3B 1599  12.926   7.875   8.092  0.4291  0.1872 -0.1440
  100loPI   C4B 1600  12.738   7.794   7.725 -0.0529 -0.0847 -0.1212
  101loPI    C1 1601  13.572   4.046   9.966  0.0837 -0.1214 -0.0216
  101loPI    C2 1602  13.296   4.230  10.190  0.2735 -0.0880  0.1881
  101loPI    C3 1603  13.217   3.873  10.029 -0.0116  0.0692 -0.0288
  101loPI   PO4 1604  13.647   4.238   9.782 -0.2738 -0.0725 -0.3242
  101loPI   GL1 1605  13.927   4.273   9.406  0.3060  0.0205 -0.2975
  101loPI   GL2 1606  13.760   4.489   9.358  0.0687 -0.3562  0.0665
  101loPI   C1A 1607  13.839   4.093   9.041 -0.2998  0.1317 -0.0952
  101loPI   C2A 1608  13.831   3.824   8.718 -0.1014  0.0213 -0.0419
  101loPI   C3A 1609  13.711   3.588   8.352  0.0467 -0.0001 -0.2606
  101loPI   C4A 1610  13.473   3.617   8.003 -0.3819  0.2613 -0.1450
  101loPI   C5A 1611  13.311   3.410   7.648  0.4192  0.0510  0.1928
  101loPI   C6A 1612  13.375   3.147   7.311 -0.3357  0.3180  0.1965
  101loPI   C1B 1613  13.639   4.780   9.061  0.0314  0.1926 -0.1393
  101loPI   C2B 1614  13.634   4.816   8.596 -0.2438 -0.1616 -0.2496
  101loPI   C3B 1615  13.892   4.777   8.276 -0.0007  0.0504  0.0801
  101loPI   C4B 1616  13.896   4.533   8.043  0.2346 -0.1730  0.2368
  102loPI    C1 1617   6.779   0.237   9.928  0.1378  0.2792 -0.0105
  102loPI    C2 1618   6.490   0.498  10.017  0.0338  0.0641  0.2968
  102loPI    C3 1619   6.787   0.432  10.277  0.0942 -0.0751  0.1935
  102loPI   PO4 1620   6.729   0.081   9.731 -0.1971  0.2282 -0.0227
  102loPI   GL1 1621   7.016   0.170   9.331 -0.2448 -0.4245 -0.0468
  102loPI   GL2 1622   6.704   0.008   9.256 -0.1587  0.0040  0.0537
  102loPI   C1A 1623   6.952   0.187   8.915 -0.1531 -0.0816 -0.1967
  102loPI   C2A 1624   6.852   0.296   8.589  0.0628 -0.0941 -0.1446
  102loPI   C3A 1625   6.892   0.290   8.091  0.1552  0.1201 -0.1301
  102loPI   C4A 1626   7.310   0.268   7.845  0.1770  0.1116 -0.3295
  102loPI   C5A 1627   7.490   0.455   7.482 -0.0055 -0.1226 -0.0117
  102loPI   C6A 1628   7.568   0.439   7.072 -0.0301 -0.1771 -0.1607
  102loPI   C1B 1629   6.419   0.125   8.885  0.0067  0.2559  0.2724
  102loPI   C2B 1630   6.431   0.033   8.456 -0.0117  0.1437  0.0471
  102loPI   C3B 1631   6.684  -0.140   8.098 -0.0588 -0.0115 -0.2382
  102loPI   C4B 1632   6.880   0.007   7.663  0.0912  0.3048 -0.3848
  103loPI    C1 1633  11.863   1.401   9.645 -0.3750 -0.0620 -0.1553
  103loPI    C2 1634  11.674   1.637   9.384  0.0841 -0.0196 -0.4612
  103loPI    C3 1635  11.880   1.798   9.687 -0.2910 -0.0634 -0.1748
  103loPI   PO4 1636  11.916   1.202   9.452 -0.0706  0.0167  0.1676
  103loPI   GL1 1637  12.113   1.195   9.005 -0.0684 -0.1729 -0.1993
  103loPI   GL2 1638  11.964   1.458   8.961 -0.1654 -0.1301 -0.3502
  103loPI   C1A 1639  12.256   0.882   8.733 -0.1925 -0.1757  0.2290
  103loPI   C2A 1640  12.511   0.588   8.645 -0.5530  0.0416  0.1029
  103loPI   C3A 1641  12.645   0.339   8.278  0.1809  0.0450 -0.0343
  103loPI   C4A 1642  12.655   0.079   7.991  0.1492  0.0339 -0.1098
  103loPI   C5A 1643  12.691  -0.181   7.694 -0.0395 -0.0887  0.0595
  103loPI   C6A 1644  12.578  -0.401   7.303 -0.1435 -0.0093  0.1656
  103loPI   C1B 1645  12.009   1.373   8.533  0.2149  0.2405  0.1431
  103loPI   C2B 1646  12.234   1.181   8.224 -0.0007 -0.2010  0.0526
  103loPI   C3B 1647  12.250   0.648   8.204 -0.0771  0.0391  0.0007
  103loPI   C4B 1648  12.189   0.264   7.891  0.0643 -0.0802 -0.2884
  104loPI    C1 1649  18.460  19.132  10.289 -0.2045 -0.2571 -0.0605
  104loPI    C2 1650  18.189  19.384  10.440  0.0392 -0.0183 -0.0141
  104loPI    C3 1651  18.576  19.430  10.530  0.1116 -0.2744 -0.1863
  104loPI   PO4 1652  18.436  19.155   9.971  0.1705 -0.2226 -0.2771
  104loPI   GL1 1653  18.532  19.409   9.680 -0.3297  0.4077 -0.0078
  104loPI   GL2 1654  18.789  19.165   9.616 -0.0490 -0.0117 -0.0569
  104loPI   C1A 1655  18.488  19.376   9.294 -0.0429  0.1181  0.0849
  104loPI   C2A 1656  18.474  19.368   8.804  0.1996 -0.0340 -0.2219
  104loPI   C3A 1657  18.744  19.338   8.461  0.2582  0.1042  0.2073
  104loPI   C4A 1658  18.903  19.294   8.084 -0.2715 -0.0455 -0.0379
  104loPI   C5A 1659  19.240  18.964   7.878  0.0626 -0.2683 -0.0377
  104loPI   C6A 1660  19.676  18.922   7.789 -0.3176 -0.1528 -0.2585
  104loPI   C1B 1661  18.969  19.179   9.234  0.3645  0.1472  0.0472
  104loPI   C2B 1662  19.028  19.414   8.851  0.2401  0.0107 -0.0871
  104loPI   C3B 1663  19.126  19.642   8.491 -0.0278  0.2221  0.1865
  104loPI   C4B 1664  19.309  19.686   8.108  0.0569 -0.0330 -0.1660
  105loPI    C1 1665   3.384   7.961   9.850  0.0522 -0.1509 -0.0882
  105loPI    C2 1666   3.733   7.913  10.039 -0.0448  0.0194  0.1393
  105loPI    C3 1667   3.452   8.150  10.196 -0.1473  0.1260 -0.1968
  105loPI   PO4 1668   3.408   7.793   9.611  0.0077  0.0529 -0.1955
  105loPI   GL1 1669   3.507   7.738   9.180  0.1526  0.0734  0.1169
  105loPI   GL2 1670   3.670   7.587   9.027 -0.0108 -0.0254 -0.0563
  105loPI   C1A 1671   3.204   7.741   8.938  0.1176  0.0886 -0.1487
  105loPI   C2A 1672   3.097   7.863   8.528  0.1309  0.2110  0.3612
  105loPI   C3A 1673   3.118   8.066   8.198 -0.1967  0.1587  0.0306
  105loPI   C4A 1674   3.206   7.900   7.732 -0.1725  0.0496 -0.1361
  105loPI   C5A 1675   3.315   7.759   7.348 -0.1535  0.0354 -0.2247
  105loPI   C6A 1676   3.204   7.420   7.204  0.0365 -0.4213  0.0406
  105loPI   C1B 1677   3.729   7.770   8.612  0.1792 -0.2370  0.2583
  105loPI   C2B 1678   3.715   7.770   8.081  0.2142 -0.0147  0.2546
  105loPI   C3B 1679   3.879   7.858   7.665 -0.0842  0.0683  0.0758
  105loPI   C4B 1680   3.791   7.873   7.239 -0.1739 -0.1493  0.0473
  106loPI    C1 1681   8.500  17.771   9.948  0.0291 -0.2034 -0.0768
  106loPI    C2 1682   8.221  17.793  10.234 -0.0011  0.0491 -0.1231
  106loPI    C3 1683   8.420  17.451  10.174 -0.2869 -0.1284 -0.0779
  106loPI   PO4 1684   8.349  17.826   9.684 -0.1800  0.0739 -0.1721
  106loPI   GL1 1685   8.269  17.699   9.260  0.0014  0.2976  0.1466
  106loPI   GL2 1686   8.223  18.039   9.283  0.1254  0.0217  0.3546
  106loPI   C1A 1687   8.364  17.614   8.813 -0.0763  0.0943  0.2596
  106loPI   C2A 1688   8.285  17.647   8.433  0.2531 -0.1793  0.0924
  106loPI   C3A 1689   8.600  17.622   8.117 -0.3197  0.0504 -0.1480
  106loPI   C4A 1690   8.594  17.981   7.975  0.1422  0.0444 -0.2417
  106loPI   C5A 1691   8.512  18.168   7.599 -0.0229 -0.0470  0.0174
  106loPI   C6A 1692   8.688  18.156   7.203 -0.2096 -0.2038  0.1865
  106loPI   C1B 1693   8.324  18.404   8.996  0.1561  0.1850  0.0282
  106loPI   C2B 1694   8.531  18.618   8.647  0.0591  0.3812  0.0831
  106loPI   C3B 1695   8.657  18.541   8.202  0.0538  0.0463 -0.3103
  106loPI   C4B 1696   8.418  18.737   7.776 -0.3508 -0.1447 -0.2610
  107loPI    C1 1697   2.382   1.902  10.394  0.1953 -0.2490 -0.2835
  107loPI    C2 1698   2.574   2.247  10.328 -0.1064 -0.0348 -0.0718
  107loPI    C3 1699   2.763   1.944  10.508  0.0095  0.2027  0.2133
  107loPI   PO4 1700   2.358   1.799  10.146  0.0066  0.1211 -0.0753
  107loPI   GL1 1701   2.402   1.934   9.702  0.1993  0.1906  0.1620
  107loPI   GL2 1702   2.496   1.615   9.715 -0.1399 -0.1605 -0.0320
  107loPI   C1A 1703   2.664   1.924   9.174  0.0064 -0.0547  0.1712
  107loPI   C2A 1704   2.587   1.771   8.807 -0.0748  0.3495  0.3233
  107loPI   C3A 1705   2.478   1.551   8.522  0.2693 -0.1324 -0.1204
  107loPI   C4A 1706   2.650   1.441   8.185  0.0160  0.0240 -0.1307
  107loPI   C5A 1707   2.798   1.105   8.021  0.1595 -0.1249 -0.1515
  107loPI   C6A 1708   3.031   0.891   7.863 -0.1207  0.1443  0.0499
  107loPI   C1B 1709   2.487   1.449   9.380  0.1375  0.3168 -0.1934
  107loPI   C2B 1710   2.365   1.313   8.947  0.2315 -0.1248  0.0781
  107loPI   C3B 1711   2.151   1.156   8.533  0.0016 -0.0399 -0.0971
  107loPI   C4B 1712   1.911   1.277   8.354  0.1870  0.1998 -0.0914
  108loPI    C1 1713   6.525   7.011   9.886 -0.0958 -0.0706 -0.1024
  108loPI    C2 1714   6.263   7.254  10.066  0.0458  0.0457 -0.0517
  108loPI    C3 1715   6.294   6.873  10.182  0.0966  0.1049  0.1334
  108loPI   PO4 1716   6.700   7.172   9.839 -0.1513  0.0354 -0.2674
  108loPI   GL1 1717   6.953   7.226   9.452  0.1930 -0.0730 -0.0015
  108loPI   GL2 1718   7.230   7.350   9.441  0.0339 -0.1467  0.0922
  108loPI   C1A 1719   6.934   7.121   8.989  0.0073 -0.1532 -0.0452
  108loPI   C2A 1720   6.844   7.048   8.546  0.2437 -0.0815  0.2311
  108loPI   C3A 1721   6.834   6.861   8.146 -0.2144  0.0232  0.3773
  108loPI   C4A 1722   6.861   6.680   7.786 -0.3564  0.4136  0.2582
  108loPI   C5A 1723   6.760   6.282   7.625 -0.0922  0.2493 -0.1748
  108loPI   C6A 1724   6.627   5.936   7.377 -0.0886 -0.1622 -0.1894
  108loPI   C1B 1725   7.343   7.320   9.020 -0.0388 -0.0080  0.0620
  108loPI   C2B 1726   7.516   7.351   8.629 -0.4021 -0.1477  0.0943
  108loPI   C3B 1727   7.848   7.096   8.445 -0.0497 -0.1547 -0.3149
  108loPI   C4B 1728   8.231   7.169   8.239 -0.1193  0.1915  0.0065
  109loPI    C1 1729  18.696   6.401   9.696 -0.1262 -0.0624 -0.0171
  109loPI    C2 1730  18.825   6.288  10.058  0.0413  0.1857  0.0035
  109loPI    C3 1731  18.463   6.455  10.018 -0.0661 -0.0387  0.0228
  109loPI   PO4 1732  18.733   6.192   9.491  0.1127 -0.2716 -0.0727
  109loPI   GL1 1733  18.707   6.068   9.108  0.3248 -0.1022 -0.3682
  109loPI   GL2 1734  18.596   5.712   9.187  0.3728 -0.1083  0.0650
  109loPI   C1A 1735  18.753   6.233   8.790 -0.0963 -0.0141 -0.0413
  109loPI   C2A 1736  18.762   6.223   8.361  0.0847 -0.2659 -0.0788
  109loPI   C3A 1737  18.801   6.278   7.878  0.0959 -0.0518  0.1390
  109loPI   C4A 1738  19.080   6.131   7.592 -0.1758  0.0095 -0.2021
  109loPI   C5A 1739  19.484   6.155   7.595  0.0454  0.1345  0.0146
  109loPI   C6A 1740  19.792   6.110   7.708  0.2838 -0.1597  0.0828
  109loPI   C1B 1741  18.605   5.666   8.751  0.0512  0.1814 -0.0952
  109loPI   C2B 1742  18.670   5.749   8.447 -0.2292 -0.0103  0.4769
  109loPI   C3B 1743  18.922   5.831   8.039 -0.0215 -0.2688  0.2680
  109loPI   C4B 1744  19.364   5.759   7.949  0.2354  0.0324 -0.0251
  110loPI    C1 1745   0.465  17.029  10.156  0.0752 -0.1470  0.2008
  110loPI    C2 1746   0.770  16.894  10.377  0.1219  0.0083  0.2324
  110loPI    C3 1747   0.593  16.653  10.111  0.2547 -0.0904  0.2327
  110loPI   PO4 1748   0.477  17.248   9.983  0.1762  0.0783  0.0585
  110loPI   GL1 1749   0.383  17.470   9.723  0.2107  0.1176  0.0089
  110loPI   GL2 1750   0.456  17.764   9.585 -0.0138 -0.0194  0.1103
  110loPI   C1A 1751   0.413  17.137   9.395  0.0300 -0.0693  0.0279
  110loPI   C2A 1752   0.546  16.986   8.981  0.1514 -0.0595 -0.2250
  110loPI   C3A 1753   0.551  16.951   8.493  0.0243  0.1488 -0.0005
  110loPI   C4A 1754   0.439  16.813   8.071 -0.0140  0.0316 -0.0000
  110loPI   C5A 1755   0.405  17.121   7.784 -0.0118 -0.3299  0.0165
  110loPI   C6A 1756   0.556  17.193   7.354  0.0959  0.0561  0.1420
  110loPI   C1B 1757   0.522  17.572   9.101  0.0461 -0.1115 -0.1364
  110loPI   C2B 1758   0.616  17.419   8.720  0.0337 -0.1707 -0.1770
  110loPI   C3B 1759   0.496  17.723   8.416 -0.0105  0.1087 -0.1043
  110loPI   C4B 1760   0.565  17.884   7.976  0.0268 -0.1062  0.1321
  111loPI    C1 1761   9.785   9.321  10.445  0.1006 -0.1081 -0.0859
  111loPI    C2 1762   9.724   9.712  10.500  0.2478 -0.0393 -0.3910
  111loPI    C3 1763  10.044   9.535  10.662 -0.1010 -0.1519  0.2036
  111loPI   PO4 1764   9.786   9.321  10.056 -0.1466  0.4552 -0.2439
  111loPI   GL1 1765   9.719   9.155   9.635  0.0665  0.0168  0.1722
  111loPI   GL2 1766   9.797   9.449   9.575 -0.1371  0.1193  0.1725
  111loPI   C1A 1767   9.983   8.868   9.315  0.1853 -0.0520  0.0228
  111loPI   C2A 1768  10.197   8.614   9.012  0.3024 -0.1386 -0.0466
  111loPI   C3A 1769  10.268   8.525   8.517 -0.1043 -0.2826  0.2560
  111loPI   C4A 1770  10.493   8.577   8.106 -0.1276  0.1226 -0.2405
  111loPI   C5A 1771  10.341   8.374   7.723 -0.1341 -0.1266 -0.2517
  111loPI   C6A 1772  10.072   8.125   7.420 -0.1248 -0.3579  0.1476
  111loPI   C1B 1773   9.492   9.495   9.294  0.3441 -0.1563  0.0727
  111loPI   C2B 1774   9.314   9.401   9.003  0.0691  0.1638  0.0025
  111loPI   C3B 1775   9.369   9.177   8.638 -0.1074  0.1685  0.1103
  111loPI   C4B 1776   9.532   8.902   8.303  0.4452 -0.2460 -0.2140
  112loPI    C1 1777   9.308   6.301   9.959 -0.0090  0.0743  0.1147
  112loPI    C2 1778   9.001   6.351  10.210 -0.1037 -0.0861  0.0329
  112loPI    C3 1779   9.224   6.019  10.230  0.2108  0.1317  0.2454
  112loPI   PO4 1780   9.316   6.631   9.815  0.2931  0.0802  0.0160
  112loPI   GL1 1781   9.492   6.867   9.487  0.0434 -0.0138 -0.0561
  112loPI   GL2 1782   9.727   7.164   9.499  0.4317  0.1223  0.0800
  112loPI   C1A 1783   9.788   6.584   9.287 -0.4400 -0.2641  0.1932
  112loPI   C2A 1784   9.868   6.556   8.893 -0.2552  0.4022 -0.4860
  112loPI   C3A 1785  10.081   6.513   8.451 -0.4066 -0.0636 -0.2236
  112loPI   C4A 1786  10.175   6.571   7.977 -0.1763  0.0300 -0.2815
  112loPI   C5A 1787  10.374   6.944   7.756 -0.1700  0.1936 -0.1545
  112loPI   C6A 1788  10.177   7.269   7.498 -0.0154 -0.1750  0.1709
  112loPI   C1B 1789   9.941   7.031   9.100 -0.0735 -0.2431  0.0315
  112loPI   C2B 1790  10.120   6.937   8.723 -0.0871 -0.2089  0.1826
  112loPI   C3B 1791   9.964   7.015   8.280 -0.0954  0.0666 -0.4028
  112loPI   C4B 1792   9.899   6.952   7.855 -0.2382  0.0446 -0.0240
  113loPI    C1 1793   1.056  17.963  10.359 -0.0814 -0.0284 -0.0578
  113loPI    C2 1794   0.957  17.982  10.746 -0.2102 -0.0925 -0.0870
  113loPI    C3 1795   1.341  17.949  10.639 -0.1589  0.1087  0.0294
  113loPI   PO4 1796   0.885  18.204  10.282  0.2256 -0.0778 -0.1483
  113loPI   GL1 1797   0.766  18.407   9.874 -0.0019  0.0974 -0.2003
  113loPI   GL2 1798   0.816  18.663   9.680 -0.1455 -0.1156 -0.0103
  113loPI   C1A 1799   0.754  18.172   9.483 -0.0306  0.2631 -0.2099
  113loPI   C2A 1800   0.922  17.809   9.313  0.0862  0.3183 -0.1147
  113loPI   C3A 1801   1.011  17.667   8.958  0.0978 -0.4073 -0.1466
  113loPI   C4A 1802   0.945  17.725   8.585 -0.0648 -0.3536 -0.1562
  113loPI   C5A 1803   0.995  17.761   8.189 -0.0539  0.1344 -0.0511
  113loPI   C6A 1804   0.869  18.251   7.887  0.0549 -0.0304  0.1023
  113loPI   C1B 1805   0.855  18.870   9.360  0.1771 -0.2579 -0.5010
  113loPI   C2B 1806   0.950  18.930   8.890  0.3508  0.2003  0.0617
  113loPI   C3B 1807   1.031  18.693   8.538 -0.1408  0.0835 -0.0713
  113loPI   C4B 1808   0.831  18.654   8.148 -0.2165 -0.3614 -0.0251
  114loPI    C1 1809  12.467   7.457  10.129  0.0380 -0.0893  0.2819
  114loPI    C2 1810  12.363   7.807  10.294  0.2590  0.1732 -0.1168
  114loPI    C3 1811  12.723   7.650  10.368  0.1791  0.0522  0.0218
  114loPI   PO4 1812  12.531   7.526   9.823 -0.0311 -0.0249 -0.1697
  114loPI   GL1 1813  12.417   7.660   9.424 -0.1321 -0.0072 -0.0975
  114loPI   GL2 1814  12.535   7.936   9.514  0.0888  0.1377  0.2534
  114loPI   C1A 1815  11.969   7.779   9.241 -0.0025  0.0163  0.0165
  114loPI   C2A 1816  11.905   7.927   8.847  0.1741  0.2643 -0.2286
  114loPI   C3A 1817  11.937   8.130   8.432  0.1434 -0.1094 -0.0154
  114loPI   C4A 1818  11.983   8.374   8.028 -0.2214 -0.0648  0.1681
  114loPI   C5A 1819  11.928   8.493   7.641 -0.0983 -0.0233  0.2640
  114loPI   C6A 1820  11.720   8.254   7.371 -0.2606  0.3606 -0.0219
  114loPI   C1B 1821  12.369   8.005   9.083  0.0647  0.0786 -0.1985
  114loPI   C2B 1822  12.385   8.100   8.659 -0.0963 -0.1208  0.1931
  114loPI   C3B 1823  12.367   8.062   8.226 -0.1283 -0.0040  0.0523
  114loPI   C4B 1824  12.192   7.816   7.920  0.1844 -0.2839 -0.1061
  115loPI    C1 1825   5.762  12.273   9.851  0.0813  0.0918  0.0454
  115loPI    C2 1826   5.677  12.662   9.890 -0.1246  0.0535 -0.0074
  115loPI    C3 1827   5.381  12.394   9.869  0.0178 -0.1168  0.1304
  115loPI   PO4 1828   5.863  12.186   9.580 -0.0049  0.0315  0.0502
  115loPI   GL1 1829   6.063  12.045   9.258  0.3059  0.2260 -0.0918
  115loPI   GL2 1830   6.316  12.030   9.074 -0.2527 -0.1999  0.1962
  115loPI   C1A 1831   5.855  12.046   8.875  0.0509 -0.4492  0.0284
  115loPI   C2A 1832   5.612  11.886   8.518  0.1003  0.0068  0.0766
  115loPI   C3A 1833   5.475  11.901   8.142  0.0908  0.1586 -0.2715
  115loPI   C4A 1834   5.342  11.661   7.811  0.0570  0.0782 -0.1703
  115loPI   C5A 1835   5.069  11.290   7.526  0.1599 -0.0284 -0.4307
  115loPI   C6A 1836   4.800  11.038   7.317  0.1965 -0.0157 -0.1912
  115loPI   C1B 1837   6.366  12.007   8.625  0.0537  0.2415 -0.0129
  115loPI   C2B 1838   6.062  11.944   8.245 -0.0754  0.3071 -0.2465
  115loPI   C3B 1839   6.024  12.002   7.826  0.0807 -0.0634 -0.0964
  115loPI   C4B 1840   5.733  12.013   7.513  0.0023 -0.0355  0.0100
  116loPI    C1 1841  12.775  11.535  10.670 -0.1218  0.0200 -0.1328
  116loPI    C2 1842  12.636  11.909  10.693  0.1083  0.1077 -0.1373
  116loPI    C3 1843  12.742  11.715  11.026 -0.0924  0.0134 -0.1268
  116loPI   PO4 1844  12.957  11.581  10.473  0.1204 -0.0129  0.2973
  116loPI   GL1 1845  13.141  11.413  10.100 -0.4163 -0.4158  0.1030
  116loPI   GL2 1846  12.975  11.716   9.863  0.0561  0.1740  0.0008
  116loPI   C1A 1847  13.194  11.259   9.707 -0.2132  0.0939  0.2230
  116loPI   C2A 1848  13.195  11.047   9.291 -0.0158 -0.1366  0.3150
  116loPI   C3A 1849  13.194  11.206   8.933 -0.2977 -0.1234 -0.1793
  116loPI   C4A 1850  13.323  11.367   8.469  0.1456  0.0832 -0.0590
  116loPI   C5A 1851  13.461  11.149   8.097  0.4570 -0.2141  0.2339
  116loPI   C6A 1852  13.457  10.825   7.769  0.1197  0.2064  0.0208
  116loPI   C1B 1853  12.907  11.679   9.442  0.0226 -0.0015 -0.0325
  116loPI   C2B 1854  12.762  11.326   9.232 -0.1739  0.1299 -0.1150
  116loPI   C3B 1855  12.645  11.243   8.892  0.0275  0.1722  0.0051
  116loPI   C4B 1856  12.736  11.422   8.446 -0.2671  0.0697 -0.1624
  117loPI    C1 1857  14.587   2.294   9.581  0.0583  0.1555 -0.0222
  117loPI    C2 1858  14.547   2.428   9.955  0.2909 -0.2239  0.1443
  117loPI    C3 1859  14.232   2.274   9.763  0.0920  0.2726  0.0574
  117loPI   PO4 1860  14.633   2.503   9.420 -0.1382 -0.0354  0.0509
  117loPI   GL1 1861  14.931   2.501   9.128 -0.0228 -0.1066  0.0303
  117loPI   GL2 1862  15.213   2.455   9.210  0.0189 -0.0832 -0.0745
  117loPI   C1A 1863  14.945   2.558   8.678  0.0630 -0.4411  0.2435
  117loPI   C2A 1864  14.930   2.865   8.413  0.0207  0.1233  0.5073
  117loPI   C3A 1865  15.188   3.086   8.201  0.3077  0.0778  0.1111
  117loPI   C4A 1866  15.286   3.439   7.885 -0.0344  0.0325 -0.0938
  117loPI   C5A 1867  15.005   3.845   7.714 -0.0487 -0.3597  0.1325
  117loPI   C6A 1868  14.721   4.111   7.404 -0.0365 -0.0957  0.1761
  117loPI   C1B 1869  15.267   2.229   8.908 -0.0044 -0.0171 -0.3866
  117loPI   C2B 1870  15.333   2.300   8.490 -0.1596  0.0924  0.3310
  117loPI   C3B 1871  15.038   2.466   8.136 -0.0196 -0.2181 -0.0494
  117loPI   C4B 1872  15.106   2.397   7.752  0.2003 -0.2583 -0.1942
  118loPI    C1 1873   2.668   7.547   9.793  0.0794  0.0205 -0.2814
  118loPI    C2 1874   2.920   7.290   9.968 -0.1393  0.0160  0.0353
  118loPI    C3 1875   2.959   7.683  10.031  0.1137  0.0569 -0.3440
  118loPI   PO4 1876   2.655   7.511   9.585  0.2551 -0.2296  0.1047
  118loPI   GL1 1877   2.692   7.229   9.212 -0.0132  0.1522 -0.0018
  118loPI   GL2 1878   2.282   7.348   9.215 -0.1432 -0.2553  0.0109
  118loPI   C1A 1879   2.866   7.364   8.870 -0.2828 -0.1384 -0.0860
  118loPI   C2A 1880   2.843   7.403   8.437  0.1052 -0.0721  0.1984
  118loPI   C3A 1881   2.862   7.526   8.045 -0.3537 -0.0165 -0.0346
  118loPI   C4A 1882   2.908   7.527   7.621  0.1612 -0.4145 -0.1460
  118loPI   C5A 1883   2.827   7.737   7.331  0.1267 -0.0908 -0.0221
  118loPI   C6A 1884   2.472   7.927   7.067 -0.0118  0.1340 -0.1307
  118loPI   C1B 1885   2.384   7.320   8.760 -0.0069  0.1602  0.0310
  118loPI   C2B 1886   2.195   7.225   8.481  0.0425 -0.2934  0.2216
  118loPI   C3B 1887   1.970   6.854   8.398 -0.1641 -0.0422  0.1630
  118loPI   C4B 1888   1.836   6.491   8.517  0.2995  0.0785 -0.2631
  119loPI    C1 1889   2.486  17.057  10.492  0.3009 -0.2770  0.0122
  119loPI    C2 1890   2.400  17.327  10.774  0.0958 -0.1162 -0.2001
  119loPI    C3 1891   2.312  16.941  10.832  0.0628 -0.0852 -0.0417
  119loPI   PO4 1892   2.641  17.183  10.249  0.2818 -0.1183  0.2053
  119loPI   GL1 1893   2.579  17.228   9.734  0.3453 -0.0122 -0.1392
  119loPI   GL2 1894   2.228  17.165   9.764 -0.1195  0.0637 -0.0321
  119loPI   C1A 1895   2.783  17.240   9.335  0.0769 -0.1368  0.0771
  119loPI   C2A 1896   2.770  17.149   8.964 -0.0617 -0.2662  0.0865
  119loPI   C3A 1897   2.772  17.086   8.567 -0.0735 -0.1119  0.0486
  119loPI   C4A 1898   2.776  17.198   8.141  0.1990  0.1651  0.0162
  119loPI   C5A 1899   2.714  17.324   7.714 -0.0981 -0.0699  0.0387
  119loPI   C6A 1900   2.501  17.690   7.483  0.0205  0.0773  0.2499
  119loPI   C1B 1901   2.362  16.976   9.369  0.3049  0.2605 -0.0563
  119loPI   C2B 1902   2.301  16.846   8.913  0.4168 -0.1752  0.2601
  119loPI   C3B 1903   2.278  16.996   8.396 -0.2612  0.0356 -0.3194
  119loPI   C4B 1904   2.212  17.029   7.986 -0.0533  0.0495 -0.1090
  120loPI    C1 1905   9.211  18.635   9.961 -0.0756 -0.0395  0.4700
  120loPI    C2 1906   8.858  18.804  10.044 -0.0412  0.2370  0.0813
  120loPI    C3 1907   9.182  19.033   9.994  0.0803  0.0287 -0.1045
  120loPI   PO4 1908   9.173  18.384   9.810 -0.0689  0.4254  0.0298
  120loPI   GL1 1909   9.266  18.251   9.411  0.0774 -0.0326  0.2397
  120loPI   GL2 1910   9.027  18.098   9.158  0.0132  0.1192 -0.1457
  120loPI   C1A 1911   9.401  18.375   9.016 -0.1288  0.0016  0.2472
  120loPI   C2A 1912   9.171  18.533   8.567 -0.1613  0.1855  0.3307
  120loPI   C3A 1913   9.127  18.751   8.225  0.1616  0.1326  0.2710
  120loPI   C4A 1914   9.206  18.870   7.773  0.3262 -0.1133 -0.1711
  120loPI   C5A 1915   9.512  18.550   7.601  0.1142 -0.2401 -0.3702
  120loPI   C6A 1916   9.778  18.494   7.262  0.0275  0.2020 -0.2536
  120loPI   C1B 1917   8.760  18.218   8.792  0.1877 -0.2188  0.2602
  120loPI   C2B 1918   8.390  18.150   8.517 -0.1937 -0.1183  0.2607
  120loPI   C3B 1919   8.158  18.064   8.173  0.2245 -0.3368 -0.2197
  120loPI   C4B 1920   8.101  17.790   7.905  0.0758  0.2249 -0.0413
  121loPI    C1 1921  10.932   3.809   9.664  0.2117  0.0516  0.0478
  121loPI    C2 1922  10.661   3.608   9.879  0.1190  0.1536  0.0274
  121loPI    C3 1923  11.049   3.581   9.971  0.0660  0.3274  0.3135
  121loPI   PO4 1924  10.878   3.782   9.390 -0.1483  0.0892 -0.2482
  121loPI   GL1 1925  10.573   3.539   8.961 -0.2014  0.1260  0.0025
  121loPI   GL2 1926  10.821   3.814   8.878 -0.1647 -0.0422 -0.3556
  121loPI   C1A 1927  10.554   3.375   8.540 -0.2733 -0.1889  0.2864
  121loPI   C2A 1928  10.448   3.307   8.139 -0.2127 -0.2023  0.1620
  121loPI   C3A 1929  10.183   3.460   7.820 -0.0484  0.3643  0.2222
  121loPI   C4A 1930   9.871   3.723   7.472 -0.1289 -0.3371  0.0462
  121loPI   C5A 1931   9.924   4.119   7.080  0.0917 -0.0139 -0.0602
  121loPI   C6A 1932  10.267   4.078   6.855 -0.2138  0.1916  0.1050
  121loPI   C1B 1933  10.696   3.863   8.418  0.0819 -0.1323 -0.0810
  121loPI   C2B 1934  10.641   3.725   7.992  0.2486 -0.1137 -0.0785
  121loPI   C3B 1935  10.466   3.711   7.559 -0.0640  0.1949  0.0713
  121loPI   C4B 1936  10.445   3.737   7.136 -0.1000  0.0683  0.1866
  122loPI    C1 1937  14.557   3.872   9.767 -0.0251  0.0281 -0.1150
  122loPI    C2 1938  14.873   3.789   9.537  0.2087  0.4227  0.0523
  122loPI    C3 1939  14.927   3.917   9.912 -0.1663 -0.2435  0.3517
  122loPI   PO4 1940  14.353   4.001   9.498  0.0121 -0.0117 -0.2878
  122loPI   GL1 1941  14.390   4.348   9.181 -0.3037 -0.2029 -0.1127
  122loPI   GL2 1942  14.690   4.125   9.130  0.1699 -0.2256  0.1872
  122loPI   C1A 1943  14.072   4.575   8.975 -0.1019  0.2116 -0.0762
  122loPI   C2A 1944  13.792   4.339   8.588 -0.2376  0.2694 -0.1831
  122loPI   C3A 1945  13.684   4.102   8.334 -0.2556 -0.0252  0.0411
  122loPI   C4A 1946  13.613   4.084   7.890  0.1454  0.0563 -0.0229
  122loPI   C5A 1947  13.320   3.948   7.632  0.1942 -0.0571  0.3345
  122loPI   C6A 1948  12.952   3.838   7.574 -0.3601  0.0298  0.1916
  122loPI   C1B 1949  14.446   4.226   8.677 -0.1252 -0.2442  0.2120
  122loPI   C2B 1950  14.177   4.031   8.453  0.0193  0.2316  0.1481
  122loPI   C3B 1951  14.040   3.829   7.972  0.2414 -0.1370  0.0331
  122loPI   C4B 1952  13.788   3.680   7.632 -0.0898  0.1269  0.0582
  123loPI    C1 1953  12.911   5.821   9.717 -0.1768 -0.1397  0.0783
  123loPI    C2 1954  12.785   6.173   9.858 -0.0501 -0.1231  0.1513
  123loPI    C3 1955  12.782   5.850  10.094 -0.1725 -0.1730  0.0824
  123loPI   PO4 1956  13.023   5.875   9.543  0.0701 -0.3821  0.0437
  123loPI   GL1 1957  12.901   6.284   9.328 -0.3089  0.2125  0.0025
  123loPI   GL2 1958  12.574   6.126   9.384 -0.2018  0.1851 -0.0939
  123loPI   C1A 1959  13.095   6.048   8.934  0.0036  0.0043 -0.1964
  123loPI   C2A 1960  13.343   5.864   8.705 -0.0798  0.2165 -0.1741
  123loPI   C3A 1961  13.367   5.730   8.239 -0.0164  0.1021 -0.1732
  123loPI   C4A 1962  13.172   5.765   7.754  0.2978  0.2524  0.0535
  123loPI   C5A 1963  13.200   5.801   7.284  0.3118 -0.0273 -0.1569
  123loPI   C6A 1964  13.304   6.137   6.922  0.1452  0.0256 -0.0856
  123loPI   C1B 1965  12.585   6.346   9.016  0.3438 -0.0355  0.0481
  123loPI   C2B 1966  12.863   6.315   8.590 -0.3074  0.0318 -0.1520
  123loPI   C3B 1967  12.859   6.595   8.183  0.3014 -0.0252 -0.2334
  123loPI   C4B 1968  12.733   7.059   7.803 -0.0541  0.0904 -0.4568
  124loPI    C1 1969   3.033  14.997  10.393 -0.3178  0.0061 -0.2054
  124loPI    C2 1970   2.827  15.168  10.690 -0.0091 -0.1348  0.0968
  124loPI    C3 1971   3.226  15.187  10.686 -0.0110 -0.0601 -0.3601
  124loPI   PO4 1972   2.821  14.993  10.134  0.1225  0.0542  0.0559
  124loPI   GL1 1973   2.871  15.072   9.703 -0.0568 -0.3016  0.0055
  124loPI   GL2 1974   2.990  15.280   9.455 -0.1571 -0.1451 -0.1621
  124loPI   C1A 1975   2.769  14.809   9.425 -0.1431  0.0946  0.0242
  124loPI   C2A 1976   2.828  14.517   9.114 -0.5041 -0.1425 -0.4067
  124loPI   C3A 1977   2.862  14.507   8.630  0.1318 -0.2505 -0.0631
  124loPI   C4A 1978   2.801  14.666   8.170 -0.0666 -0.2709 -0.0346
  124loPI   C5A 1979   2.949  14.835   7.885  0.2386 -0.0084 -0.4582
  124loPI   C6A 1980   3.243  15.006   7.533  0.0337 -0.1683  0.2538
  124loPI   C1B 1981   3.195  15.125   9.121  0.1825  0.1523 -0.2945
  124loPI   C2B 1982   3.404  15.179   8.652 -0.4310 -0.1695 -0.1483
  124loPI   C3B 1983   3.736  14.987   8.480 -0.0657  0.1596 -0.0163
  124loPI   C4B 1984   3.850  14.586   8.229  0.1866 -0.3009  0.2404
  125loPI    C1 1985  10.273  16.184  10.077  0.0937 -0.0350  0.1428
  125loPI    C2 1986  10.119  15.864  10.262  0.1931 -0.2750 -0.1809
  125loPI    C3 1987  10.515  15.895  10.212  0.1922 -0.0488 -0.0601
  125loPI   PO4 1988  10.100  16.271   9.939  0.0571 -0.0436  0.0626
  125loPI   GL1 1989  10.065  16.291   9.532  0.3328 -0.0709  0.0009
  125loPI   GL2 1990  10.285  16.615   9.456  0.1305  0.4515 -0.0547
  125loPI   C1A 1991  10.418  16.251   9.184  0.0011  0.0288  0.0155
  125loPI   C2A 1992  10.531  16.446   8.843 -0.1024 -0.0969  0.2300
  125loPI   C3A 1993  10.702  16.472   8.473  0.1465 -0.1213  0.1880
  125loPI   C4A 1994  10.840  16.497   8.040  0.0992 -0.2597  0.1518
  125loPI   C5A 1995  10.834  16.371   7.612  0.2412 -0.0674 -0.3708
  125loPI   C6A 1996  10.817  16.509   7.256  0.0367 -0.1056 -0.1875
  125loPI   C1B 1997  10.221  16.778   9.001  0.4411  0.0456  0.1112
  125loPI   C2B 1998  10.263  16.816   8.527  0.1801 -0.0824 -0.0365
  125loPI   C3B 1999  10.190  17.096   8.176 -0.0486  0.0866 -0.1725
  125loPI   C4B 2000  10.289  17.292   7.830  0.1106 -0.3784 -0.2340
  126loPI    C1 2001  12.730   3.993   9.969 -0.0157 -0.1719 -0.2572
  126loPI    C2 2002  12.817   4.241  10.271  0.0181 -0.3453 -0.1230
  126loPI    C3 2003  12.451   4.243  10.109 -0.0149 -0.2854 -0.0486
  126loPI   PO4 2004  12.869   4.055   9.703 -0.3743  0.2406  0.2571
  126loPI   GL1 2005  12.881   4.237   9.363  0.0012 -0.1747 -0.0371
  126loPI   GL2 2006  13.086   4.164   9.153 -0.1005  0.2510 -0.0282
  126loPI   C1A 2007  13.053   4.687   9.139  0.3054 -0.1677  0.4529
  126loPI   C2A 2008  13.184   4.840   8.774  0.3462  0.2927 -0.1242
  126loPI   C3A 2009  13.153   5.026   8.364 -0.2978 -0.1894 -0.0175
  126loPI   C4A 2010  13.038   5.312   8.037  0.2620  0.3659 -0.3192
  126loPI   C5A 2011  12.714   5.570   7.934  0.0471  0.2402 -0.2314
  126loPI   C6A 2012  12.433   5.739   8.034 -0.0511 -0.1053 -0.2916
  126loPI   C1B 2013  13.416   4.322   9.014 -0.0975  0.4659  0.0026
  126loPI   C2B 2014  13.354   4.427   8.597  0.0057 -0.4448 -0.1001
  126loPI   C3B 2015  13.404   4.553   8.198  0.0619 -0.1103 -0.1009
  126loPI   C4B 2016  13.220   4.840   7.911  0.2931 -0.1151 -0.0756
  127loPI    C1 2017  12.070   3.987   9.810 -0.2309 -0.3801  0.0191
  127loPI    C2 2018  12.258   3.784  10.098 -0.0564 -0.3799 -0.0933
  127loPI    C3 2019  11.935   4.003  10.186 -0.1395 -0.5615  0.0604
  127loPI   PO4 2020  12.019   3.962   9.425 -0.1888  0.1169  0.0887
  127loPI   GL1 2021  12.055   3.983   8.949  0.3302 -0.2144 -0.1894
  127loPI   GL2 2022  11.740   3.834   8.968 -0.0356 -0.1135  0.4953
  127loPI   C1A 2023  12.159   3.882   8.551 -0.2400  0.0444 -0.1787
  127loPI   C2A 2024  12.205   3.534   8.202 -0.2632 -0.0398 -0.1331
  127loPI   C3A 2025  11.956   3.470   7.880 -0.1755  0.1415 -0.0165
  127loPI   C4A 2026  11.996   3.259   7.479  0.0548  0.0289  0.1936
  127loPI   C5A 2027  11.765   2.900   7.372  0.0058  0.2257  0.0442
  127loPI   C6A 2028  11.648   2.676   7.693 -0.0980  0.2498  0.1392
  127loPI   C1B 2029  11.688   4.041   8.620  0.2654  0.0013  0.3771
  127loPI   C2B 2030  11.517   4.184   8.247 -0.1230  0.3838  0.1306
  127loPI   C3B 2031  11.567   4.372   7.772 -0.1420  0.0379 -0.0638
  127loPI   C4B 2032  11.362   4.509   7.403 -0.1884 -0.1424  0.0366
  128loPI    C1 2033  11.066  16.188   9.908 -0.1529 -0.2054 -0.0799
  128loPI    C2 2034  11.257  16.333  10.228 -0.0944 -0.1992 -0.1175
  128loPI    C3 2035  10.861  16.375  10.196 -0.0885 -0.1194 -0.0893
  128loPI   PO4 2036  11.246  16.262   9.704 -0.3657 -0.0858 -0.0791
  128loPI   GL1 2037  11.343  16.084   9.222  0.2442  0.0409 -0.0279
  128loPI   GL2 2038  11.477  15.805   9.143  0.0683  0.1270  0.0197
  128loPI   C1A 2039  11.194  16.056   8.770  0.2440  0.1003 -0.1213
  128loPI   C2A 2040  11.155  16.197   8.358 -0.0280 -0.0823 -0.0210
  128loPI   C3A 2041  11.181  16.151   7.913 -0.1364  0.3423 -0.1990
  128loPI   C4A 2042  11.323  16.285   7.481 -0.0812  0.1289  0.1495
  128loPI   C5A 2043  11.626  16.315   7.116 -0.0392 -0.1105 -0.4407
  128loPI   C6A 2044  11.792  15.954   6.735  0.1472 -0.0599  0.3695
  128loPI   C1B 2045  11.733  15.537   8.887  0.0676  0.0530 -0.0388
  128loPI   C2B 2046  11.814  15.470   8.446 -0.1575 -0.0563  0.0105
  128loPI   C3B 2047  11.543  15.318   8.095  0.1503 -0.1563 -0.1492
  128loPI   C4B 2048  11.280  14.995   7.957  0.1012  0.1453  0.2002
  129loPI    C1 2049   3.430  14.351   9.670  0.0138 -0.0846 -0.1186
  129loPI    C2 2050   3.497  14.728   9.555  0.0026 -0.0659 -0.0643
  129loPI    C3 2051   3.147  14.629   9.721 -0.0280 -0.1192 -0.1599
  129loPI   PO4 2052   3.531  14.120   9.488  0.1127  0.2294 -0.1175
  129loPI   GL1 2053   3.634  14.122   8.966 -0.1070 -0.1110  0.1639
  129loPI   GL2 2054   3.617  14.376   9.119  0.0067  0.0710 -0.1652
  129loPI   C1A 2055   3.578  14.147   8.479 -0.1691 -0.1725  0.1137
  129loPI   C2A 2056   3.605  14.240   7.946 -0.0173  0.0833 -0.0428
  129loPI   C3A 2057   4.092  14.202   7.732  0.0353 -0.3203 -0.0913
  129loPI   C4A 2058   4.258  14.206   7.400 -0.2331  0.2520 -0.0600
  129loPI   C5A 2059   4.282  14.279   6.892 -0.1490  0.0636  0.3103
  129loPI   C6A 2060   4.061  14.057   6.636  0.0289 -0.1233 -0.0575
  129loPI   C1B 2061   3.821  14.618   8.801  0.4531  0.1148 -0.0846
  129loPI   C2B 2062   4.150  14.768   8.713  0.1389 -0.0974  0.0743
  129loPI   C3B 2063   4.505  14.903   8.497 -0.0477  0.1797  0.0850
  129loPI   C4B 2064   4.642  15.104   8.336 -0.1407  0.3642  0.2182
  130loPI    C1 2065  16.577   5.700  10.093  0.0462  0.0893 -0.0577
  130loPI    C2 2066  16.840   5.410  10.172 -0.0172 -0.0214 -0.2452
  130loPI    C3 2067  16.736   5.669  10.458 -0.0298 -0.2390 -0.0495
  130loPI   PO4 2068  16.360   5.606   9.977  0.1763 -0.2127  0.1317
  130loPI   GL1 2069  16.169   5.598   9.663  0.0350  0.1492 -0.1428
  130loPI   GL2 2070  16.030   5.963   9.691  0.3581 -0.1738  0.0968
  130loPI   C1A 2071  16.361   5.647   9.232  0.1581  0.2480 -0.1469
  130loPI   C2A 2072  16.391   5.609   8.791  0.0895  0.1443  0.4063
  130loPI   C3A 2073  16.206   5.755   8.387 -0.1462 -0.2234  0.3249
  130loPI   C4A 2074  16.204   5.872   7.913 -0.0977  0.3334 -0.0384
  130loPI   C5A 2075  16.069   6.255   7.764  0.0228 -0.0560 -0.2732
  130loPI   C6A 2076  16.027   6.644   7.463 -0.1329 -0.0613  0.0733
  130loPI   C1B 2077  15.833   5.842   9.297 -0.0695  0.4497  0.1039
  130loPI   C2B 2078  15.917   5.530   8.943  0.1320 -0.0234  0.1475
  130loPI   C3B 2079  15.949   5.267   8.525  0.0678  0.0418 -0.0580
  130loPI   C4B 2080  16.061   5.391   8.070 -0.1998 -0.0563  0.0864
  131loPI    C1 2081  10.933  19.138   9.744 -0.0964  0.0332 -0.1623
  131loPI    C2 2082  10.593  19.170   9.952 -0.0570  0.1067 -0.1088
  131loPI    C3 2083  10.929  19.056  10.135 -0.0642 -0.0186 -0.1729
  131loPI   PO4 2084  10.957  19.340   9.667 -0.2904  0.1728 -0.2304
  131loPI   GL1 2085  10.697  19.501   9.307 -0.2165 -0.3971  0.0627
  131loPI   GL2 2086  10.573  19.134   9.430  0.0042 -0.2069  0.0268
  131loPI   C1A 2087  10.604  19.586   8.869  0.0201  0.3209  0.1427
  131loPI   C2A 2088  10.438  19.877   8.583 -0.0400 -0.0966 -0.0612
  131loPI   C3A 2089  10.405  20.052   8.132 -0.0183 -0.0709 -0.3906
  131loPI   C4A 2090  10.377  20.300   7.755 -0.0625 -0.0865 -0.4257
  131loPI   C5A 2091  10.491  20.356   7.366 -0.2490  0.3234  0.1619
  131loPI   C6A 2092  10.320  20.762   7.138 -0.0547 -0.0679  0.0757
  131loPI   C1B 2093  10.666  19.109   9.027 -0.0175 -0.2619  0.2000
  131loPI   C2B 2094  10.524  18.981   8.619 -0.1581 -0.1983 -0.0845
  131loPI   C3B 2095  10.407  18.689   8.306  0.0284  0.0925 -0.2186
  131loPI   C4B 2096  10.434  18.556   7.961  0.1655 -0.1920  0.3769
  132loPI    C1 2097  18.320  13.043  10.219  0.1244  0.2718  0.2680
  132loPI    C2 2098  18.638  12.865  10.384 -0.0130 -0.2002  0.0398
  132loPI    C3 2099  18.285  12.857  10.571 -0.1238 -0.5694 -0.1740
  132loPI   PO4 2100  18.389  13.190  10.016 -0.3197 -0.5362 -0.1547
  132loPI   GL1 2101  18.282  13.335   9.605  0.0350  0.4368  0.0920
  132loPI   GL2 2102  18.097  13.491   9.498  0.1174 -0.4584 -0.1556
  132loPI   C1A 2103  18.268  13.224   9.105 -0.1842 -0.0278 -0.2412
  132loPI   C2A 2104  18.317  13.244   8.709  0.1454 -0.2199 -0.2110
  132loPI   C3A 2105  18.136  13.148   8.253 -0.0735  0.1639  0.0056
  132loPI   C4A 2106  18.314  13.255   7.821  0.2771 -0.4038  0.0261
  132loPI   C5A 2107  18.340  13.499   7.448  0.2423 -0.1496 -0.2305
  132loPI   C6A 2108  18.163  13.875   7.340 -0.1389 -0.2715 -0.3958
  132loPI   C1B 2109  18.078  13.626   9.137 -0.1528 -0.1114 -0.2481
  132loPI   C2B 2110  18.033  13.708   8.654  0.1900  0.0862  0.2160
  132loPI   C3B 2111  18.077  13.612   8.254  0.0669  0.1412 -0.0722
  132loPI   C4B 2112  18.096  13.677   7.864 -0.1408  0.1793  0.2748
  133loPI    C1 2113   5.968   0.756  10.255 -0.1317 -0.2297 -0.0637
  133loPI    C2 2114   6.008   0.910  10.622  0.0313 -0.0277 -0.1638
  133loPI    C3 2115   6.247   0.612  10.502 -0.1120 -0.1866 -0.0608
  133loPI   PO4 2116   5.705   0.687  10.198  0.1587  0.0599  0.0768
  133loPI   GL1 2117   5.467   0.450   9.839 -0.4161 -0.0701 -0.0415
  133loPI   GL2 2118   5.618   0.261   9.781  0.1283 -0.0448  0.1911
  133loPI   C1A 2119   5.052   0.472   9.498 -0.0111 -0.3543 -0.5953
  133loPI   C2A 2120   4.762   0.534   9.085  0.3651  0.1900  0.0833
  133loPI   C3A 2121   4.866   0.529   8.712 -0.1706  0.1524 -0.1376
  133loPI   C4A 2122   4.715   0.575   8.280 -0.0508 -0.0219 -0.1697
  133loPI   C5A 2123   4.276   0.699   8.269 -0.0636  0.1742 -0.1635
  133loPI   C6A 2124   3.924   0.453   8.219  0.1122 -0.1313  0.0413
  133loPI   C1B 2125   5.531   0.441   9.332  0.1392 -0.0744  0.0672
  133loPI   C2B 2126   5.739   0.757   9.080 -0.1314  0.3412 -0.1863
  133loPI   C3B 2127   5.753   0.805   8.677 -0.0898  0.0718 -0.0214
  133loPI   C4B 2128   5.704   0.822   8.257 -0.0317 -0.2298  0.1564
  134loPI    C1 2129  10.183  10.317  10.507  0.0084  0.0253  0.0484
  134loPI    C2 2130  10.007  10.207  10.848 -0.0387  0.0999  0.0485
  134loPI    C3 2131  10.382  10.346  10.852  0.0951 -0.2501  0.0237
  134loPI   PO4 2132   9.902  10.185  10.350  0.3709  0.1079  0.0434
  134loPI   GL1 2133   9.637  10.283  10.041  0.1037 -0.3822  0.0272
  134loPI   GL2 2134   9.914  10.462   9.882  0.4314  0.0100 -0.0935
  134loPI   C1A 2135   9.346  10.442   9.794 -0.0757  0.2650  0.0854
  134loPI   C2A 2136   9.287  10.443   9.381  0.2536 -0.2924 -0.0224
  134loPI   C3A 2137   9.207  10.360   8.871  0.3983  0.0802  0.0274
  134loPI   C4A 2138   9.202  10.196   8.461  0.0264 -0.4650  0.3610
  134loPI   C5A 2139   9.293  10.261   8.036 -0.0697 -0.2508  0.1558
  134loPI   C6A 2140   9.338  10.056   7.596 -0.1854 -0.0559 -0.1492
  134loPI   C1B 2141   9.706  10.130   9.517 -0.1323  0.0828 -0.2701
  134loPI   C2B 2142   9.769  10.237   9.052  0.2454 -0.2101  0.0281
  134loPI   C3B 2143   9.721  10.417   8.680 -0.1534  0.3149  0.2696
  134loPI   C4B 2144   9.733  10.248   8.232  0.2824 -0.1976 -0.1447
  135loPI    C1 2145  17.222   5.115  10.101 -0.0027  0.2770  0.0832
  135loPI    C2 2146  17.076   4.982  10.449  0.1571  0.0369  0.0609
  135loPI    C3 2147  17.421   5.185  10.441  0.1626  0.0266  0.0400
  135loPI   PO4 2148  17.249   4.961   9.910 -0.1456 -0.1182  0.0791
  135loPI   GL1 2149  17.029   4.993   9.509 -0.2093 -0.3350  0.0303
  135loPI   GL2 2150  17.286   5.048   9.252  0.0395  0.1643 -0.1090
  135loPI   C1A 2151  16.776   4.813   9.183 -0.3940 -0.0154 -0.1155
  135loPI   C2A 2152  16.793   4.773   8.753 -0.2081 -0.0092  0.0068
  135loPI   C3A 2153  16.783   4.745   8.238  0.1599 -0.1482 -0.0201
  135loPI   C4A 2154  16.813   4.766   7.752 -0.0329  0.1361 -0.3027
  135loPI   C5A 2155  16.995   4.634   7.349  0.4045 -0.0610 -0.0234
  135loPI   C6A 2156  17.060   4.294   7.133 -0.0738  0.0483  0.1811
  135loPI   C1B 2157  17.204   5.017   8.860  0.1050 -0.1167 -0.0448
  135loPI   C2B 2158  16.933   5.201   8.472 -0.0478  0.0816  0.1516
  135loPI   C3B 2159  16.986   5.202   8.094 -0.1686 -0.2603  0.2897
  135loPI   C4B 2160  16.984   5.260   7.673  0.0464  0.2052 -0.0262
  136loPI    C1 2161   6.925   4.736   9.968  0.2050 -0.0837  0.0657
  136loPI    C2 2162   6.956   5.113   9.838  0.1876 -0.1697 -0.1937
  136loPI    C3 2163   6.768   5.035  10.182 -0.0931  0.0279 -0.2989
  136loPI   PO4 2164   6.739   4.552   9.777 -0.0152  0.2174 -0.0504
  136loPI   GL1 2165   6.634   4.446   9.385  0.1262 -0.0040 -0.0792
  136loPI   GL2 2166   6.800   4.153   9.422 -0.0075 -0.0011  0.1220
  136loPI   C1A 2167   6.344   4.620   9.069 -0.2582  0.2136  0.1511
  136loPI   C2A 2168   6.181   4.769   8.701  0.0015  0.0493  0.5529
  136loPI   C3A 2169   6.268   4.552   8.230 -0.3151 -0.0762  0.0819
  136loPI   C4A 2170   6.326   4.242   7.980 -0.1488  0.2244 -0.1242
  136loPI   C5A 2171   6.159   3.763   8.032  0.0487 -0.0404  0.0550
  136loPI   C6A 2172   5.922   3.503   8.041 -0.0471  0.0454 -0.2181
  136loPI   C1B 2173   6.872   4.015   8.912  0.1726 -0.0701  0.2758
  136loPI   C2B 2174   7.019   3.926   8.561  0.0157 -0.1987  0.2587
  136loPI   C3B 2175   7.172   4.087   8.233  0.0766  0.2406  0.1423
  136loPI   C4B 2176   7.304   4.414   8.112 -0.1982  0.3116 -0.3972
  137loPI    C1 2177  13.942   1.896   9.731  0.3633  0.3102  0.4538
  137loPI    C2 2178  13.550   1.819   9.749  0.3394  0.3081  0.0194
  137loPI    C3 2179  13.804   1.616   9.982  0.0839  0.3203  0.3147
  137loPI   PO4 2180  13.922   1.890   9.397 -0.0627 -0.2387  0.4977
  137loPI   GL1 2181  13.690   1.867   8.933  0.2945 -0.0123 -0.0792
  137loPI   GL2 2182  13.873   2.134   8.909 -0.0106 -0.2074  0.2474
  137loPI   C1A 2183  13.867   1.677   8.535 -0.2892 -0.1629  0.0688
  137loPI   C2A 2184  13.683   1.344   8.245  0.0545 -0.0193 -0.0564
  137loPI   C3A 2185  13.420   1.420   7.853  0.1687  0.1670 -0.0955
  137loPI   C4A 2186  13.318   1.508   7.462 -0.0142  0.0205 -0.1408
  137loPI   C5A 2187  12.927   1.600   7.159  0.0098  0.1610 -0.1131
  137loPI   C6A 2188  12.794   1.752   6.764  0.2003 -0.2486  0.3442
  137loPI   C1B 2189  14.138   2.181   8.673  0.0805 -0.1008 -0.2403
  137loPI   C2B 2190  14.134   2.017   8.272  0.0944 -0.2231 -0.1203
  137loPI   C3B 2191  14.202   1.975   7.814  0.0142 -0.0692 -0.1324
  137loPI   C4B 2192  14.456   1.707   7.640  0.0810  0.2901  0.0480
  138loPI    C1 2193  17.413  15.189  10.017  0.1097  0.0323  0.1869
  138loPI    C2 2194  17.652  15.484  10.142 -0.0041  0.2483 -0.0948
  138loPI    C3 2195  17.465  15.252  10.409  0.3124  0.2429  0.1285
  138loPI   PO4 2196  17.580  14.929   9.870  0.2216 -0.3139  0.2292
  138loPI   GL1 2197  17.901  14.906   9.581 -0.2398 -0.1611 -0.2054
  138loPI   GL2 2198  17.608  14.763   9.431 -0.1263 -0.2787 -0.1707
  138loPI   C1A 2199  17.960  15.033   9.188 -0.1789  0.0493  0.3946
  138loPI   C2A 2200  18.024  15.097   8.775 -0.1817  0.3775  0.0442
  138loPI   C3A 2201  18.290  15.057   8.424  0.0154  0.1749  0.1469
  138loPI   C4A 2202  18.604  15.103   8.099  0.0568 -0.1170 -0.2763
  138loPI   C5A 2203  18.854  15.006   7.686 -0.5258  0.2948  0.2104
  138loPI   C6A 2204  19.181  14.772   7.461  0.1341  0.1017  0.2618
  138loPI   C1B 2205  17.444  14.775   8.977 -0.1567 -0.0705 -0.1110
  138loPI   C2B 2206  17.489  14.830   8.581 -0.0105  0.0089  0.3473
  138loPI   C3B 2207  17.531  14.912   8.210  0.0233  0.0692 -0.1400
  138loPI   C4B 2208  17.476  14.974   7.764 -0.1243 -0.3119 -0.0316
  139loPI    C1 2209   4.066  18.540  10.604 -0.0870  0.0846  0.2735
  139loPI    C2 2210   3.979  18.167  10.719  0.0653 -0.0402 -0.0037
  139loPI    C3 2211   4.323  18.336  10.833  0.0136  0.0031  0.0900
  139loPI   PO4 2212   4.028  18.558  10.360 -0.2713 -0.4356  0.3101
  139loPI   GL1 2213   4.229  18.469   9.981 -0.3557  0.1682  0.4519
  139loPI   GL2 2214   3.887  18.443   9.909 -0.2595 -0.0371  0.2381
  139loPI   C1A 2215   4.381  18.373   9.559  0.2208 -0.1347  0.2427
  139loPI   C2A 2216   4.149  18.315   9.100  0.1534  0.2805  0.1669
  139loPI   C3A 2217   4.055  18.456   8.664 -0.2459  0.2187 -0.2027
  139loPI   C4A 2218   4.056  18.719   8.323 -0.2430 -0.2698  0.0207
  139loPI   C5A 2219   4.275  18.854   7.979 -0.0697  0.2423 -0.0574
  139loPI   C6A 2220   4.340  19.078   7.547 -0.0028 -0.0488 -0.0678
  139loPI   C1B 2221   3.900  18.602   9.493  0.0055  0.2576  0.2349
  139loPI   C2B 2222   3.748  18.579   9.054  0.2422  0.2991  0.2394
  139loPI   C3B 2223   3.600  18.666   8.613  0.0038  0.2031 -0.0319
  139loPI   C4B 2224   3.455  18.877   8.196 -0.0038 -0.0007 -0.1240
  140loPI    C1 2225   9.847  11.138  10.298  0.1512 -0.1692 -0.0403
  140loPI    C2 2226  10.021  11.037  10.643  0.0111 -0.1298  0.0429
  140loPI    C3 2227   9.627  11.105  10.631  0.0388  0.0109 -0.0951
  140loPI   PO4 2228  10.047  11.299  10.182  0.0020 -0.1624 -0.0040
  140loPI   GL1 2229  10.024  11.479   9.757  0.1642 -0.0333  0.2339
  140loPI   GL2 2230  10.380  11.177   9.648 -0.0891 -0.2480 -0.0091
  140loPI   C1A 2231  10.138  11.504   9.327  0.1424  0.1056 -0.0963
  140loPI   C2A 2232  10.133  11.473   8.952 -0.2116 -0.3104  0.0458
  140loPI   C3A 2233  10.231  11.438   8.550  0.2171 -0.0510  0.2589
  140loPI   C4A 2234  10.070  11.201   8.263 -0.4616 -0.0007  0.0479
  140loPI   C5A 2235  10.241  11.169   7.827  0.0529 -0.1859  0.0397
  140loPI   C6A 2236   9.967  11.088   7.528 -0.2153 -0.0773  0.0261
  140loPI   C1B 2237  10.147  11.025   9.284 -0.0731 -0.0114 -0.1167
  140loPI   C2B 2238  10.047  10.922   8.877 -0.2352  0.1123 -0.1034
  140loPI   C3B 2239  10.061  10.792   8.459  0.1247  0.2942 -0.2537
  140loPI   C4B 2240   9.880  10.758   8.009  0.0783 -0.0058 -0.0451
  141loPI    C1 2241   6.006   2.731  10.412 -0.0475  0.0648  0.1517
  141loPI    C2 2242   6.400   2.735  10.339 -0.0359  0.0409  0.2121
  141loPI    C3 2243   6.244   2.456  10.579 -0.0951  0.0280  0.1588
  141loPI   PO4 2244   5.909   2.744  10.173  0.2058  0.0106 -0.0450
  141loPI   GL1 2245   5.737   2.717   9.760  0.0340  0.0425  0.0559
  141loPI   GL2 2246   5.655   2.424   9.894 -0.2029 -0.1098  0.0395
  141loPI   C1A 2247   5.399   2.903   9.449  0.0961 -0.1732  0.1408
  141loPI   C2A 2248   5.241   3.067   9.109 -0.2462 -0.0284 -0.0523
  141loPI   C3A 2249   5.103   3.269   8.691  0.2152  0.1635  0.1694
  141loPI   C4A 2250   5.182   3.484   8.333  0.3280  0.3509  0.2384
  141loPI   C5A 2251   4.986   3.603   7.899  0.1366 -0.3308 -0.1808
  141loPI   C6A 2252   5.095   3.581   7.544 -0.3285 -0.1470  0.1084
  141loPI   C1B 2253   5.505   2.375   9.381 -0.0316 -0.1988  0.0095
  141loPI   C2B 2254   5.226   2.526   9.044  0.0161  0.1565 -0.2298
  141loPI   C3B 2255   5.198   2.642   8.590  0.1276  0.0032 -0.0949
  141loPI   C4B 2256   5.183   2.960   8.315  0.2340 -0.0738 -0.0220
  142loPI    C1 2257  16.515  11.814  10.173  0.2332  0.0021 -0.0142
  142loPI    C2 2258  16.561  11.470   9.973  0.3040  0.1000 -0.1686
  142loPI    C3 2259  16.753  11.528  10.320  0.2812 -0.0209 -0.1354
  142loPI   PO4 2260  16.428  11.919   9.944  0.0662  0.1117  0.3399
  142loPI   GL1 2261  16.621  11.761   9.586  0.3173 -0.2506 -0.5983
  142loPI   GL2 2262  16.893  11.801   9.603  0.1227 -0.0150 -0.0684
  142loPI   C1A 2263  16.372  11.912   9.272  0.1557 -0.0882 -0.0293
  142loPI   C2A 2264  16.277  11.791   8.864 -0.0405 -0.1327 -0.2584
  142loPI   C3A 2265  16.389  11.806   8.435 -0.2345  0.2210  0.0690
  142loPI   C4A 2266  16.302  11.964   8.103 -0.0728 -0.0956  0.0452
  142loPI   C5A 2267  16.164  12.205   7.726 -0.4196  0.2546  0.1254
  142loPI   C6A 2268  15.862  12.479   7.536 -0.1697  0.0249  0.2090
  142loPI   C1B 2269  16.897  11.877   9.102 -0.0487 -0.0014  0.3455
  142loPI   C2B 2270  16.872  11.835   8.688 -0.0934  0.0817 -0.0655
  142loPI   C3B 2271  16.845  11.838   8.292 -0.3968 -0.0331 -0.1870
  142loPI   C4B 2272  16.721  11.782   7.869  0.1325 -0.0418 -0.3920
  143loPI    C1 2273   6.215   7.238   9.542 -0.3719  0.1067 -0.2237
  143loPI    C2 2274   6.510   7.051   9.347 -0.2605  0.0281  0.0151
  143loPI    C3 2275   6.526   7.447   9.402 -0.1522  0.0108  0.1095
  143loPI   PO4 2276   5.957   7.125   9.362 -0.5954 -0.2055  0.0735
  143loPI   GL1 2277   5.615   7.368   9.188 -0.0671  0.2069  0.0819
  143loPI   GL2 2278   5.605   7.735   9.122 -0.0700 -0.0829  0.0915
  143loPI   C1A 2279   5.503   7.331   8.758  0.1752 -0.1135  0.2817
  143loPI   C2A 2280   5.417   7.503   8.386  0.0278 -0.0002 -0.2221
  143loPI   C3A 2281   5.580   7.457   7.949 -0.1387  0.0035 -0.0523
  143loPI   C4A 2282   5.882   7.356   7.510  0.2929 -0.0048 -0.1556
  143loPI   C5A 2283   6.416   7.380   7.428 -0.0923  0.0581 -0.0960
  143loPI   C6A 2284   6.781   7.286   7.236 -0.1139  0.1450 -0.0807
  143loPI   C1B 2285   5.468   7.977   8.782  0.1163  0.1433  0.2872
  143loPI   C2B 2286   5.484   7.998   8.310 -0.2246  0.2804  0.2066
  143loPI   C3B 2287   5.325   8.000   7.919 -0.2243 -0.0598 -0.0247
  143loPI   C4B 2288   5.202   8.110   7.521  0.0444 -0.1824 -0.2073
  144loPI    C1 2289  10.262   6.602  10.096  0.3006 -0.0672 -0.0085
  144loPI    C2 2290   9.971   6.366  10.237  0.0911  0.2044  0.0212
  144loPI    C3 2291  10.341   6.336  10.384  0.0869 -0.1613 -0.0343
  144loPI   PO4 2292  10.173   6.858  10.064 -0.3364 -0.1832 -0.2914
  144loPI   GL1 2293  10.237   6.969   9.656  0.0306 -0.1111 -0.2464
  144loPI   GL2 2294  10.238   6.643   9.551 -0.1636  0.0495  0.3183
  144loPI   C1A 2295  10.470   7.021   9.235  0.1525  0.2759 -0.0162
  144loPI   C2A 2296  10.617   7.218   8.972 -0.0354  0.0659  0.2733
  144loPI   C3A 2297  10.651   7.252   8.538 -0.1493  0.2368 -0.0256
  144loPI   C4A 2298  10.429   7.191   8.202 -0.0484 -0.1655  0.0145
  144loPI   C5A 2299  10.130   7.391   7.968 -0.2497 -0.3925  0.0703
  144loPI   C6A 2300   9.824   7.601   7.688 -0.0692  0.1061  0.2315
  144loPI   C1B 2301  10.308   6.492   9.173  0.3791  0.0402 -0.0746
  144loPI   C2B 2302  10.434   6.514   8.806  0.6172  0.1090  0.3124
  144loPI   C3B 2303  10.522   6.771   8.506 -0.0337  0.0974  0.0480
  144loPI   C4B 2304  10.707   6.726   8.032  0.0716  0.1606  0.0660
  145loPI    C1 2305  19.118  12.076   9.795  0.0545 -0.0564 -0.2776
  145loPI    C2 2306  19.382  11.877  10.020 -0.0244  0.0079 -0.1270
  145loPI    C3 2307  19.505  12.075   9.695  0.0803 -0.1393 -0.1778
  145loPI   PO4 2308  18.943  11.965   9.711  0.4155  0.2975 -0.1841
  145loPI   GL1 2309  18.807  11.857   9.402 -0.1098  0.0583  0.2060
  145loPI   GL2 2310  18.693  12.091   9.284 -0.2178 -0.3789  0.1781
  145loPI   C1A 2311  18.566  11.649   9.133  0.0814 -0.1586  0.1888
  145loPI   C2A 2312  18.422  11.378   8.790 -0.6669 -0.2022  0.1065
  145loPI   C3A 2313  18.421  11.171   8.458 -0.1143 -0.1084 -0.0024
  145loPI   C4A 2314  18.703  10.975   8.163 -0.3218 -0.0167 -0.0469
  145loPI   C5A 2315  19.174  10.999   8.045 -0.1235 -0.0436  0.0401
  145loPI   C6A 2316  19.587  11.000   7.975 -0.1898  0.0511 -0.1452
  145loPI   C1B 2317  18.893  11.943   8.869  0.0332 -0.1586  0.0154
  145loPI   C2B 2318  18.716  11.850   8.484 -0.0261  0.1368  0.1037
  145loPI   C3B 2319  18.677  11.866   8.086 -0.1522 -0.0882 -0.2480
  145loPI   C4B 2320  18.582  11.763   7.717  0.2985 -0.0728 -0.0058
  146loPI    C1 2321   2.086   6.132   9.923  0.3011 -0.2254 -0.0648
  146loPI    C2 2322   2.333   6.443   9.876  0.2390 -0.1617  0.0271
  146loPI    C3 2323   2.376   6.200  10.190 -0.0834  0.1023  0.2832
  146loPI   PO4 2324   1.949   5.999   9.773 -0.2623 -0.2728  0.1691
  146loPI   GL1 2325   2.136   5.953   9.439 -0.1137  0.1066  0.0423
  146loPI   GL2 2326   2.421   6.168   9.436  0.0929  0.1453  0.1333
  146loPI   C1A 2327   2.059   6.051   8.880  0.2788 -0.3078 -0.0402
  146loPI   C2A 2328   2.185   5.826   8.501 -0.0255  0.1154  0.0096
  146loPI   C3A 2329   2.314   5.744   8.067  0.1196 -0.0129  0.1488
  146loPI   C4A 2330   2.356   5.545   7.631  0.2482  0.1782 -0.3301
  146loPI   C5A 2331   2.388   5.222   7.256  0.2482 -0.2534  0.1114
  146loPI   C6A 2332   2.610   4.912   6.922 -0.0800  0.0221  0.2490
  146loPI   C1B 2333   2.537   6.284   9.075  0.0139  0.3310 -0.2810
  146loPI   C2B 2334   2.797   6.467   8.862 -0.1276  0.2176 -0.0193
  146loPI   C3B 2335   2.820   6.503   8.431 -0.2370  0.3399 -0.2595
  146loPI   C4B 2336   2.832   6.594   7.992 -0.0792  0.0477 -0.1555
  147loPI    C1 2337  14.272   3.257   9.639  0.0749 -0.0474  0.0695
  147loPI    C2 2338  14.298   3.511   9.947  0.4532 -0.2687  0.2268
  147loPI    C3 2339  14.044   3.203   9.963  0.0919  0.0145  0.0920
  147loPI   PO4 2340  14.304   3.416   9.442 -0.3443  0.0767 -0.0651
  147loPI   GL1 2341  14.727   3.441   9.246 -0.2555 -0.1419 -0.1515
  147loPI   GL2 2342  15.012   3.322   9.282 -0.1323 -0.0551  0.0070
  147loPI   C1A 2343  14.944   3.771   8.909 -0.0383  0.0769  0.2686
  147loPI   C2A 2344  15.057   4.111   8.645  0.0323  0.2318  0.0720
  147loPI   C3A 2345  15.181   4.453   8.322  0.0107  0.0036  0.0505
  147loPI   C4A 2346  15.331   4.670   7.996 -0.2672  0.0326 -0.1895
  147loPI   C5A 2347  15.302   4.945   7.663 -0.0572 -0.1971 -0.0540
  147loPI   C6A 2348  15.470   5.062   7.316 -0.0204 -0.0113 -0.1937
  147loPI   C1B 2349  15.249   3.338   8.864  0.0647  0.2554 -0.0098
  147loPI   C2B 2350  15.246   3.493   8.533  0.1799 -0.0137  0.1564
  147loPI   C3B 2351  15.238   3.762   8.266 -0.0657 -0.0606 -0.0392
  147loPI   C4B 2352  15.373   4.078   7.991  0.0710 -0.1324  0.0267
  148loPI    C1 2353  10.161  19.062  10.120  0.3531 -0.0063 -0.0922
  148loPI    C2 2354  10.318  18.701  10.195 -0.0616 -0.1638  0.0460
  148loPI    C3 2355  10.036  18.851  10.436 -0.0312  0.1710 -0.1202
  148loPI   PO4 2356  10.060  19.096   9.862  0.1592 -0.0235 -0.2596
  148loPI   GL1 2357   9.975  19.166   9.428 -0.1952  0.1599  0.0887
  148loPI   GL2 2358  10.147  19.021   9.235 -0.3189 -0.0977 -0.2112
  148loPI   C1A 2359   9.740  19.273   9.086 -0.1167  0.3303 -0.1070
  148loPI   C2A 2360   9.560  19.493   8.742  0.0145  0.0928  0.2586
  148loPI   C3A 2361   9.641  19.565   8.361 -0.2119  0.2684 -0.2370
  148loPI   C4A 2362   9.632  19.537   7.946  0.0481 -0.0222 -0.0868
  148loPI   C5A 2363   9.917  19.432   7.710 -0.0065 -0.0951 -0.1111
  148loPI   C6A 2364  10.157  19.348   7.484  0.0067 -0.0308 -0.2355
  148loPI   C1B 2365  10.081  18.971   8.823 -0.1471 -0.1260  0.0893
  148loPI   C2B 2366   9.734  18.830   8.492 -0.2588  0.0186  0.1279
  148loPI   C3B 2367   9.899  18.582   8.214  0.1587  0.0005  0.0853
  148loPI   C4B 2368   9.887  18.335   7.844  0.0557 -0.1254 -0.1766
  149loPI    C1 2369  16.500  14.211   9.905  0.0704  0.1281 -0.1048
  149loPI    C2 2370  16.302  14.011  10.189  0.1706  0.0326 -0.1018
  149loPI    C3 2371  16.397  14.395  10.245  0.1427  0.0290 -0.0285
  149loPI   PO4 2372  16.343  14.134   9.727 -0.1875 -0.2411  0.0389
  149loPI   GL1 2373  16.387  13.886   9.303 -0.0225  0.1256 -0.0944
  149loPI   GL2 2374  16.587  14.113   9.225  0.2231 -0.1898  0.1097
  149loPI   C1A 2375  16.244  13.886   8.826 -0.0192 -0.1364 -0.0908
  149loPI   C2A 2376  16.159  13.991   8.427 -0.2103  0.1324 -0.0902
  149loPI   C3A 2377  16.021  13.866   8.029 -0.0475  0.1039 -0.0519
  149loPI   C4A 2378  15.975  14.013   7.608 -0.1342  0.4962  0.0976
  149loPI   C5A 2379  15.972  13.918   7.174  0.2566 -0.0732  0.0692
  149loPI   C6A 2380  16.023  13.764   6.877  0.0473 -0.1089  0.0424
  149loPI   C1B 2381  16.707  14.229   8.800  0.0345  0.0018  0.1539
  149loPI   C2B 2382  16.639  14.327   8.382  0.0464  0.0088 -0.4500
  149loPI   C3B 2383  16.727  14.276   7.905 -0.0853  0.3266  0.2127
  149loPI   C4B 2384  16.888  14.412   7.536  0.1776  0.4323 -0.2548
  150loPI    C1 2385  17.202  13.941  10.109 -0.0323 -0.0430 -0.0333
  150loPI    C2 2386  16.806  13.880  10.119 -0.0071 -0.2134 -0.0328
  150loPI    C3 2387  17.053  13.618  10.293  0.1062 -0.1064 -0.0311
  150loPI   PO4 2388  17.250  14.131   9.783 -0.0191 -0.2573 -0.0379
  150loPI   GL1 2389  17.233  14.017   9.364 -0.0250 -0.2694  0.0851
  150loPI   GL2 2390  17.211  13.821   9.212 -0.2750  0.3595  0.0955
  150loPI   C1A 2391  17.639  14.296   9.141 -0.0194  0.0734 -0.3348
  150loPI   C2A 2392  17.585  14.335   8.700 -0.0846  0.0507  0.0910
  150loPI   C3A 2393  17.559  14.449   8.282  0.1154 -0.0422  0.3760
  150loPI   C4A 2394  17.666  14.436   7.864 -0.1715  0.1606 -0.1315
  150loPI   C5A 2395  17.573  14.604   7.483  0.1159  0.0118 -0.0726
  150loPI   C6A 2396  17.316  14.510   7.150  0.2216  0.0392  0.4072
  150loPI   C1B 2397  17.152  13.981   8.781  0.0137  0.2833  0.0138
  150loPI   C2B 2398  17.072  14.068   8.346 -0.0813 -0.0422 -0.1022
  150loPI   C3B 2399  17.251  14.097   7.932 -0.2075 -0.2208  0.1009
  150loPI   C4B 2400  17.279  14.148   7.462  0.0773  0.0433 -0.2122
  151loPI    C1 2401   2.017   8.282   9.648 -0.1335  0.0025 -0.1781
  151loPI    C2 2402   1.978   7.983   9.911  0.0635 -0.0363 -0.1910
  151loPI    C3 2403   2.111   8.339  10.033  0.0574 -0.0242 -0.2196
  151loPI   PO4 2404   2.123   8.119   9.466 -0.1420 -0.1905  0.1932
  151loPI   GL1 2405   2.412   7.816   9.263 -0.2046 -0.4996  0.0321
  151loPI   GL2 2406   2.764   7.797   9.146  0.0345 -0.2522  0.1413
  151loPI   C1A 2407   2.162   7.745   8.879 -0.0336 -0.2926  0.1142
  151loPI   C2A 2408   2.180   7.716   8.450 -0.1907 -0.3556 -0.5151
  151loPI   C3A 2409   2.404   7.468   8.136 -0.4193  0.1912  0.1914
  151loPI   C4A 2410   2.504   7.216   7.756 -0.0122 -0.1073 -0.0946
  151loPI   C5A 2411   2.672   6.906   7.615 -0.0808 -0.0134 -0.1229
  151loPI   C6A 2412   2.585   6.590   7.273 -0.0130 -0.0213  0.0146
  151loPI   C1B 2413   2.619   7.755   8.749  0.0218 -0.1065 -0.0394
  151loPI   C2B 2414   2.629   7.964   8.350  0.2438  0.0903 -0.2437
  151loPI   C3B 2415   2.517   7.960   7.926  0.2916  0.0075 -0.2329
  151loPI   C4B 2416   2.474   8.172   7.487 -0.0792 -0.2741  0.0791
  152loPI    C1 2417  17.077  12.653  10.312 -0.0810  0.0775  0.0675
  152loPI    C2 2418  16.834  12.526  10.603  0.0113 -0.0583  0.0856
  152loPI    C3 2419  17.173  12.329  10.525 -0.0337 -0.0481 -0.1422
  152loPI   PO4 2420  16.911  12.788  10.109  0.1260 -0.0228  0.1029
  152loPI   GL1 2421  16.812  12.753   9.668  0.2229  0.2359 -0.1027
  152loPI   GL2 2422  16.838  13.059   9.447 -0.2811 -0.0385  0.0653
  152loPI   C1A 2423  16.440  12.720   9.374 -0.2714 -0.1788  0.1796
  152loPI   C2A 2424  16.212  12.793   9.100 -0.2686 -0.0335 -0.3825
  152loPI   C3A 2425  16.261  12.926   8.618  0.1185 -0.2968 -0.1543
  152loPI   C4A 2426  16.254  12.812   8.193 -0.2041 -0.1509 -0.0949
  152loPI   C5A 2427  16.241  12.684   7.812  0.3324  0.2000  0.2970
  152loPI   C6A 2428  16.085  12.932   7.399 -0.1173 -0.0845 -0.3312
  152loPI   C1B 2429  16.756  13.163   8.956 -0.0404  0.0909  0.0841
  152loPI   C2B 2430  16.770  13.284   8.519 -0.2464  0.1277  0.0486
  152loPI   C3B 2431  16.798  13.287   8.078 -0.1708 -0.2033 -0.0392
  152loPI   C4B 2432  16.851  13.402   7.609  0.1848 -0.1608 -0.1348
  153loPI    C1 2433   2.624  14.159   9.941  0.0937  0.1176  0.2489
  153loPI    C2 2434   2.664  13.923  10.262 -0.0571 -0.0972  0.1127
  153loPI    C3 2435   2.338  13.894  10.032 -0.0471  0.2019  0.0566
  153loPI   PO4 2436   2.855  14.224   9.703  0.0215  0.2359  0.2055
  153loPI   GL1 2437   2.839  13.966   9.338  0.1514 -0.1067  0.1227
  153loPI   GL2 2438   2.730  13.699   9.153  0.1385  0.3118  0.2616
  153loPI   C1A 2439   3.102  13.986   8.938 -0.2639  0.3644  0.0115
  153loPI   C2A 2440   3.077  14.037   8.550 -0.2523  0.3016  0.3502
  153loPI   C3A 2441   3.073  14.276   8.136 -0.1234  0.0609 -0.2304
  153loPI   C4A 2442   3.027  14.397   7.648 -0.3640  0.2243 -0.1145
  153loPI   C5A 2443   3.435  14.561   7.370 -0.0122  0.1659  0.3967
  153loPI   C6A 2444   3.775  14.913   7.303 -0.0615 -0.2404  0.1611
  153loPI   C1B 2445   2.613  13.907   8.695  0.2183 -0.3111 -0.1436
  153loPI   C2B 2446   2.639  14.063   8.337  0.2353 -0.1175  0.0852
  153loPI   C3B 2447   2.498  14.283   7.998  0.0538  0.0888 -0.5260
  153loPI   C4B 2448   2.578  14.390   7.608 -0.0139 -0.0772 -0.1692
  154loPI    C1 2449   8.620   9.355   9.846 -0.1197  0.1364  0.0487
  154loPI    C2 2450   8.454   8.996   9.785 -0.0967  0.1595 -0.1550
  154loPI    C3 2451   8.564   9.106  10.154 -0.1103 -0.0396 -0.0908
  154loPI   PO4 2452   8.789   9.375   9.705 -0.0199  0.2162  0.2313
  154loPI   GL1 2453   8.953   9.547   9.402  0.0813 -0.0493 -0.2480
  154loPI   GL2 2454   8.681   9.815   9.531  0.0923 -0.1296 -0.1551
  154loPI   C1A 2455   8.812   9.526   9.033  0.0360  0.1877  0.0234
  154loPI   C2A 2456   8.907   9.500   8.626 -0.0040  0.0732  0.2342
  154loPI   C3A 2457   9.224   9.409   8.229 -0.1203 -0.0619  0.1492
  154loPI   C4A 2458   9.153   9.239   7.826  0.1393 -0.0955 -0.2055
  154loPI   C5A 2459   8.867   9.420   7.528 -0.1279  0.0427 -0.1096
  154loPI   C6A 2460   8.430   9.548   7.467  0.3870 -0.0321 -0.0670
  154loPI   C1B 2461   8.912  10.012   9.167  0.0927 -0.0502 -0.2585
  154loPI   C2B 2462   8.795   9.984   8.708 -0.2115  0.5244  0.0355
  154loPI   C3B 2463   8.748   9.889   8.236 -0.0111  0.3193 -0.1248
  154loPI   C4B 2464   8.580   9.993   7.835  0.0638 -0.0737  0.0814
  155loPI    C1 2465  15.323   3.607   9.717  0.0827  0.0760 -0.1318
  155loPI    C2 2466  15.243   3.216   9.741 -0.0811  0.1125 -0.0608
  155loPI    C3 2467  15.121   3.462  10.031 -0.1284  0.2410 -0.1887
  155loPI   PO4 2468  15.551   3.592   9.605 -0.3130  0.1828  0.1669
  155loPI   GL1 2469  15.813   3.623   9.187 -0.0232 -0.1278 -0.0336
  155loPI   GL2 2470  16.031   3.442   9.273 -0.0527  0.2395  0.1480
  155loPI   C1A 2471  15.743   3.421   8.775  0.0404  0.1277 -0.3048
  155loPI   C2A 2472  15.693   3.399   8.356  0.3442  0.0720 -0.1217
  155loPI   C3A 2473  15.691   3.117   8.049 -0.0282  0.1157  0.0584
  155loPI   C4A 2474  15.720   3.192   7.607 -0.0006  0.0284  0.0540
  155loPI   C5A 2475  15.917   3.465   7.338 -0.0403 -0.1241 -0.0581
  155loPI   C6A 2476  16.207   3.689   7.661 -0.0866 -0.2391  0.3192
  155loPI   C1B 2477  16.230   3.256   8.898  0.2585  0.3845  0.0301
  155loPI   C2B 2478  16.482   3.179   8.487  0.1962 -0.0005 -0.0062
  155loPI   C3B 2479  16.710   3.285   8.206 -0.1364 -0.0339  0.2210
  155loPI   C4B 2480  16.840   3.201   7.801  0.3650  0.2158 -0.2098
  156loPI    C1 2481  14.668  18.363   9.937  0.1816  0.1516  0.0426
  156loPI    C2 2482  14.802  18.049  10.145 -0.0443  0.0372  0.0189
  156loPI    C3 2483  14.442  18.203  10.226 -0.0858  0.0631 -0.2109
  156loPI   PO4 2484  14.777  18.220   9.679 -0.1001 -0.1786 -0.0374
  156loPI   GL1 2485  14.513  18.149   9.380  0.2565 -0.0609 -0.0349
  156loPI   GL2 2486  14.317  17.893   9.313  0.0386 -0.2018 -0.1902
  156loPI   C1A 2487  14.357  18.168   8.915 -0.0285 -0.1045 -0.1188
  156loPI   C2A 2488  14.401  18.007   8.497  0.0219  0.0949  0.2657
  156loPI   C3A 2489  14.423  17.820   8.127 -0.1362  0.3403 -0.0402
  156loPI   C4A 2490  14.591  17.849   7.680  0.1450  0.2545  0.0272
  156loPI   C5A 2491  14.805  17.753   7.375 -0.1150 -0.1233 -0.1670
  156loPI   C6A 2492  14.797  17.533   6.953  0.1345 -0.1632  0.3007
  156loPI   C1B 2493  14.108  17.749   8.930 -0.0066 -0.2742  0.1268
  156loPI   C2B 2494  14.063  17.569   8.499 -0.0196 -0.2085 -0.3743
  156loPI   C3B 2495  13.949  17.472   8.172 -0.1555 -0.0437 -0.0094
  156loPI   C4B 2496  13.700  17.723   8.003 -0.0768  0.2693 -0.0913
  157loPI    C1 2497   1.661   0.952  10.131  0.1787 -0.0635 -0.0035
  157loPI    C2 2498   1.581   1.007   9.743 -0.1050  0.0279  0.0652
  157loPI    C3 2499   1.495   0.658   9.918 -0.0370  0.0090  0.0614
  157loPI   PO4 2500   1.622   1.218  10.234  0.0781 -0.0426  0.2906
  157loPI   GL1 2501   1.489   1.489  10.015 -0.0040  0.1357 -0.0982
  157loPI   GL2 2502   1.184   1.607   9.999 -0.0927  0.1628  0.2179
  157loPI   C1A 2503   1.524   1.433   9.492  0.0324  0.0908 -0.0144
  157loPI   C2A 2504   1.702   1.388   9.138  0.0065 -0.0301  0.0116
  157loPI   C3A 2505   1.762   1.046   8.791 -0.1814 -0.0622  0.0501
  157loPI   C4A 2506   1.476   1.062   8.457  0.2568  0.0440 -0.1539
  157loPI   C5A 2507   1.470   1.208   8.131 -0.0987 -0.1774 -0.0778
  157loPI   C6A 2508   1.592   1.283   7.690 -0.0577 -0.2890  0.2400
  157loPI   C1B 2509   1.445   1.874   9.648 -0.0621 -0.2846 -0.3042
  157loPI   C2B 2510   1.568   1.900   9.244 -0.0806 -0.0581  0.0267
  157loPI   C3B 2511   1.761   1.981   8.937 -0.0003 -0.1623 -0.3527
  157loPI   C4B 2512   1.814   2.306   8.608 -0.0221 -0.0020  0.1874
  158loPI    C1 2513   1.789  10.413   9.706  0.0795 -0.2502 -0.0582
  158loPI    C2 2514   1.799  10.112   9.969  0.0435 -0.1486  0.0604
  158loPI    C3 2515   1.807  10.491  10.098 -0.2468 -0.0955 -0.0709
  158loPI   PO4 2516   1.886  10.336   9.481 -0.1285 -0.3388  0.2626
  158loPI   GL1 2517   1.926  10.228   9.080  0.2355  0.1246 -0.1133
  158loPI   GL2 2518   1.621  10.073   8.983 -0.2056  0.1375 -0.0008
  158loPI   C1A 2519   2.131  10.075   8.658  0.1985  0.1794  0.1529
  158loPI   C2A 2520   2.410  10.181   8.278  0.3731 -0.7388 -0.0758
  158loPI   C3A 2521   2.506  10.169   7.845  0.3752 -0.1756  0.0841
  158loPI   C4A 2522   2.636  10.135   7.456 -0.1851 -0.0236 -0.1371
  158loPI   C5A 2523   3.034   9.985   7.385 -0.0071  0.1855  0.2581
  158loPI   C6A 2524   3.422  10.019   7.071  0.1621 -0.0430 -0.0943
  158loPI   C1B 2525   1.629  10.301   8.569  0.1930  0.1652 -0.2572
  158loPI   C2B 2526   1.858  10.258   8.235  0.0965  0.0729  0.5449
  158loPI   C3B 2527   2.065  10.459   7.807 -0.1068 -0.3099 -0.1474
  158loPI   C4B 2528   2.369  10.699   7.445 -0.1075  0.1003  0.0431
  159loPI    C1 2529  11.013   9.736   9.973  0.2242 -0.0694  0.0423
  159loPI    C2 2530  10.637   9.610  10.029  0.1346  0.1135 -0.1352
  159loPI    C3 2531  10.888   9.636  10.340 -0.0003 -0.0040 -0.0150
  159loPI   PO4 2532  11.117   9.598   9.762 -0.1977 -0.1294 -0.3606
  159loPI   GL1 2533  11.003   9.499   9.433  0.0073 -0.0821 -0.1028
  159loPI   GL2 2534  10.593   9.503   9.475 -0.1902 -0.0790 -0.1780
  159loPI   C1A 2535  11.392   9.356   9.145  0.0572 -0.4086 -0.1334
  159loPI   C2A 2536  11.402   9.371   8.706 -0.0816  0.0682 -0.2804
  159loPI   C3A 2537  11.324   9.275   8.333  0.1508 -0.0412  0.1613
  159loPI   C4A 2538  11.384   8.922   7.998 -0.1089  0.2091  0.1233
  159loPI   C5A 2539  11.499   8.433   7.971  0.1638 -0.1344 -0.3202
  159loPI   C6A 2540  11.584   8.038   7.961  0.2060  0.1611 -0.2442
  159loPI   C1B 2541  10.614   9.569   9.128 -0.5161 -0.0640  0.1370
  159loPI   C2B 2542  10.523   9.798   8.752 -0.0374  0.0927 -0.2754
  159loPI   C3B 2543  10.584   9.827   8.331  0.1738 -0.1119 -0.0099
  159loPI   C4B 2544  10.430   9.834   7.918  0.1645 -0.1099  0.2502
  160loPI    C1 2545  18.055   8.193   9.544  0.0854  0.1130 -0.1012
  160loPI    C2 2546  18.154   8.522   9.748 -0.0537  0.1058 -0.0210
  160loPI    C3 2547  18.134   8.169   9.935  0.1723  0.0368 -0.1231
  160loPI   PO4 2548  18.201   8.111   9.326 -0.1260  0.1430 -0.0148
  160loPI   GL1 2549  17.989   7.903   9.119 -0.3273  0.3647 -0.1714
  160loPI   GL2 2550  17.757   7.801   9.165 -0.1573 -0.1027  0.0638
  160loPI   C1A 2551  18.101   7.886   8.743 -0.4552 -0.0546  0.0974
  160loPI   C2A 2552  18.085   7.858   8.287  0.1789  0.1023 -0.0798
  160loPI   C3A 2553  18.083   7.715   7.864 -0.0251  0.1643 -0.0447
  160loPI   C4A 2554  18.041   7.711   7.491 -0.2461 -0.3611  0.1057
  160loPI   C5A 2555  18.231   7.881   7.054  0.1039  0.3381 -0.1157
  160loPI   C6A 2556  18.356   8.107   6.717  0.0950 -0.0188  0.0680
  160loPI   C1B 2557  17.651   7.581   8.894  0.0013  0.2221  0.2014
  160loPI   C2B 2558  17.729   7.455   8.534 -0.0855  0.0794 -0.1593
  160loPI   C3B 2559  17.643   7.628   8.107  0.4636  0.0288 -0.1771
  160loPI   C4B 2560  17.404   7.558   7.797  0.3347  0.1679  0.0150
  161loPI    C1 2561   7.882   8.248  10.379 -0.0291 -0.0666  0.0689
  161loPI    C2 2562   7.908   8.532  10.660  0.0832 -0.1232  0.1165
  161loPI    C3 2563   7.845   8.152  10.766  0.0064 -0.1271  0.0574
  161loPI   PO4 2564   7.646   8.391  10.095 -0.2432 -0.1400 -0.1835
  161loPI   GL1 2565   7.680   8.365   9.715  0.0342 -0.4436 -0.2952
  161loPI   GL2 2566   7.485   8.560   9.536  0.0588 -0.2159  0.0559
  161loPI   C1A 2567   7.838   8.289   9.268  0.2960  0.3343 -0.0566
  161loPI   C2A 2568   7.967   8.419   8.831 -0.0615  0.0528  0.0736
  161loPI   C3A 2569   8.023   8.220   8.451  0.2188 -0.3120 -0.0900
  161loPI   C4A 2570   8.087   8.387   8.059  0.0406  0.1579 -0.1405
  161loPI   C5A 2571   7.930   8.320   7.648 -0.0161 -0.3168  0.1385
  161loPI   C6A 2572   7.686   8.346   7.407  0.5437 -0.3471 -0.0183
  161loPI   C1B 2573   7.703   8.826   9.249 -0.1769  0.1013  0.1606
  161loPI   C2B 2574   7.973   8.870   8.995  0.2398  0.1528  0.2395
  161loPI   C3B 2575   8.139   8.848   8.607  0.0924  0.5827  0.6898
  161loPI   C4B 2576   8.371   8.723   8.211  0.0568 -0.1068 -0.0888
  162loPI    C1 2577  15.602  16.798   9.634 -0.0129  0.2229  0.1482
  162loPI    C2 2578  15.943  16.588   9.634 -0.1605 -0.0217  0.0660
  162loPI    C3 2579  15.646  16.488   9.883 -0.2134  0.1231  0.0622
  162loPI   PO4 2580  15.607  16.949   9.536  0.2486  0.0831  0.0636
  162loPI   GL1 2581  15.927  17.076   9.235 -0.0397  0.0587  0.0067
  162loPI   GL2 2582  15.835  17.360   9.199  0.0053  0.1826  0.3453
  162loPI   C1A 2583  16.064  17.083   8.757  0.0002 -0.0271 -0.1206
  162loPI   C2A 2584  16.486  17.241   8.464 -0.0965  0.1052  0.0714
  162loPI   C3A 2585  16.534  17.196   7.964 -0.0808 -0.1568  0.1260
  162loPI   C4A 2586  16.714  17.123   7.600  0.3549  0.0265 -0.0744
  162loPI   C5A 2587  16.945  16.870   7.642  0.0997 -0.1360 -0.2659
  162loPI   C6A 2588  17.040  16.492   7.913 -0.0511 -0.0896  0.3818
  162loPI   C1B 2589  15.496  17.220   8.876 -0.1958  0.0947 -0.1607
  162loPI   C2B 2590  15.371  17.343   8.472  0.2624 -0.0210 -0.0669
  162loPI   C3B 2591  15.521  17.551   8.171 -0.1641 -0.1688  0.2415
  162loPI   C4B 2592  15.729  17.874   7.912 -0.2348  0.1093  0.0764
  163loPI    C1 2593  15.099  15.769  10.301  0.0440 -0.0377 -0.0754
  163loPI    C2 2594  14.717  15.730  10.414  0.1025 -0.0582  0.1192
  163loPI    C3 2595  15.009  15.583  10.644  0.2282 -0.0409 -0.0280
  163loPI   PO4 2596  15.142  15.641  10.151 -0.1818  0.1995 -0.1404
  163loPI   GL1 2597  15.128  15.398   9.798 -0.4715  0.1272  0.0545
  163loPI   GL2 2598  15.179  15.096   9.772 -0.0871 -0.0424  0.1403
  163loPI   C1A 2599  15.254  15.553   9.357  0.4511  0.3795 -0.1802
  163loPI   C2A 2600  15.295  15.485   8.919 -0.0159 -0.0237  0.0651
  163loPI   C3A 2601  15.294  15.716   8.487 -0.2313 -0.0479  0.0699
  163loPI   C4A 2602  15.284  15.494   8.102  0.0787  0.0841  0.0078
  163loPI   C5A 2603  15.270  15.391   7.715  0.1239  0.0326  0.3225
  163loPI   C6A 2604  15.244  15.546   7.264 -0.0900  0.2529  0.2795
  163loPI   C1B 2605  15.430  14.974   9.382 -0.1285  0.1048  0.1100
  163loPI   C2B 2606  15.415  14.986   8.906  0.0004 -0.0131  0.0184
  163loPI   C3B 2607  15.521  15.150   8.478  0.2144 -0.0832 -0.3685
  163loPI   C4B 2608  15.480  15.075   8.089 -0.2149 -0.0618  0.0312
  164loPI    C1 2609  19.158  15.197  10.170 -0.1429  0.1230  0.1404
  164loPI    C2 2610  19.358  15.142  10.512  0.1665 -0.0587 -0.0648
  164loPI    C3 2611  19.123  14.851  10.369  0.0206  0.0253  0.0024
  164loPI   PO4 2612  19.302  15.257   9.990  0.0318  0.1452 -0.0494
  164loPI   GL1 2613  19.309  15.194   9.613 -0.4892 -0.0505 -0.2837
  164loPI   GL2 2614  19.507  14.922   9.570  0.0802 -0.0974  0.2102
  164loPI   C1A 2615  19.428  15.302   9.128 -0.1309  0.0714  0.2427
  164loPI   C2A 2616  19.361  15.461   8.736 -0.0161 -0.0161  0.2571
  164loPI   C3A 2617  19.460  15.511   8.230  0.1683 -0.1663  0.0183
  164loPI   C4A 2618  19.486  15.570   7.742  0.1851  0.0958  0.1411
  164loPI   C5A 2619  19.513  15.995   7.532 -0.0432 -0.2326  0.2095
  164loPI   C6A 2620  19.411  16.317   7.173  0.1436 -0.2109  0.0456
  164loPI   C1B 2621  19.571  14.461   9.507  0.2474 -0.2031 -0.0070
  164loPI   C2B 2622  19.599  14.656   9.096 -0.0813  0.1007  0.1369
  164loPI   C3B 2623  19.717  14.598   8.556 -0.2004 -0.0480 -0.1156
  164loPI   C4B 2624  19.487  14.543   8.115  0.1446  0.0646  0.0756
  165loPI    C1 2625  15.130   6.060  10.177 -0.2397 -0.3141  0.0453
  165loPI    C2 2626  15.085   6.452  10.246  0.2604 -0.2624  0.1214
  165loPI    C3 2627  14.853   6.187  10.436  0.2755 -0.0270  0.4779
  165loPI   PO4 2628  15.213   6.093   9.903 -0.0091  0.0521  0.0499
  165loPI   GL1 2629  15.056   6.071   9.628  0.2496  0.1421 -0.1854
  165loPI   GL2 2630  14.736   6.162   9.554 -0.1285  0.0387  0.0202
  165loPI   C1A 2631  15.190   6.315   9.289 -0.0284 -0.0492 -0.0862
  165loPI   C2A 2632  15.205   6.441   8.868  0.0235 -0.0883 -0.0015
  165loPI   C3A 2633  15.134   6.491   8.454 -0.0072 -0.0050 -0.0930
  165loPI   C4A 2634  15.241   6.529   8.050  0.0125  0.0740  0.3754
  165loPI   C5A 2635  15.056   6.311   7.660 -0.3043  0.0501  0.1937
  165loPI   C6A 2636  15.265   6.016   7.364 -0.3068  0.2323  0.1079
  165loPI   C1B 2637  14.640   6.416   9.141  0.2114  0.1670 -0.1910
  165loPI   C2B 2638  14.697   6.399   8.742  0.2451 -0.0767 -0.1765
  165loPI   C3B 2639  14.689   6.613   8.492  0.1604  0.1085  0.3681
  165loPI   C4B 2640  14.648   6.834   8.067 -0.0091  0.2355 -0.0658
  166loPI    C1 2641   4.332  11.627   9.455 -0.0353  0.1033  0.3619
  166loPI    C2 2642   4.674  11.678   9.656 -0.0274  0.0947  0.3506
  166loPI    C3 2643   4.399  11.420   9.790  0.0904 -0.1075  0.2093
  166loPI   PO4 2644   4.342  11.628   9.251  0.1125 -0.2200 -0.2404
  166loPI   GL1 2645   4.510  11.789   8.848  0.3167  0.3628 -0.1343
  166loPI   GL2 2646   4.624  11.584   8.640  0.0688 -0.2176 -0.2592
  166loPI   C1A 2647   4.128  11.790   8.661 -0.0668 -0.2391 -0.0981
  166loPI   C2A 2648   4.069  11.876   8.276  0.0475 -0.0086  0.0117
  166loPI   C3A 2649   3.862  11.847   7.868  0.1598 -0.1501 -0.1886
  166loPI   C4A 2650   3.756  11.972   7.391  0.1031  0.1874  0.1503
  166loPI   C5A 2651   3.871  12.283   7.097 -0.1481  0.1188  0.2089
  166loPI   C6A 2652   4.211  12.297   6.839 -0.1044  0.0844 -0.2246
  166loPI   C1B 2653   4.475  11.705   8.230 -0.3265  0.1975  0.0472
  166loPI   C2B 2654   4.342  11.702   7.847 -0.0539  0.2733 -0.2920
  166loPI   C3B 2655   4.056  11.564   7.556  0.1875 -0.0587 -0.1458
  166loPI   C4B 2656   3.898  11.210   7.376  0.0763 -0.1210  0.0555
  167loPI    C1 2657  17.689  13.843  10.136 -0.2158 -0.0971  0.0738
  167loPI    C2 2658  17.536  13.928  10.496 -0.0095  0.0764  0.1229
  167loPI    C3 2659  17.893  13.750  10.468 -0.0836 -0.0563  0.0047
  167loPI   PO4 2660  17.669  13.985  10.016 -0.2928 -0.4761 -0.0073
  167loPI   GL1 2661  17.734  14.165   9.645  0.1579  0.0339  0.3506
  167loPI   GL2 2662  18.073  14.011   9.612  0.2109  0.1226 -0.2031
  167loPI   C1A 2663  17.666  13.750   9.408 -0.0492  0.2394 -0.0429
  167loPI   C2A 2664  17.650  13.766   8.969 -0.1211 -0.1454 -0.3281
  167loPI   C3A 2665  17.534  13.809   8.456  0.1994  0.2957 -0.2112
  167loPI   C4A 2666  17.655  13.852   8.055 -0.1225  0.0704 -0.0375
  167loPI   C5A 2667  17.683  13.991   7.607  0.0186  0.0379 -0.2944
  167loPI   C6A 2668  17.691  14.174   7.196 -0.0688 -0.1425 -0.0915
  167loPI   C1B 2669  18.074  14.124   9.239  0.1773  0.0280 -0.3230
  167loPI   C2B 2670  18.024  14.201   8.841 -0.1129  0.1679  0.0271
  167loPI   C3B 2671  17.906  14.103   8.407 -0.1081 -0.2925  0.3848
  167loPI   C4B 2672  18.152  14.236   8.039  0.0993 -0.0681  0.1134
  168loPI    C1 2673  12.914  13.593  10.340  0.0808 -0.0121 -0.4144
  168loPI    C2 2674  12.980  13.987  10.315 -0.1247  0.0663  0.1402
  168loPI    C3 2675  13.182  13.767  10.580 -0.1882 -0.1604  0.0033
  168loPI   PO4 2676  12.925  13.413  10.189  0.1118  0.1518  0.2818
  168loPI   GL1 2677  13.163  13.361   9.825 -0.1036 -0.0373  0.0385
  168loPI   GL2 2678  12.857  13.296   9.722  0.1506  0.0436  0.1564
  168loPI   C1A 2679  13.036  13.593   9.371 -0.0144 -0.3156  0.2378
  168loPI   C2A 2680  13.194  13.625   9.081  0.0990  0.1963  0.1036
  168loPI   C3A 2681  13.344  13.601   8.682 -0.3176  0.2501 -0.0075
  168loPI   C4A 2682  13.438  13.472   8.212  0.0434  0.0282 -0.1574
  168loPI   C5A 2683  13.498  13.462   7.742  0.0697  0.0840 -0.0204
  168loPI   C6A 2684  13.132  13.362   7.532 -0.0398  0.1379  0.2002
  168loPI   C1B 2685  12.896  13.138   9.270 -0.0157 -0.3313  0.1194
  168loPI   C2B 2686  13.125  13.156   8.930  0.1364 -0.1584  0.1277
  168loPI   C3B 2687  12.954  13.232   8.538  0.0957  0.2560  0.1031
  168loPI   C4B 2688  13.114  13.189   8.021  0.3710 -0.1933  0.0332
  169loPI    C1 2689   3.539  13.650   9.892  0.0867  0.1334 -0.1646
  169loPI    C2 2690   3.893  13.496   9.996  0.0508  0.0094 -0.2249
  169loPI    C3 2691   3.711  13.758  10.237  0.0331 -0.1708 -0.0395
  169loPI   PO4 2692   3.536  13.566   9.554 -0.2387  0.0612  0.3772
  169loPI   GL1 2693   3.600  13.490   9.040  0.1848  0.3483  0.1657
  169loPI   GL2 2694   3.561  13.096   9.047  0.0211 -0.4252  0.1628
  169loPI   C1A 2695   3.555  13.634   8.622 -0.1501 -0.1770  0.2193
  169loPI   C2A 2696   3.461  13.626   8.185  0.2076  0.2090  0.0020
  169loPI   C3A 2697   3.290  13.400   7.781  0.1756  0.1306 -0.0724
  169loPI   C4A 2698   3.265  13.265   7.435 -0.2247  0.3939  0.1400
  169loPI   C5A 2699   3.507  13.039   7.164  0.0642 -0.0774  0.3455
  169loPI   C6A 2700   3.851  12.891   7.149 -0.0977 -0.1923  0.0071
  169loPI   C1B 2701   3.470  13.177   8.668 -0.2647  0.1251  0.0057
  169loPI   C2B 2702   3.282  13.148   8.295 -0.2843 -0.1597  0.1822
  169loPI   C3B 2703   2.870  13.203   8.051 -0.2234  0.0633  0.1023
  169loPI   C4B 2704   2.665  13.480   7.837 -0.0784 -0.2173  0.4041
  170loPI    C1 2705  17.285  13.565   9.724 -0.1093  0.2797  0.1013
  170loPI    C2 2706  17.681  13.516   9.750 -0.1518 -0.2085 -0.0609
  170loPI    C3 2707  17.450  13.452  10.071 -0.1281 -0.2345 -0.0489
  170loPI   PO4 2708  17.164  13.449   9.497 -0.1018  0.1697 -0.0561
  170loPI   GL1 2709  17.288  13.348   9.142  0.1261 -0.3332  0.2533
  170loPI   GL2 2710  17.291  13.075   9.184 -0.1708 -0.0653 -0.1795
  170loPI   C1A 2711  17.262  13.392   8.738  0.1202 -0.1950  0.3003
  170loPI   C2A 2712  17.151  13.550   8.297 -0.0614 -0.1520  0.1610
  170loPI   C3A 2713  17.316  13.591   7.776 -0.0245 -0.3003 -0.1758
  170loPI   C4A 2714  17.404  13.611   7.345 -0.0367  0.1180  0.1104
  170loPI   C5A 2715  17.771  13.535   7.207  0.1016 -0.0611  0.0203
  170loPI   C6A 2716  18.109  13.455   6.966 -0.2247  0.2936  0.0287
  170loPI   C1B 2717  17.336  12.915   8.758 -0.0464  0.2328  0.1455
  170loPI   C2B 2718  17.234  13.036   8.282  0.0282  0.0411 -0.1240
  170loPI   C3B 2719  17.201  13.132   7.820  0.0239  0.0454  0.2817
  170loPI   C4B 2720  17.266  13.125   7.442  0.1170  0.1495 -0.0101
  171loPI    C1 2721  11.964   7.053   9.790  0.2069  0.0529 -0.0835
  171loPI    C2 2722  11.841   6.719   9.607 -0.0886  0.2360 -0.2251
  171loPI    C3 2723  11.673   7.071   9.517 -0.1266  0.3547  0.2790
  171loPI   PO4 2724  12.262   6.992   9.802 -0.0703  0.1432  0.1132
  171loPI   GL1 2725  12.598   7.153   9.490  0.0122 -0.0330  0.1409
  171loPI   GL2 2726  12.962   7.144   9.653  0.2085 -0.1684  0.0321
  171loPI   C1A 2727  12.836   7.326   9.030 -0.0053  0.1685  0.1001
  171loPI   C2A 2728  13.124   7.107   8.724 -0.0794  0.2789 -0.0583
  171loPI   C3A 2729  13.200   6.819   8.338 -0.0032  0.1025  0.0853
  171loPI   C4A 2730  13.163   6.881   7.882 -0.3420 -0.3441 -0.0552
  171loPI   C5A 2731  13.150   7.010   7.458 -0.2052  0.3486 -0.0013
  171loPI   C6A 2732  13.028   7.172   7.035  0.1567 -0.1906  0.0235
  171loPI   C1B 2733  13.101   6.933   9.255  0.1100 -0.0444  0.2012
  171loPI   C2B 2734  13.186   6.639   8.895  0.3146 -0.0419  0.2107
  171loPI   C3B 2735  13.329   6.397   8.764 -0.0631  0.2552 -0.1250
  171loPI   C4B 2736  13.344   6.348   8.332 -0.0388 -0.0510  0.0074
  172loPI    C1 2737  12.979  12.053  10.277 -0.0482 -0.0087  0.1670
  172loPI    C2 2738  13.292  12.136  10.512 -0.0051  0.0022  0.1057
  172loPI    C3 2739  13.325  11.860  10.224 -0.0069  0.1087  0.0027
  172loPI   PO4 2740  12.866  12.289  10.231  0.2245  0.1795  0.2072
  172loPI   GL1 2741  12.696  12.538   9.859 -0.0368 -0.2567  0.0346
  172loPI   GL2 2742  12.501  12.707  10.017  0.1899 -0.1078  0.0106
  172loPI   C1A 2743  12.748  12.610   9.413 -0.1516  0.1065 -0.0208
  172loPI   C2A 2744  12.764  12.678   8.975  0.0786  0.0866  0.2374
  172loPI   C3A 2745  12.696  12.773   8.533  0.0166 -0.1720 -0.0724
  172loPI   C4A 2746  12.667  13.051   8.134  0.2376 -0.0347 -0.0888
  172loPI   C5A 2747  12.635  13.143   7.762  0.0100  0.1121  0.0336
  172loPI   C6A 2748  12.709  13.033   7.359  0.0270 -0.2118 -0.0309
  172loPI   C1B 2749  12.480  12.934   9.667  0.1906  0.3639  0.0378
  172loPI   C2B 2750  12.455  12.951   9.250 -0.0741  0.0049  0.0084
  172loPI   C3B 2751  12.303  12.772   8.920 -0.1410 -0.0044 -0.0809
  172loPI   C4B 2752  12.189  12.705   8.590  0.1155 -0.0670  0.3936
  173loPI    C1 2753   6.964  14.430   9.954 -0.2315  0.0502  0.1650
  173loPI    C2 2754   7.196  14.632  10.210  0.0497 -0.0779  0.0164
  173loPI    C3 2755   6.965  14.333  10.342 -0.0213  0.0399  0.1629
  173loPI   PO4 2756   7.136  14.558   9.623 -0.0872  0.1523  0.0160
  173loPI   GL1 2757   7.094  14.668   9.275 -0.2079 -0.2257 -0.0504
  173loPI   GL2 2758   7.022  15.046   9.355  0.1104  0.0272 -0.0637
  173loPI   C1A 2759   7.074  14.577   8.918  0.0007 -0.1018 -0.2253
  173loPI   C2A 2760   6.928  14.284   8.509 -0.2432 -0.0088 -0.3945
  173loPI   C3A 2761   6.907  14.133   8.080  0.1659 -0.0434  0.0295
  173loPI   C4A 2762   6.855  14.203   7.653 -0.3631  0.0072 -0.0101
  173loPI   C5A 2763   6.713  14.255   7.232 -0.0370  0.1622  0.1616
  173loPI   C6A 2764   6.699  14.104   6.779  0.2515 -0.0360  0.1419
  173loPI   C1B 2765   7.052  15.138   8.933 -0.0235  0.3900 -0.2907
  173loPI   C2B 2766   7.193  14.955   8.530  0.1832  0.3019  0.0138
  173loPI   C3B 2767   7.274  14.933   8.211  0.2535 -0.4216  0.3787
  173loPI   C4B 2768   7.354  15.195   7.854  0.0483 -0.1083 -0.0550
  174loPI    C1 2769   6.506   1.013  10.184  0.0679 -0.1384  0.0699
  174loPI    C2 2770   6.672   1.260  10.451 -0.2548  0.0802  0.0745
  174loPI    C3 2771   6.858   0.920  10.350  0.1297  0.2561  0.1700
  174loPI   PO4 2772   6.478   1.157   9.946 -0.0533  0.1385 -0.0840
  174loPI   GL1 2773   6.664   1.427   9.693  0.0879  0.1990  0.1629
  174loPI   GL2 2774   6.822   1.217   9.594 -0.1151  0.0971  0.1658
  174loPI   C1A 2775   6.474   1.366   9.233 -0.0403 -0.0172 -0.0870
  174loPI   C2A 2776   6.059   1.523   9.064 -0.3113 -0.0138 -0.0501
  174loPI   C3A 2777   5.706   1.593   8.786  0.0562 -0.2991  0.2344
  174loPI   C4A 2778   5.521   1.764   8.416  0.2858  0.1082  0.1211
  174loPI   C5A 2779   5.515   1.827   7.957  0.2432 -0.0193  0.1499
  174loPI   C6A 2780   5.632   2.274   7.687  0.2185 -0.1427 -0.0614
  174loPI   C1B 2781   6.736   0.974   9.216 -0.1229  0.1146  0.0881
  174loPI   C2B 2782   6.668   1.111   8.787  0.0128  0.0514 -0.0101
  174loPI   C3B 2783   6.419   1.432   8.571 -0.1423  0.1353  0.0444
  174loPI   C4B 2784   6.337   1.614   8.263  0.2556  0.2184  0.1646
  175loPI    C1 2785   2.162   7.597   9.659 -0.2033 -0.2542  0.0372
  175loPI    C2 2786   2.205   7.227   9.805  0.2825 -0.1844  0.0868
  175loPI    C3 2787   2.231   7.543  10.050  0.2440 -0.1019 -0.0150
  175loPI   PO4 2788   1.898   7.611   9.529  0.3330  0.0515  0.1219
  175loPI   GL1 2789   1.801   7.551   9.099 -0.0359 -0.1605  0.0099
  175loPI   GL2 2790   1.685   7.920   9.031  0.0115  0.0374 -0.2105
  175loPI   C1A 2791   1.828   7.448   8.722  0.2747 -0.0985 -0.3706
  175loPI   C2A 2792   1.802   7.379   8.224  0.2527  0.2857 -0.0587
  175loPI   C3A 2793   1.965   7.048   7.940  0.2666  0.0888 -0.2310
  175loPI   C4A 2794   1.883   6.534   8.009  0.1795  0.1717 -0.0696
  175loPI   C5A 2795   1.673   6.188   8.108 -0.1560 -0.1479  0.2603
  175loPI   C6A 2796   1.701   6.014   8.468 -0.3160 -0.1531 -0.0004
  175loPI   C1B 2797   1.670   7.867   8.569  0.0383  0.2393 -0.1633
  175loPI   C2B 2798   1.576   7.817   8.161 -0.0067 -0.0571 -0.2541
  175loPI   C3B 2799   1.505   7.789   7.682 -0.1814 -0.0896  0.0296
  175loPI   C4B 2800   1.458   7.783   7.261  0.0283  0.0692 -0.1437
  176loPI    C1 2801  17.864  13.127   9.956  0.0315 -0.1318 -0.0214
  176loPI    C2 2802  17.622  12.992  10.244  0.1799  0.1182  0.2266
  176loPI    C3 2803  17.862  13.303  10.315  0.1585  0.2383 -0.1969
  176loPI   PO4 2804  17.779  13.021   9.712  0.2875 -0.0084  0.0517
  176loPI   GL1 2805  17.833  13.117   9.300  0.0266  0.1080 -0.0456
  176loPI   GL2 2806  17.881  12.741   9.247 -0.0752 -0.1523  0.2350
  176loPI   C1A 2807  17.831  13.243   8.861 -0.0774  0.0185  0.1070
  176loPI   C2A 2808  17.688  13.257   8.425  0.3179 -0.1227  0.0049
  176loPI   C3A 2809  17.773  13.357   7.975 -0.0531 -0.0351 -0.2529
  176loPI   C4A 2810  17.736  13.277   7.595 -0.1663 -0.1754 -0.0525
  176loPI   C5A 2811  17.841  13.084   7.302  0.1638  0.1354 -0.1000
  176loPI   C6A 2812  18.019  12.962   6.928 -0.1728 -0.0682  0.4496
  176loPI   C1B 2813  17.693  12.596   8.835  0.1619  0.2365  0.2954
  176loPI   C2B 2814  17.651  12.732   8.435 -0.0824 -0.0165  0.0602
  176loPI   C3B 2815  17.718  12.744   8.046 -0.0664  0.1580 -0.0011
  176loPI   C4B 2816  17.906  12.863   7.774 -0.0249 -0.2605  0.3668
  177loPI    C1 2817   3.198   8.518   9.932 -0.1517  0.2989  0.2790
  177loPI    C2 2818   3.238   8.820   9.673  0.0120  0.0945  0.0611
  177loPI    C3 2819   3.088   8.887  10.037 -0.0680  0.4147 -0.0278
  177loPI   PO4 2820   3.123   8.339   9.763 -0.1168  0.0068  0.0697
  177loPI   GL1 2821   3.146   8.235   9.240  0.0435  0.3379  0.1588
  177loPI   GL2 2822   3.102   8.508   9.276 -0.2898 -0.0971 -0.1906
  177loPI   C1A 2823   3.436   8.216   9.010 -0.1189  0.1810  0.3378
  177loPI   C2A 2824   3.475   8.166   8.548 -0.0058  0.0439  0.1009
  177loPI   C3A 2825   3.593   8.330   8.237 -0.1990 -0.1008  0.4312
  177loPI   C4A 2826   3.568   8.305   7.693 -0.1969 -0.0656 -0.2979
  177loPI   C5A 2827   3.474   8.331   7.235  0.2614  0.0959 -0.2575
  177loPI   C6A 2828   3.595   8.200   6.863 -0.0408 -0.1174  0.1633
  177loPI   C1B 2829   3.064   8.495   8.816  0.4773  0.2319 -0.1946
  177loPI   C2B 2830   3.109   8.506   8.370  0.0323 -0.0706 -0.3243
  177loPI   C3B 2831   3.286   8.629   7.971 -0.0355 -0.0213 -0.2611
  177loPI   C4B 2832   3.172   8.611   7.554 -0.0835 -0.1776  0.1357
  178loPI    C1 2833   0.371   4.341   9.995 -0.2298 -0.0394  0.0486
  178loPI    C2 2834   0.421   4.354  10.391 -0.0699 -0.1541  0.0330
  178loPI    C3 2835   0.219   4.645  10.206  0.0324  0.0082  0.1731
  178loPI   PO4 2836   0.240   4.092   9.926  0.1714 -0.0699 -0.3179
  178loPI   GL1 2837   0.216   3.763   9.485 -0.2501  0.0556  0.1801
  178loPI   GL2 2838   0.421   3.456   9.463 -0.3761  0.1985  0.1302
  178loPI   C1A 2839   0.429   3.857   9.046 -0.0043  0.1480  0.0233
  178loPI   C2A 2840   0.514   4.310   8.926  0.1609  0.1787 -0.4364
  178loPI   C3A 2841   0.544   4.506   8.471 -0.0547 -0.0476  0.0543
  178loPI   C4A 2842   0.457   4.782   8.135  0.0293  0.2354  0.0353
  178loPI   C5A 2843   0.389   4.481   7.870  0.3292 -0.2954  0.0804
  178loPI   C6A 2844   0.418   4.218   7.639  0.0760 -0.2601 -0.1645
  178loPI   C1B 2845   0.597   3.306   9.062  0.0672 -0.0206 -0.0595
  178loPI   C2B 2846   0.373   3.344   8.605 -0.2356  0.0298 -0.0954
  178loPI   C3B 2847   0.322   3.470   8.211 -0.1573 -0.1170 -0.0253
  178loPI   C4B 2848   0.536   3.263   7.793  0.5708 -0.0826 -0.5722
  179loPI    C1 2849   3.488  11.055   9.816 -0.0882 -0.1514 -0.0113
  179loPI    C2 2850   3.718  10.825  10.049 -0.0558 -0.1766 -0.0679
  179loPI    C3 2851   3.448  11.070  10.214  0.0551 -0.1004  0.0019
  179loPI   PO4 2852   3.710  11.031   9.584 -0.1222 -0.0811  0.1034
  179loPI   GL1 2853   3.584  11.073   9.215 -0.0772 -0.2477  0.2925
  179loPI   GL2 2854   3.364  11.240   9.026 -0.1651  0.2101 -0.0366
  179loPI   C1A 2855   3.344  10.647   9.145  0.2023 -0.0423  0.1443
  179loPI   C2A 2856   3.107  10.546   8.903  0.1169 -0.1766 -0.1601
  179loPI   C3A 2857   2.987  10.480   8.447  0.0621 -0.0282  0.0660
  179loPI   C4A 2858   2.965  10.331   8.039  0.2960  0.0160  0.0319
  179loPI   C5A 2859   2.981  10.537   7.614 -0.2299 -0.0964  0.0143
  179loPI   C6A 2860   3.052  10.398   7.188 -0.4541  0.1155  0.1396
  179loPI   C1B 2861   3.469  10.935   8.652 -0.2679  0.0103 -0.1550
  179loPI   C2B 2862   3.450  10.697   8.249  0.2142  0.1382  0.1393
  179loPI   C3B 2863   3.382  10.540   7.891  0.1683  0.0601 -0.2000
  179loPI   C4B 2864   3.427  10.293   7.531 -0.0074 -0.5010 -0.3037
  180loPI    C1 2865  11.920   0.674  10.014  0.1566 -0.0384 -0.0881
  180loPI    C2 2866  12.188   0.776  10.293 -0.0356  0.4909 -0.0873
  180loPI    C3 2867  11.805   0.720  10.394  0.0500 -0.2017 -0.0995
  180loPI   PO4 2868  11.984   0.817   9.814 -0.1084 -0.0020 -0.0257
  180loPI   GL1 2869  12.036   0.677   9.448 -0.1155  0.1158  0.2119
  180loPI   GL2 2870  12.288   0.811   9.375 -0.0179 -0.1308 -0.2129
  180loPI   C1A 2871  11.899   0.653   9.041  0.1188 -0.0538  0.4210
  180loPI   C2A 2872  11.828   0.661   8.555  0.1987 -0.0001  0.2222
  180loPI   C3A 2873  11.776   0.481   8.076  0.2449 -0.2859 -0.1036
  180loPI   C4A 2874  11.700   0.503   7.616 -0.0606  0.0356  0.0360
  180loPI   C5A 2875  11.622   0.631   7.239 -0.0680  0.0289 -0.1483
  180loPI   C6A 2876  11.773   0.646   6.857 -0.2392 -0.3443  0.1328
  180loPI   C1B 2877  12.352   0.551   9.066 -0.2149  0.1626  0.0994
  180loPI   C2B 2878  12.064   0.263   8.766  0.0267 -0.0630 -0.1116
  180loPI   C3B 2879  11.842   0.154   8.396  0.1792 -0.1425 -0.0848
  180loPI   C4B 2880  11.634  -0.028   8.009 -0.0345 -0.0217 -0.0766
  181loPI    C1 2881   4.278   5.335   9.857  0.0625  0.2661 -0.0247
  181loPI    C2 2882   4.409   5.295  10.232  0.1698  0.2835 -0.0601
  181loPI    C3 2883   4.017   5.324  10.160  0.1112 -0.2344  0.0077
  181loPI   PO4 2884   4.438   5.558   9.779 -0.0299  0.0437  0.1374
  181loPI   GL1 2885   4.408   5.834   9.467 -0.0256 -0.0727 -0.0660
  181loPI   GL2 2886   4.313   6.046   9.177 -0.3144 -0.3414  0.1775
  181loPI   C1A 2887   4.532   5.595   9.109 -0.1663  0.0904 -0.4402
  181loPI   C2A 2888   4.601   5.466   8.676  0.0380 -0.2496  0.0876
  181loPI   C3A 2889   4.574   5.704   8.344  0.0875  0.0350 -0.0665
  181loPI   C4A 2890   4.640   5.910   8.000 -0.3887  0.1002  0.1084
  181loPI   C5A 2891   4.434   6.020   7.637  0.2192 -0.0994 -0.1863
  181loPI   C6A 2892   4.061   6.025   7.411  0.2679 -0.0537 -0.1697
  181loPI   C1B 2893   4.382   5.968   8.690  0.1227 -0.0329 -0.2937
  181loPI   C2B 2894   4.220   6.045   8.339 -0.0818  0.2837 -0.0606
  181loPI   C3B 2895   4.161   5.887   8.007 -0.0260 -0.2403  0.0379
  181loPI   C4B 2896   4.215   5.610   7.752 -0.0536  0.0142  0.3620
  182loPI    C1 2897  13.109  10.577  10.471 -0.0966  0.0013 -0.1533
  182loPI    C2 2898  12.760  10.767  10.511 -0.2605 -0.2871 -0.1831
  182loPI    C3 2899  12.946  10.622  10.834  0.0403  0.2200 -0.1170
  182loPI   PO4 2900  13.029  10.425  10.248  0.1134  0.0154  0.2685
  182loPI   GL1 2901  12.876  10.486   9.883  0.2656  0.1066  0.4320
  182loPI   GL2 2902  12.812  10.319   9.491  0.1760  0.0217  0.1070
  182loPI   C1A 2903  12.927  10.815   9.626 -0.0316 -0.3381 -0.1112
  182loPI   C2A 2904  12.764  10.753   9.156 -0.0762 -0.1753  0.2093
  182loPI   C3A 2905  12.893  10.748   8.799 -0.1079  0.3006 -0.2898
  182loPI   C4A 2906  12.650  10.905   8.410 -0.0980 -0.0345 -0.1742
  182loPI   C5A 2907  12.562  11.004   7.956  0.1421 -0.2432 -0.2188
  182loPI   C6A 2908  12.522  10.767   7.617  0.4426 -0.0913  0.0105
  182loPI   C1B 2909  12.864  10.282   8.927 -0.1056 -0.1569 -0.1440
  182loPI   C2B 2910  12.916  10.362   8.466  0.3049 -0.0916  0.3419
  182loPI   C3B 2911  12.784  10.569   8.058 -0.0328 -0.2948  0.1767
  182loPI   C4B 2912  13.016  10.574   7.638  0.1054  0.2445 -0.0870
  183loPI    C1 2913   1.821  18.092  10.475 -0.2634  0.1575  0.0950
  183loPI    C2 2914   1.579  18.410  10.500 -0.1007  0.2873  0.0429
  183loPI    C3 2915   1.948  18.451  10.352 -0.0715  0.0769  0.0540
  183loPI   PO4 2916   1.695  17.851  10.282  0.4492 -0.0213  0.2520
  183loPI   GL1 2917   1.884  17.529   9.859 -0.0817  0.3040 -0.2000
  183loPI   GL2 2918   1.938  17.828   9.729 -0.2383 -0.1520  0.1482
  183loPI   C1A 2919   1.768  17.309   9.431 -0.1481 -0.1808  0.0058
  183loPI   C2A 2920   1.939  17.279   9.153  0.1083 -0.0475  0.1578
  183loPI   C3A 2921   1.911  17.253   8.686  0.0894  0.1432 -0.0027
  183loPI   C4A 2922   1.794  17.304   8.353  0.1152 -0.2410  0.1275
  183loPI   C5A 2923   1.763  17.247   7.909  0.2132  0.3251  0.0354
  183loPI   C6A 2924   1.821  16.976   7.511  0.0755 -0.1728 -0.1110
  183loPI   C1B 2925   1.910  17.770   9.312  0.1213 -0.3215  0.0012
  183loPI   C2B 2926   1.874  17.829   8.865  0.0665  0.1311 -0.1359
  183loPI   C3B 2927   2.005  17.797   8.477  0.1747  0.0165  0.0683
  183loPI   C4B 2928   1.884  17.718   8.059 -0.3955 -0.5219 -0.0365
  184loPI    C1 2929   0.215   6.527   9.634 -0.1076 -0.2502  0.0502
  184loPI    C2 2930  -0.123   6.723   9.548  0.0162 -0.0544  0.0039
  184loPI    C3 2931  -0.030   6.642   9.929  0.0740  0.1779  0.0406
  184loPI   PO4 2932   0.437   6.680   9.494  0.3280  0.0830  0.2306
  184loPI   GL1 2933   0.222   6.919   9.115 -0.1027 -0.0998 -0.3122
  184loPI   GL2 2934  -0.025   6.638   9.028  0.0700 -0.3972 -0.1222
  184loPI   C1A 2935   0.524   6.900   8.739  0.1646  0.1664 -0.0558
  184loPI   C2A 2936   0.480   7.118   8.338  0.4448  0.2519  0.0334
  184loPI   C3A 2937   0.783   7.099   7.999 -0.1759  0.0866 -0.1829
  184loPI   C4A 2938   1.184   7.004   7.815 -0.1379 -0.0539  0.0215
  184loPI   C5A 2939   1.569   7.258   7.696  0.0036  0.1193  0.2131
  184loPI   C6A 2940   1.862   7.403   7.323  0.0629  0.0088  0.1331
  184loPI   C1B 2941  -0.061   7.025   8.737  0.0123  0.3052  0.3487
  184loPI   C2B 2942  -0.031   7.090   8.383 -0.1583  0.1361  0.0560
  184loPI   C3B 2943   0.008   7.175   7.931 -0.1337 -0.0700 -0.0178
  184loPI   C4B 2944   0.177   7.071   7.512 -0.1060  0.0478  0.0504
  185loPI    C1 2945   4.441   4.330  10.620  0.2037  0.1094 -0.0435
  185loPI    C2 2946   4.578   3.981  10.758  0.0505 -0.0399 -0.2634
  185loPI    C3 2947   4.694   4.323  10.930 -0.1142 -0.2177  0.2172
  185loPI   PO4 2948   4.451   4.316  10.372  0.0557  0.3174  0.1447
  185loPI   GL1 2949   4.339   4.020  10.046  0.2447  0.1810  0.2641
  185loPI   GL2 2950   4.530   4.030   9.878 -0.3355 -0.3397  0.2200
  185loPI   C1A 2951   4.081   4.096   9.627 -0.2371  0.2785 -0.0473
  185loPI   C2A 2952   4.126   4.091   9.238  0.0366 -0.0584 -0.0053
  185loPI   C3A 2953   4.168   4.186   8.782  0.2614 -0.1773 -0.0516
  185loPI   C4A 2954   3.871   4.207   8.461 -0.3646  0.0401  0.0030
  185loPI   C5A 2955   3.607   4.173   8.188 -0.2217  0.1260  0.0426
  185loPI   C6A 2956   3.183   4.211   7.919  0.3830  0.0637 -0.0988
  185loPI   C1B 2957   4.728   4.230   9.627 -0.0722  0.1151  0.2155
  185loPI   C2B 2958   4.755   4.321   9.205 -0.1654  0.2226 -0.1105
  185loPI   C3B 2959   4.926   4.229   8.837  0.0064  0.2397 -0.1059
  185loPI   C4B 2960   4.817   4.431   8.434  0.5455  0.2530 -0.0703
  186loPI    C1 2961  10.139  16.766  10.151 -0.1418  0.1231 -0.1261
  186loPI    C2 2962   9.767  16.841  10.277 -0.1080 -0.1294  0.1349
  186loPI    C3 2963  10.064  16.806  10.542  0.1149  0.1280 -0.0756
  186loPI   PO4 2964  10.133  16.889   9.859 -0.2000 -0.1034 -0.0862
  186loPI   GL1 2965   9.841  16.933   9.557  0.0277  0.3027 -0.1206
  186loPI   GL2 2966  10.055  17.076   9.349  0.3069  0.2022 -0.3709
  186loPI   C1A 2967   9.826  16.661   9.237  0.1376  0.1639 -0.2940
  186loPI   C2A 2968   9.993  16.320   8.870 -0.1055  0.0838 -0.1315
  186loPI   C3A 2969  10.150  16.285   8.515 -0.0843 -0.2259 -0.0396
  186loPI   C4A 2970  10.249  16.482   8.082 -0.2785 -0.0150  0.1169
  186loPI   C5A 2971  10.485  16.683   7.779 -0.0544 -0.1830 -0.3505
  186loPI   C6A 2972  10.059  16.944   7.580 -0.4340 -0.1649 -0.0988
  186loPI   C1B 2973  10.435  17.261   9.213 -0.1648  0.0665  0.0787
  186loPI   C2B 2974  10.655  17.676   9.138 -0.0968  0.1350 -0.2155
  186loPI   C3B 2975  10.746  18.117   8.878 -0.0133  0.1640  0.0157
  186loPI   C4B 2976  10.707  18.249   8.496 -0.0474  0.1202  0.3335
  187loPI    C1 2977   7.133   0.828   9.891  0.1015 -0.0318  0.0582
  187loPI    C2 2978   7.253   0.564  10.167 -0.0722  0.0185  0.1842
  187loPI    C3 2979   7.363   0.948  10.196 -0.1641  0.0413  0.2332
  187loPI   PO4 2980   6.882   0.755   9.822 -0.0450  0.3293 -0.0200
  187loPI   GL1 2981   6.687   0.513   9.486  0.0166  0.1635  0.2676
  187loPI   GL2 2982   6.383   0.836   9.604 -0.2380 -0.3564  0.0927
  187loPI   C1A 2983   6.618   0.546   9.082  0.1346  0.0723  0.1765
  187loPI   C2A 2984   6.422   0.622   8.757 -0.3389  0.1619  0.1168
  187loPI   C3A 2985   6.280   0.867   8.407 -0.5025  0.0489  0.2214
  187loPI   C4A 2986   6.471   1.129   8.090  0.0013  0.0711  0.1795
  187loPI   C5A 2987   6.419   1.500   7.751  0.1753  0.1351  0.2691
  187loPI   C6A 2988   6.092   1.478   7.422  0.0785 -0.0638 -0.0078
  187loPI   C1B 2989   6.242   0.914   9.178  0.0144 -0.1885  0.0856
  187loPI   C2B 2990   6.125   1.077   8.858 -0.0493  0.1847 -0.0223
  187loPI   C3B 2991   5.976   1.259   8.413  0.0207 -0.0084 -0.2015
  187loPI   C4B 2992   6.032   1.308   7.975  0.2844 -0.2371  0.2007
  188loPI    C1 2993   5.158  18.201  10.515  0.1451  0.3612 -0.0320
  188loPI    C2 2994   4.891  17.922  10.620  0.3717  0.1011 -0.1328
  188loPI    C3 2995   4.854  18.296  10.757  0.1328 -0.0056  0.1037
  188loPI   PO4 2996   5.098  18.245  10.290 -0.0669  0.2745 -0.0795
  188loPI   GL1 2997   5.254  18.303   9.914  0.0889  0.1400 -0.2089
  188loPI   GL2 2998   5.416  18.027   9.792  0.2073 -0.0803 -0.5016
  188loPI   C1A 2999   4.884  18.581   9.664  0.0918 -0.0259  0.1907
  188loPI   C2A 3000   4.819  18.578   9.206  0.0234 -0.2416  0.0487
  188loPI   C3A 3001   4.549  18.614   9.003  0.1235  0.0328  0.1040
  188loPI   C4A 3002   4.510  18.634   8.544 -0.1258  0.4100 -0.0725
  188loPI   C5A 3003   4.641  18.466   8.102 -0.0197  0.1683  0.0090
  188loPI   C6A 3004   4.686  18.547   7.703  0.0665 -0.1921 -0.2193
  188loPI   C1B 3005   5.116  18.181   9.351  0.0235  0.2936 -0.0065
  188loPI   C2B 3006   5.092  18.235   9.015 -0.2128  0.0473 -0.0233
  188loPI   C3B 3007   5.403  18.175   8.681  0.4135  0.0120  0.0913
  188loPI   C4B 3008   5.634  18.281   8.362 -0.2327  0.0079  0.1433
  189loPI    C1 3009   5.893  18.185  10.360  0.1764 -0.0208 -0.1449
  189loPI    C2 3010   5.609  18.155  10.640 -0.0321  0.0919 -0.3411
  189loPI    C3 3011   5.827  17.835  10.542  0.1155  0.0760  0.0219
  189loPI   PO4 3012   5.741  18.239  10.187  0.1923  0.0414 -0.2422
  189loPI   GL1 3013   5.701  18.590   9.844  0.2800  0.0259 -0.3922
  189loPI   GL2 3014   5.784  18.959   9.862 -0.1672  0.0155  0.1751
  189loPI   C1A 3015   5.417  18.526   9.530 -0.0253  0.2069  0.0824
  189loPI   C2A 3016   5.300  18.752   9.154 -0.0662 -0.0409  0.1294
  189loPI   C3A 3017   5.170  18.661   8.782  0.0330 -0.0595 -0.1869
  189loPI   C4A 3018   5.026  18.794   8.289  0.0306 -0.1523  0.3435
  189loPI   C5A 3019   4.701  19.126   8.345  0.4015  0.1533 -0.0410
  189loPI   C6A 3020   4.383  19.373   8.133  0.0831 -0.0549  0.2487
  189loPI   C1B 3021   5.817  19.182   9.430 -0.1413  0.0290  0.0015
  189loPI   C2B 3022   5.603  19.116   9.050  0.0838  0.4416  0.0865
  189loPI   C3B 3023   5.502  19.455   8.734  0.1920  0.0388 -0.1224
  189loPI   C4B 3024   5.555  19.498   8.256  0.0611  0.0303 -0.0600
  190loPI    C1 3025  13.625   5.756  10.019 -0.0595 -0.2608 -0.0174
  190loPI    C2 3026  13.287   5.928  10.145  0.0033 -0.0096 -0.1855
  190loPI    C3 3027  13.311   5.530  10.119 -0.2026 -0.0389  0.0415
  190loPI   PO4 3028  13.699   5.900   9.780  0.1559  0.3917 -0.0442
  190loPI   GL1 3029  13.510   5.795   9.289 -0.1836  0.0390 -0.2532
  190loPI   GL2 3030  13.867   5.804   9.331 -0.1095  0.0264  0.3440
  190loPI   C1A 3031  13.681   6.241   9.100  0.2748  0.0881 -0.1731
  190loPI   C2A 3032  13.779   6.286   8.607  0.2571 -0.1988 -0.0832
  190loPI   C3A 3033  13.815   6.120   8.139 -0.0294  0.2274  0.2063
  190loPI   C4A 3034  13.490   6.095   7.909 -0.2497  0.2252 -0.2282
  190loPI   C5A 3035  13.356   6.320   7.489 -0.0118 -0.4799  0.0611
  190loPI   C6A 3036  12.929   6.288   7.282 -0.2556 -0.0108  0.4910
  190loPI   C1B 3037  13.847   5.796   8.849  0.0037 -0.3435 -0.1682
  190loPI   C2B 3038  13.829   5.688   8.422  0.2129  0.1643  0.1384
  190loPI   C3B 3039  13.772   5.607   7.870  0.1822  0.1051  0.0440
  190loPI   C4B 3040  13.818   5.399   7.557  0.1651  0.1687 -0.0331
  191loPI    C1 3041   0.285  13.726   9.882 -0.1688 -0.0761  0.0437
  191loPI    C2 3042  -0.039  13.921  10.013  0.0102  0.2607 -0.0029
  191loPI    C3 3043   0.269  13.856  10.260 -0.0106  0.1161 -0.0139
  191loPI   PO4 3044   0.185  13.544   9.679  0.3292  0.0693 -0.1563
  191loPI   GL1 3045   0.296  13.353   9.314 -0.0912  0.1360  0.1141
  191loPI   GL2 3046   0.551  13.523   9.231  0.1287 -0.0823  0.2834
  191loPI   C1A 3047   0.379  13.101   9.024  0.2024  0.1136 -0.2953
  191loPI   C2A 3048   0.493  12.842   8.642 -0.0892  0.0188  0.1199
  191loPI   C3A 3049   0.519  12.819   8.127  0.3468  0.0595  0.4309
  191loPI   C4A 3050   0.353  13.028   7.709 -0.0863 -0.3564  0.0233
  191loPI   C5A 3051   0.244  12.923   7.266 -0.1600  0.0827  0.0127
  191loPI   C6A 3052   0.221  12.547   6.934 -0.0478  0.1934 -0.0928
  191loPI   C1B 3053   0.356  13.546   8.821  0.1130 -0.0039 -0.1868
  191loPI   C2B 3054   0.290  13.265   8.453 -0.0298 -0.0239 -0.2485
  191loPI   C3B 3055  -0.009  13.133   8.174  0.1818  0.0344 -0.1779
  191loPI   C4B 3056  -0.046  13.422   7.826  0.2808 -0.2849  0.0757
  192loPI    C1 3057  11.915   7.887  10.547  0.2323  0.0260 -0.3010
  192loPI    C2 3058  11.971   8.207  10.780 -0.2677 -0.0957 -0.0000
  192loPI    C3 3059  12.115   7.851  10.891  0.0366 -0.0357 -0.1922
  192loPI   PO4 3060  11.929   7.988  10.218  0.0829 -0.0107 -0.1001
  192loPI   GL1 3061  12.070   7.734   9.848 -0.0005  0.2059  0.0153
  192loPI   GL2 3062  12.033   7.529   9.663 -0.1754 -0.0150 -0.0581
  192loPI   C1A 3063  11.796   8.155   9.585  0.4408 -0.4024 -0.2235
  192loPI   C2A 3064  11.743   8.398   9.222 -0.1541  0.2261 -0.1608
  192loPI   C3A 3065  11.664   8.406   8.748  0.1647 -0.0351  0.3542
  192loPI   C4A 3066  11.618   8.689   8.381 -0.1285  0.1213 -0.0400
  192loPI   C5A 3067  11.866   8.922   8.066 -0.0999 -0.2645  0.1162
  192loPI   C6A 3068  11.768   9.070   7.648 -0.0948  0.1492 -0.1016
  192loPI   C1B 3069  12.145   7.305   9.222  0.2653  0.0604 -0.0293
  192loPI   C2B 3070  12.251   7.559   8.837 -0.0759  0.2010  0.0165
  192loPI   C3B 3071  12.661   7.633   8.656 -0.0050 -0.1241 -0.0967
  192loPI   C4B 3072  12.560   7.572   8.158 -0.1807  0.0441 -0.2540
  193loPI    C1 3073   1.503  13.956   9.896  0.0688  0.1859  0.0282
  193loPI    C2 3074   1.123  14.034   9.994  0.1184  0.3194  0.1168
  193loPI    C3 3075   1.418  14.118  10.252  0.1950  0.0613  0.1160
  193loPI   PO4 3076   1.443  13.958   9.642  0.3067  0.0932 -0.0518
  193loPI   GL1 3077   1.420  14.189   9.299 -0.0379  0.0386 -0.0594
  193loPI   GL2 3078   1.792  14.079   9.276 -0.0339  0.2562 -0.0359
  193loPI   C1A 3079   1.419  14.422   8.959  0.0141  0.0362  0.0554
  193loPI   C2A 3080   1.530  14.672   8.671  0.2689  0.1645 -0.0765
  193loPI   C3A 3081   1.417  14.800   8.264  0.1561  0.0603  0.0487
  193loPI   C4A 3082   1.699  15.079   8.013  0.2302  0.2274 -0.1598
  193loPI   C5A 3083   2.100  15.114   7.853  0.0348  0.3973 -0.2036
  193loPI   C6A 3084   2.471  14.833   7.742 -0.0079  0.0854 -0.0644
  193loPI   C1B 3085   1.939  14.409   9.146  0.0199  0.0037  0.0911
  193loPI   C2B 3086   1.982  14.673   8.819  0.4198  0.1690 -0.3632
  193loPI   C3B 3087   1.932  14.947   8.495 -0.1088 -0.5531 -0.2264
  193loPI   C4B 3088   2.074  15.358   8.347  0.0979 -0.1530  0.1311
  194loPI    C1 3089   8.089   9.197  10.098 -0.0353 -0.0009  0.1660
  194loPI    C2 3090   8.311   9.510  10.209 -0.1785  0.1482  0.0377
  194loPI    C3 3091   8.061   9.340  10.471 -0.0521  0.0987  0.1269
  194loPI   PO4 3092   8.016   9.253   9.929  0.0124  0.1578  0.0284
  194loPI   GL1 3093   8.008   9.249   9.554  0.1394  0.0872 -0.1407
  194loPI   GL2 3094   8.334   9.375   9.441 -0.0548 -0.1356 -0.1116
  194loPI   C1A 3095   7.889   9.411   9.200  0.2843  0.1224  0.1652
  194loPI   C2A 3096   7.911   9.413   8.732  0.0162  0.2290 -0.1852
  194loPI   C3A 3097   8.011   9.244   8.357 -0.0124  0.1537  0.0044
  194loPI   C4A 3098   8.167   9.116   7.932  0.1189 -0.4546  0.3163
  194loPI   C5A 3099   8.181   8.770   7.721 -0.1722 -0.3131 -0.0646
  194loPI   C6A 3100   8.498   8.403   7.571  0.0996 -0.2838 -0.0939
  194loPI   C1B 3101   8.376   9.310   9.013  0.0447  0.1213  0.1011
  194loPI   C2B 3102   8.498   9.265   8.633 -0.0340  0.1729 -0.1134
  194loPI   C3B 3103   8.529   9.183   8.220  0.2242 -0.1878 -0.2136
  194loPI   C4B 3104   8.622   9.445   7.934 -0.0384 -0.3541  0.1680
  195loPI    C1 3105   7.315  18.846   9.902 -0.0399  0.1535 -0.1409
  195loPI    C2 3106   7.182  19.142  10.136 -0.0028  0.0019  0.0747
  195loPI    C3 3107   7.252  18.780  10.291  0.1116 -0.0759 -0.1533
  195loPI   PO4 3108   7.159  18.912   9.680 -0.4710 -0.0494  0.3283
  195loPI   GL1 3109   7.502  19.121   9.416  0.2991  0.0632  0.0432
  195loPI   GL2 3110   7.598  19.414   9.399  0.0874 -0.0008 -0.1639
  195loPI   C1A 3111   7.327  19.016   8.981 -0.0429 -0.0354 -0.0075
  195loPI   C2A 3112   7.575  18.932   8.581  0.1139 -0.0279  0.0217
  195loPI   C3A 3113   7.688  18.788   8.248 -0.2360  0.0336 -0.0861
  195loPI   C4A 3114   7.584  18.773   7.849 -0.0127  0.2989  0.2970
  195loPI   C5A 3115   7.514  19.079   7.525  0.2044 -0.0313  0.4040
  195loPI   C6A 3116   7.739  19.174   7.132 -0.1344  0.0299 -0.1650
  195loPI   C1B 3117   7.471  19.445   8.985  0.0356 -0.2140  0.0526
  195loPI   C2B 3118   7.404  19.522   8.585  0.1530 -0.2853  0.1665
  195loPI   C3B 3119   7.601  19.711   8.193 -0.0226 -0.1892  0.2751
  195loPI   C4B 3120   7.753  19.842   7.825  0.1340 -0.0033  0.1766
  196loPI    C1 3121   7.390  16.674   9.705  0.1558 -0.1899 -0.2430
  196loPI    C2 3122   7.719  16.647   9.931  0.1559  0.0821 -0.2077
  196loPI    C3 3123   7.368  16.517  10.073  0.1931  0.0663 -0.1292
  196loPI   PO4 3124   7.403  16.994   9.551  0.2191 -0.4102  0.3029
  196loPI   GL1 3125   7.053  16.915   9.244  0.1732 -0.3245  0.0156
  196loPI   GL2 3126   6.679  17.029   9.353  0.1599 -0.1250  0.3440
  196loPI   C1A 3127   6.941  17.093   8.840  0.0347  0.1168 -0.1128
  196loPI   C2A 3128   7.027  16.977   8.488  0.0559  0.0022  0.0576
  196loPI   C3A 3129   7.040  16.907   8.022 -0.2055  0.1212 -0.1676
  196loPI   C4A 3130   6.756  17.039   7.641 -0.2080 -0.0682 -0.3286
  196loPI   C5A 3131   6.474  17.404   7.544  0.0075 -0.1020 -0.0336
  196loPI   C6A 3132   6.402  17.514   7.117 -0.0496 -0.1174 -0.1547
  196loPI   C1B 3133   6.553  17.278   9.016  0.0072  0.2338 -0.1910
  196loPI   C2B 3134   6.575  17.230   8.556  0.0291  0.0859  0.0643
  196loPI   C3B 3135   6.614  17.262   8.204  0.0185 -0.2169  0.2814
  196loPI   C4B 3136   6.358  17.538   8.015 -0.2677 -0.3409 -0.0454
  197loPI    C1 3137  15.503   9.397  10.323 -0.1494 -0.2343  0.2116
  197loPI    C2 3138  15.707   9.699  10.488 -0.0604 -0.0943 -0.1437
  197loPI    C3 3139  15.668   9.352  10.684  0.1360  0.0281  0.1183
  197loPI   PO4 3140  15.497   9.518  10.051  0.2625  0.0221  0.1606
  197loPI   GL1 3141  15.341   9.793   9.724  0.2762 -0.0176 -0.2064
  197loPI   GL2 3142  15.023   9.927   9.639 -0.0545 -0.1379  0.0986
  197loPI   C1A 3143  15.378   9.761   9.292  0.0147  0.1250  0.1298
  197loPI   C2A 3144  15.387   9.615   8.842 -0.0843  0.1884 -0.0148
  197loPI   C3A 3145  15.458   9.788   8.422 -0.0608 -0.0967 -0.1194
  197loPI   C4A 3146  15.637   9.642   8.041 -0.0432 -0.3709 -0.0974
  197loPI   C5A 3147  15.819   9.419   7.676 -0.0352  0.2663 -0.1771
  197loPI   C6A 3148  16.109   9.186   7.745 -0.2197 -0.2170  0.0510
  197loPI   C1B 3149  14.973  10.013   9.193 -0.0558 -0.1446  0.2120
  197loPI   C2B 3150  15.032  10.013   8.829 -0.3450  0.0826 -0.3551
  197loPI   C3B 3151  15.016   9.925   8.406  0.1451  0.0063 -0.0832
  197loPI   C4B 3152  15.278  10.025   8.042  0.0836  0.2832  0.1585
  198loPI    C1 3153  15.346   2.743   9.866 -0.2767  0.1432 -0.0717
  198loPI    C2 3154  15.561   2.990  10.095  0.0456  0.1129 -0.3334
  198loPI    C3 3155  15.434   2.640  10.242  0.0102  0.2154 -0.1163
  198loPI   PO4 3156  15.507   2.673   9.612  0.0795 -0.1108 -0.1002
  198loPI   GL1 3157  15.649   2.676   9.260 -0.1717  0.0582 -0.0624
  198loPI   GL2 3158  16.002   2.881   9.283  0.1205 -0.1134 -0.1065
  198loPI   C1A 3159  15.731   2.489   8.923 -0.0429  0.1565 -0.0772
  198loPI   C2A 3160  15.866   2.429   8.437  0.0867 -0.1776  0.1350
  198loPI   C3A 3161  15.557   2.419   8.062 -0.1160  0.0360  0.3094
  198loPI   C4A 3162  15.579   2.119   7.853  0.2619  0.1481 -0.2551
  198loPI   C5A 3163  16.029   1.774   7.963 -0.1108  0.3759 -0.0083
  198loPI   C6A 3164  16.340   1.831   8.129 -0.1284  0.1738 -0.0831
  198loPI   C1B 3165  16.191   2.741   8.873 -0.1494  0.0076 -0.4073
  198loPI   C2B 3166  16.464   2.648   8.517 -0.3240  0.0027 -0.1146
  198loPI   C3B 3167  16.691   2.723   8.059 -0.0395  0.0218  0.1170
  198loPI   C4B 3168  16.737   2.697   7.709  0.1448 -0.2992  0.1023
  199loPI    C1 3169   4.176  14.222   9.906  0.1163 -0.2063  0.0344
  199loPI    C2 3170   3.979  13.906   9.762  0.0325 -0.0972 -0.0933
  199loPI    C3 3171   3.786  14.177   9.984  0.1450 -0.2274  0.1678
  199loPI   PO4 3172   4.346  14.328   9.650 -0.1939  0.2335 -0.1138
  199loPI   GL1 3173   4.418  14.378   9.195  0.1488 -0.0504 -0.2080
  199loPI   GL2 3174   4.344  14.646   9.123 -0.0793 -0.2740 -0.0386
  199loPI   C1A 3175   4.140  14.237   8.837 -0.2790  0.3271 -0.1688
  199loPI   C2A 3176   4.091  14.248   8.442 -0.0325  0.1631 -0.0220
  199loPI   C3A 3177   4.354  14.418   8.213  0.1392  0.0668 -0.3721
  199loPI   C4A 3178   4.539  14.339   7.756  0.0446 -0.1481 -0.3309
  199loPI   C5A 3179   4.651  14.405   7.229 -0.3951  0.2383  0.0542
  199loPI   C6A 3180   4.918  14.505   6.927  0.0310 -0.2316 -0.0467
  199loPI   C1B 3181   4.594  14.464   8.748  0.0426  0.2169  0.1166
  199loPI   C2B 3182   4.874  14.335   8.576  0.4904 -0.0631 -0.3607
  199loPI   C3B 3183   4.850  14.299   8.183  0.0497 -0.0296  0.1893
  199loPI   C4B 3184   5.034  14.396   7.787 -0.2170 -0.0506 -0.1810
  200loPI    C1 3185   2.510   8.388   9.536  0.2641 -0.0803 -0.1878
  200loPI    C2 3186   2.736   8.693   9.661  0.2135 -0.1696  0.1297
  200loPI    C3 3187   2.621   8.410   9.920 -0.2967 -0.1052 -0.0157
  200loPI   PO4 3188   2.595   8.303   9.332 -0.1612  0.0684  0.1210
  200loPI   GL1 3189   2.590   8.345   8.959 -0.1157  0.4587  0.0792
  200loPI   GL2 3190   2.281   8.216   8.975 -0.2444 -0.1056  0.0096
  200loPI   C1A 3191   2.588   8.444   8.534 -0.1979 -0.3982 -0.1488
  200loPI   C2A 3192   2.638   8.449   8.117 -0.4630 -0.3647 -0.1879
  200loPI   C3A 3193   2.902   8.303   7.780 -0.1686  0.0227  0.1075
  200loPI   C4A 3194   2.975   8.191   7.302  0.2662 -0.1253  0.6306
  200loPI   C5A 3195   3.114   8.042   6.942 -0.2759 -0.0765  0.2817
  200loPI   C6A 3196   3.331   7.749   6.838 -0.2113 -0.3873  0.0053
  200loPI   C1B 3197   2.161   8.185   8.592  0.2897  0.1435  0.3548
  200loPI   C2B 3198   2.088   8.041   8.149  0.0454  0.0123  0.0897
  200loPI   C3B 3199   2.077   7.699   7.812 -0.1403  0.2006  0.1862
  200loPI   C4B 3200   2.374   7.600   7.503  0.0742 -0.1145 -0.0839
  201loPI    C1 3201  19.088   0.879  10.366  0.0316 -0.0968  0.3003
  201loPI    C2 3202  18.844   1.176  10.477 -0.1501 -0.2608  0.3466
  201loPI    C3 3203  19.213   1.153  10.630  0.0714  0.2566 -0.0755
  201loPI   PO4 3204  18.999   0.755  10.122 -0.0685 -0.2624  0.3231
  201loPI   GL1 3205  19.227   0.780   9.683 -0.0019 -0.2873  0.5559
  201loPI   GL2 3206  19.064   0.472   9.772  0.3924 -0.1689  0.0999
  201loPI   C1A 3207  19.116   0.911   9.344  0.1563 -0.1551 -0.2762
  201loPI   C2A 3208  19.076   0.903   8.776  0.2696 -0.0598 -0.3773
  201loPI   C3A 3209  19.114   1.012   8.433  0.5099  0.0828  0.0664
  201loPI   C4A 3210  19.000   0.872   8.019 -0.1065  0.0616 -0.0711
  201loPI   C5A 3211  18.811   0.960   7.659  0.4675  0.1396 -0.2132
  201loPI   C6A 3212  18.473   1.385   7.583  0.2454 -0.2290  0.0616
  201loPI   C1B 3213  19.272   0.428   9.296  0.0862  0.2212  0.1693
  201loPI   C2B 3214  19.421   0.521   8.881  0.0505 -0.1498  0.0304
  201loPI   C3B 3215  19.716   0.479   8.613 -0.1469 -0.1919  0.0146
  201loPI   C4B 3216  19.858   0.697   8.319  0.3763  0.0809 -0.3837
  202loPI    C1 3217  13.917  13.213  10.492 -0.0836 -0.0072  0.0204
  202loPI    C2 3218  14.309  13.191  10.568 -0.0469 -0.0848 -0.1853
  202loPI    C3 3219  14.045  13.090  10.851  0.0852 -0.3072 -0.1386
  202loPI   PO4 3220  13.835  13.156  10.277 -0.0603  0.0945 -0.1159
  202loPI   GL1 3221  13.811  13.375   9.918  0.4316 -0.0661  0.2999
  202loPI   GL2 3222  14.081  13.483   9.669  0.0436  0.3097 -0.1522
  202loPI   C1A 3223  13.501  13.277   9.552  0.0295 -0.0094  0.3832
  202loPI   C2A 3224  13.608  13.208   9.057  0.3482  0.0174 -0.1040
  202loPI   C3A 3225  13.554  13.134   8.669 -0.2077  0.0199  0.1589
  202loPI   C4A 3226  13.503  12.975   8.194  0.1780 -0.0393  0.0471
  202loPI   C5A 3227  13.563  12.669   8.056 -0.3400 -0.2630 -0.0071
  202loPI   C6A 3228  13.699  12.507   7.735 -0.2971 -0.0580  0.0592
  202loPI   C1B 3229  14.039  13.372   9.232  0.0101 -0.3939 -0.2270
  202loPI   C2B 3230  14.068  13.191   8.790 -0.2387 -0.2813  0.0014
  202loPI   C3B 3231  13.942  13.077   8.206  0.2835 -0.0666  0.1090
  202loPI   C4B 3232  13.820  13.035   7.749 -0.0218  0.2255  0.0640
  203loPI    C1 3233  11.303  10.895  10.261 -0.2003  0.0921 -0.2658
  203loPI    C2 3234  11.250  10.523  10.398  0.1453  0.1290 -0.0197
  203loPI    C3 3235  10.942  10.779  10.389  0.0410  0.0260  0.3947
  203loPI   PO4 3236  11.357  10.892  10.021 -0.0417  0.0218 -0.1450
  203loPI   GL1 3237  11.504  10.841   9.678 -0.1514  0.0087 -0.1970
  203loPI   GL2 3238  11.262  10.894   9.532  0.4612 -0.2675  0.0147
  203loPI   C1A 3239  11.761  10.686   9.305  0.0830 -0.0283 -0.0242
  203loPI   C2A 3240  11.583  10.667   8.854 -0.1676  0.1666  0.1495
  203loPI   C3A 3241  11.267  10.633   8.422 -0.0312  0.0120  0.2364
  203loPI   C4A 3242  11.059  10.719   7.989  0.4063  0.0953  0.2000
  203loPI   C5A 3243  11.034  10.838   7.649 -0.0401 -0.0266  0.2739
  203loPI   C6A 3244  10.876  11.121   7.318  0.0267 -0.1896 -0.2232
  203loPI   C1B 3245  11.073  11.073   9.154 -0.0335  0.0095 -0.1508
  203loPI   C2B 3246  11.165  11.046   8.673 -0.5132 -0.0075 -0.1316
  203loPI   C3B 3247  11.231  11.177   8.187 -0.1616  0.1068  0.2040
  203loPI   C4B 3248  11.530  11.063   7.883  0.2402 -0.0002 -0.1804
  204loPI    C1 3249  18.381   0.801   9.894  0.0285  0.0630  0.2045
  204loPI    C2 3250  18.566   0.495  10.073 -0.0084  0.0128  0.1570
  204loPI    C3 3251  18.316   0.727  10.282 -0.0307 -0.0293  0.1775
  204loPI   PO4 3252  18.585   0.913   9.789  0.0708 -0.0656  0.2563
  204loPI   GL1 3253  18.684   1.202   9.417 -0.0715 -0.2275  0.1265
  204loPI   GL2 3254  18.384   0.988   9.334  0.3590  0.1686  0.0594
  204loPI   C1A 3255  18.575   1.114   8.886 -0.2484  0.0427 -0.0731
  204loPI   C2A 3256  18.631   1.219   8.436  0.0396 -0.3618  0.2008
  204loPI   C3A 3257  18.717   1.369   7.993  0.1259 -0.1588 -0.1360
  204loPI   C4A 3258  18.918   1.594   7.616 -0.1180  0.1218 -0.1512
  204loPI   C5A 3259  18.849   1.920   7.357  0.0216  0.1338 -0.1771
  204loPI   C6A 3260  18.776   2.296   7.098 -0.3797 -0.1350 -0.2348
  204loPI   C1B 3261  18.349   0.659   9.000  0.1517 -0.1785 -0.2319
  204loPI   C2B 3262  18.521   0.647   8.691 -0.3843  0.0963  0.0386
  204loPI   C3B 3263  18.556   0.710   8.339  0.0395 -0.1299 -0.3205
  204loPI   C4B 3264  18.645   0.469   7.880 -0.0430  0.1757 -0.3053
  205loPI    C1 3265   5.488   4.839  10.476 -0.1365  0.1121  0.2907
  205loPI    C2 3266   5.788   4.575  10.490 -0.0477  0.1868 -0.1006
  205loPI    C3 3267   5.846   4.950  10.617 -0.0852  0.1040  0.1675
  205loPI   PO4 3268   5.380   4.794  10.215 -0.2816  0.0269 -0.1187
  205loPI   GL1 3269   5.427   4.960   9.707 -0.4821 -0.2031  0.0764
  205loPI   GL2 3270   5.634   5.203   9.662  0.2701  0.2360 -0.0826
  205loPI   C1A 3271   5.527   4.838   9.355  0.1790 -0.1171  0.2883
  205loPI   C2A 3272   5.209   4.699   9.044  0.1758  0.4445  0.2324
  205loPI   C3A 3273   5.220   4.610   8.645  0.1538 -0.0078 -0.3886
  205loPI   C4A 3274   5.102   4.789   8.228  0.1162  0.3411 -0.1539
  205loPI   C5A 3275   4.881   5.002   7.940 -0.0305 -0.0522  0.0321
  205loPI   C6A 3276   4.554   5.078   7.609  0.1868 -0.0651 -0.0494
  205loPI   C1B 3277   5.386   5.253   9.210  0.0465  0.0568  0.3616
  205loPI   C2B 3278   5.089   5.571   8.967 -0.1690 -0.0188  0.1393
  205loPI   C3B 3279   4.855   5.957   8.822 -0.1960 -0.0347  0.0028
  205loPI   C4B 3280   4.885   6.159   8.394  0.2205 -0.3536  0.3373
  206loPI    C1 3281   7.136  17.360   9.795 -0.3707  0.3898 -0.1853
  206loPI    C2 3282   7.317  17.582   9.516  0.1795  0.1927  0.0009
  206loPI    C3 3283   7.500  17.511   9.864 -0.1521 -0.2312  0.0976
  206loPI   PO4 3284   6.814  17.368   9.755  0.2127  0.1038  0.3417
  206loPI   GL1 3285   6.520  17.600   9.472 -0.2087 -0.2203 -0.2299
  206loPI   GL2 3286   6.348  17.914   9.617 -0.1299 -0.1072  0.0209
  206loPI   C1A 3287   6.935  17.563   9.147  0.2403  0.0697  0.1482
  206loPI   C2A 3288   6.786  17.622   8.674 -0.0973  0.1499 -0.1881
  206loPI   C3A 3289   6.709  17.795   8.341  0.0929  0.2089 -0.2292
  206loPI   C4A 3290   6.686  18.142   7.947  0.0907  0.2312  0.1003
  206loPI   C5A 3291   6.966  18.176   7.738 -0.2507  0.0446  0.1274
  206loPI   C6A 3292   7.275  18.114   7.452 -0.1215 -0.0392 -0.0947
  206loPI   C1B 3293   6.102  17.846   9.170 -0.0028 -0.2657  0.1563
  206loPI   C2B 3294   5.958  18.072   8.764  0.3294  0.1542 -0.1426
  206loPI   C3B 3295   6.097  18.238   8.365  0.0078 -0.0019  0.0056
  206loPI   C4B 3296   6.207  18.252   8.002 -0.0512  0.1127  0.2104
  207loPI    C1 3297  16.666   7.095  10.369  0.0137  0.0720 -0.0806
  207loPI    C2 3298  16.786   6.763  10.558 -0.0381  0.0695 -0.0522
  207loPI    C3 3299  16.967   7.112  10.632 -0.1839  0.1047  0.1464
  207loPI   PO4 3300  16.659   7.021  10.127  0.1862  0.1091  0.2020
  207loPI   GL1 3301  16.547   7.144   9.729  0.0633 -0.0911  0.0746
  207loPI   GL2 3302  16.295   6.983   9.635 -0.0597  0.1057 -0.1804
  207loPI   C1A 3303  16.499   7.111   9.201 -0.1073 -0.2381 -0.0063
  207loPI   C2A 3304  16.736   6.809   8.971 -0.0350  0.0048  0.2212
  207loPI   C3A 3305  16.613   6.625   8.550 -0.0177 -0.2352  0.1324
  207loPI   C4A 3306  16.539   6.483   8.186 -0.0460  0.0641 -0.0801
  207loPI   C5A 3307  16.546   6.291   7.787 -0.2310 -0.5409  0.4522
  207loPI   C6A 3308  16.643   6.533   7.334  0.0003  0.1691 -0.1430
  207loPI   C1B 3309  16.253   6.655   9.287  0.3341  0.0086 -0.1219
  207loPI   C2B 3310  16.113   6.522   8.866 -0.0681  0.2536  0.0790
  207loPI   C3B 3311  16.067   6.700   8.465  0.0684  0.2563 -0.2786
  207loPI   C4B 3312  16.099   6.718   7.982 -0.1090  0.1008  0.3574
  208loPI    C1 3313   4.495  12.283   9.497 -0.1664  0.0931  0.0071
  208loPI    C2 3314   4.158  12.498   9.518 -0.2443 -0.0396  0.1353
  208loPI    C3 3315   4.456  12.566   9.777 -0.1676  0.0835  0.0166
  208loPI   PO4 3316   4.453  12.201   9.189  0.1861  0.1604 -0.0020
  208loPI   GL1 3317   4.460  12.351   8.778  0.7021  0.0200 -0.0952
  208loPI   GL2 3318   4.760  12.152   8.599  0.2030  0.0711  0.0058
  208loPI   C1A 3319   4.316  12.308   8.439  0.4086  0.0836  0.3109
  208loPI   C2A 3320   4.341  12.279   7.992 -0.0140  0.2003 -0.2798
  208loPI   C3A 3321   4.247  12.127   7.602  0.4486 -0.0487  0.1531
  208loPI   C4A 3322   4.329  11.913   7.276 -0.1760 -0.2084  0.2352
  208loPI   C5A 3323   4.147  11.640   7.064  0.1991 -0.4707  0.1055
  208loPI   C6A 3324   3.711  11.571   7.084  0.2315  0.2335  0.3684
  208loPI   C1B 3325   4.756  12.121   8.128  0.0467  0.1122 -0.0939
  208loPI   C2B 3326   4.784  11.974   7.747 -0.0688 -0.0173  0.0106
  208loPI   C3B 3327   4.818  11.701   7.420  0.0389 -0.3055 -0.1067
  208loPI   C4B 3328   5.071  11.495   7.100 -0.0926 -0.3167 -0.0028
  209loPI    C1 3329  18.071   1.196   9.727  0.0426 -0.0252  0.2378
  209loPI    C2 3330  17.913   1.498   9.937 -0.1041  0.0692 -0.0040
  209loPI    C3 3331  17.680   1.275   9.702 -0.0325 -0.3579  0.3170
  209loPI   PO4 3332  18.324   1.346   9.711  0.0483 -0.1257 -0.0840
  209loPI   GL1 3333  18.309   1.862   9.534  0.0173  0.3655  0.0582
  209loPI   GL2 3334  18.004   1.611   9.389 -0.0123 -0.2732  0.1621
  209loPI   C1A 3335  18.656   1.650   9.194  0.3083 -0.0119  0.1333
  209loPI   C2A 3336  18.564   1.626   8.813 -0.2722  0.1249  0.1427
  209loPI   C3A 3337  18.601   1.752   8.312 -0.2306  0.0087  0.2040
  209loPI   C4A 3338  18.889   2.027   8.081 -0.2181  0.3063  0.1610
  209loPI   C5A 3339  18.792   2.347   7.886  0.2394 -0.0657 -0.0930
  209loPI   C6A 3340  18.399   2.330   7.542  0.1954  0.1100  0.0030
  209loPI   C1B 3341  18.083   1.489   8.933  0.3137 -0.1844 -0.1698
  209loPI   C2B 3342  18.025   1.394   8.534 -0.3354  0.0438  0.1057
  209loPI   C3B 3343  18.136   1.204   8.121 -0.0401  0.1499  0.0683
  209loPI   C4B 3344  18.337   0.918   7.864  0.2023 -0.5188  0.0597
  210loPI    C1 3345  13.396  18.344   9.625 -0.0514 -0.0075 -0.2758
  210loPI    C2 3346  13.539  18.545   9.310  0.1084  0.2249 -0.0588
  210loPI    C3 3347  13.205  18.670   9.492  0.0230  0.0981 -0.1272
  210loPI   PO4 3348  13.350  18.102   9.546 -0.2928  0.1561 -0.0527
  210loPI   GL1 3349  13.265  17.917   9.193 -0.1405  0.1072 -0.1150
  210loPI   GL2 3350  13.201  18.242   9.066  0.1568  0.0072 -0.2348
  210loPI   C1A 3351  12.826  17.882   8.987 -0.2401  0.0804 -0.4094
  210loPI   C2A 3352  12.561  17.937   8.644 -0.1327 -0.2568  0.0541
  210loPI   C3A 3353  12.723  18.078   8.181 -0.2905 -0.0213  0.0434
  210loPI   C4A 3354  12.737  17.958   7.776 -0.1893  0.0818  0.0127
  210loPI   C5A 3355  12.522  17.790   7.438 -0.0504 -0.0573 -0.1975
  210loPI   C6A 3356  12.205  17.523   7.400 -0.4178 -0.2716  0.2035
  210loPI   C1B 3357  13.179  18.042   8.643 -0.2872 -0.1601 -0.0043
  210loPI   C2B 3358  13.226  17.969   8.148 -0.0141 -0.0987 -0.1154
  210loPI   C3B 3359  13.295  17.653   7.710  0.3822 -0.0441 -0.0662
  210loPI   C4B 3360  13.467  17.652   7.370 -0.5239  0.2707  0.2739
  211loPI    C1 3361   3.197  18.145  10.437  0.1592  0.1574 -0.2300
  211loPI    C2 3362   3.240  18.009  10.811 -0.0733 -0.1829 -0.3221
  211loPI    C3 3363   3.461  18.317  10.683 -0.1612  0.0946  0.1687
  211loPI   PO4 3364   3.224  17.867  10.274  0.0231 -0.0203  0.0458
  211loPI   GL1 3365   3.358  17.816   9.870 -0.0328  0.0805  0.2762
  211loPI   GL2 3366   3.350  17.475   9.826 -0.3904 -0.0543  0.0267
  211loPI   C1A 3367   3.340  17.893   9.456 -0.2007 -0.2094 -0.3026
  211loPI   C2A 3368   3.283  17.867   8.959 -0.2959 -0.0992 -0.1789
  211loPI   C3A 3369   3.283  17.925   8.558  0.3279 -0.1315  0.2494
  211loPI   C4A 3370   3.177  17.936   8.077  0.2210  0.2147 -0.3539
  211loPI   C5A 3371   3.282  18.017   7.654 -0.0910  0.0019  0.1272
  211loPI   C6A 3372   3.477  17.769   7.221 -0.2949 -0.2057 -0.3168
  211loPI   C1B 3373   3.655  17.564   9.425 -0.3160 -0.2457 -0.2128
  211loPI   C2B 3374   3.670  17.574   9.000 -0.1588  0.3125 -0.1783
  211loPI   C3B 3375   3.676  17.684   8.557  0.2799 -0.3184 -0.1594
  211loPI   C4B 3376   3.639  17.614   8.118  0.2878 -0.1148  0.2505
  212loPI    C1 3377   5.752  14.990  10.082 -0.2021  0.2458 -0.1164
  212loPI    C2 3378   5.554  15.130  10.400  0.0366  0.0506  0.1218
  212loPI    C3 3379   5.605  14.736  10.354 -0.0573  0.0734 -0.1977
  212loPI   PO4 3380   5.596  15.179   9.897 -0.2741 -0.1944 -0.3218
  212loPI   GL1 3381   5.540  15.193   9.461  0.1124 -0.0865  0.0645
  212loPI   GL2 3382   5.744  14.956   9.479  0.2721 -0.2623 -0.0925
  212loPI   C1A 3383   5.426  14.946   9.001  0.2516 -0.2419  0.1596
  212loPI   C2A 3384   5.607  14.835   8.658  0.0703 -0.5314  0.0434
  212loPI   C3A 3385   5.764  14.744   8.290  0.4099 -0.1145 -0.1228
  212loPI   C4A 3386   6.072  14.706   7.906  0.1397  0.2713 -0.3009
  212loPI   C5A 3387   6.138  14.933   7.509 -0.4455 -0.0360 -0.0493
  212loPI   C6A 3388   6.481  15.162   7.373 -0.0684  0.2926 -0.1926
  212loPI   C1B 3389   5.921  15.068   9.007 -0.0702  0.1755  0.2419
  212loPI   C2B 3390   6.160  14.967   8.640  0.1835 -0.0351  0.1876
  212loPI   C3B 3391   6.282  15.081   8.322 -0.0913  0.3134 -0.1730
  212loPI   C4B 3392   6.131  15.217   7.928 -0.1221 -0.3065 -0.2229
  213loPI    C1 3393  13.577   2.551   9.320 -0.0366  0.0321  0.1546
  213loPI    C2 3394  13.526   2.155   9.294 -0.3770  0.0696  0.2130
  213loPI    C3 3395  13.722   2.311   9.606 -0.1286 -0.0599  0.1245
  213loPI   PO4 3396  13.582   2.624   9.062  0.1910  0.1021 -0.1833
  213loPI   GL1 3397  13.305   2.866   8.812  0.2368  0.2555 -0.0398
  213loPI   GL2 3398  13.699   3.077   8.942  0.0554 -0.1473  0.4245
  213loPI   C1A 3399  13.450   2.826   8.376 -0.2141 -0.0085  0.0439
  213loPI   C2A 3400  13.395   2.738   7.956 -0.3418 -0.2722 -0.1593
  213loPI   C3A 3401  13.481   2.647   7.625 -0.1504  0.0390  0.4667
  213loPI   C4A 3402  13.659   2.707   7.343 -0.1288 -0.1006  0.3483
  213loPI   C5A 3403  13.900   2.367   7.042 -0.0628 -0.0063 -0.0522
  213loPI   C6A 3404  14.265   2.226   6.872  0.0764  0.1691  0.5569
  213loPI   C1B 3405  13.748   3.156   8.566 -0.0438 -0.2315  0.0965
  213loPI   C2B 3406  13.660   3.164   7.997 -0.0184  0.1180  0.1215
  213loPI   C3B 3407  13.747   3.145   7.646 -0.0693  0.2218  0.2007
  213loPI   C4B 3408  13.941   3.194   7.253  0.0630  0.1931 -0.0726
  214loPI    C1 3409   3.136   9.900   9.927 -0.0119  0.0022 -0.0009
  214loPI    C2 3410   3.474   9.702  10.010 -0.0930 -0.1090  0.0678
  214loPI    C3 3411   3.172   9.701  10.272 -0.1976 -0.1220 -0.0516
  214loPI   PO4 3412   3.216  10.100   9.751 -0.3373  0.1699 -0.0422
  214loPI   GL1 3413   3.089  10.120   9.275 -0.3024  0.0212  0.0791
  214loPI   GL2 3414   2.868   9.855   9.197 -0.2412  0.3032  0.1904
  214loPI   C1A 3415   3.319  10.114   8.871  0.0852 -0.1436  0.0588
  214loPI   C2A 3416   3.294  10.100   8.408  0.2323 -0.1181  0.2556
  214loPI   C3A 3417   3.483  10.057   7.980  0.0790  0.0200 -0.2146
  214loPI   C4A 3418   3.542   9.815   7.652  0.1672 -0.0539 -0.0238
  214loPI   C5A 3419   3.654   9.429   7.388  0.0414  0.0084 -0.0769
  214loPI   C6A 3420   3.828   9.189   7.120  0.0514  0.1898 -0.3375
  214loPI   C1B 3421   2.848   9.534   8.843 -0.2568  0.3491  0.3055
  214loPI   C2B 3422   2.809   9.348   8.387  0.1441 -0.0061 -0.1768
  214loPI   C3B 3423   2.846   9.355   7.965  0.5203 -0.0785  0.0923
  214loPI   C4B 3424   3.123   9.501   7.580 -0.0765 -0.0443 -0.0330
  215loPI    C1 3425   1.144  19.138  10.257  0.0767 -0.0554  0.1431
  215loPI    C2 3426   1.403  18.847  10.347 -0.1026 -0.2185  0.1372
  215loPI    C3 3427   1.234  19.062  10.640  0.0070 -0.1396  0.1431
  215loPI   PO4 3428   1.340  19.304  10.046 -0.3216 -0.0486 -0.3774
  215loPI   GL1 3429   1.315  19.228   9.697 -0.0011  0.1669 -0.2185
  215loPI   GL2 3430   1.230  18.911   9.682 -0.0535  0.1274 -0.1026
  215loPI   C1A 3431   1.411  19.053   9.220 -0.1436  0.0496 -0.1693
  215loPI   C2A 3432   1.424  19.133   8.816 -0.1899 -0.0391 -0.1918
  215loPI   C3A 3433   1.227  19.115   8.499  0.0692  0.0366  0.2323
  215loPI   C4A 3434   1.061  19.215   8.048  0.1628 -0.0234 -0.0184
  215loPI   C5A 3435   0.890  19.227   7.626  0.0654 -0.0407  0.0312
  215loPI   C6A 3436   0.523  19.068   7.282 -0.0464  0.2153 -0.2173
  215loPI   C1B 3437   1.360  18.521   9.472  0.2642 -0.2007 -0.4502
  215loPI   C2B 3438   1.376  18.108   9.301 -0.1273  0.1766 -0.0262
  215loPI   C3B 3439   1.317  18.064   8.844  0.0201  0.0494  0.2517
  215loPI   C4B 3440   1.581  18.226   8.545 -0.2768  0.1047 -0.1623
  216loPI    C1 3441  11.463   7.118  10.022 -0.3458 -0.0839  0.0799
  216loPI    C2 3442  11.720   6.970  10.291 -0.1748  0.1414  0.0442
  216loPI    C3 3443  11.551   6.728  10.020  0.0049 -0.0080  0.0638
  216loPI   PO4 3444  11.539   7.334   9.951  0.2108  0.2358 -0.0145
  216loPI   GL1 3445  11.591   7.608   9.532  0.2193 -0.0504  0.1593
  216loPI   GL2 3446  11.291   7.444   9.476  0.1919  0.0117  0.3040
  216loPI   C1A 3447  11.557   7.456   9.050  0.2317  0.0050 -0.3086
  216loPI   C2A 3448  11.850   7.383   8.690  0.3026  0.2400 -0.1252
  216loPI   C3A 3449  12.029   7.601   8.354  0.0973  0.0106  0.0131
  216loPI   C4A 3450  11.855   7.503   7.896 -0.1922 -0.2417 -0.2783
  216loPI   C5A 3451  11.650   7.689   7.546  0.1158 -0.0495 -0.0944
  216loPI   C6A 3452  11.449   7.799   7.201  0.0319 -0.1515 -0.1598
  216loPI   C1B 3453  11.038   7.713   9.204 -0.1091  0.1400  0.2793
  216loPI   C2B 3454  10.993   8.058   9.006 -0.0465  0.2945 -0.1034
  216loPI   C3B 3455  11.126   8.360   8.752 -0.1765 -0.0704  0.2862
  216loPI   C4B 3456  11.236   8.261   8.360 -0.1090  0.0762  0.1600
  217loPI    C1 3457  12.166  14.644  10.515 -0.1160  0.1186 -0.1868
  217loPI    C2 3458  11.912  14.335  10.526 -0.0982  0.1111  0.0971
  217loPI    C3 3459  11.773  14.710  10.553 -0.0994  0.1181 -0.0027
  217loPI   PO4 3460  12.345  14.575  10.203  0.0166 -0.1392  0.2443
  217loPI   GL1 3461  12.249  14.568   9.749 -0.2991 -0.2854 -0.0396
  217loPI   GL2 3462  12.131  14.767   9.474 -0.0487  0.0398 -0.0405
  217loPI   C1A 3463  11.871  14.359   9.532 -0.1038  0.1610  0.0159
  217loPI   C2A 3464  11.766  14.123   9.176 -0.0401 -0.1505 -0.1888
  217loPI   C3A 3465  11.720  14.023   8.823  0.1350 -0.0899  0.3142
  217loPI   C4A 3466  11.732  13.635   8.581  0.0366  0.0412  0.0609
  217loPI   C5A 3467  12.024  13.442   8.281  0.1006  0.0608  0.3415
  217loPI   C6A 3468  12.160  13.041   8.190 -0.1322  0.0023  0.0643
  217loPI   C1B 3469  11.986  14.813   9.094  0.0250  0.1224  0.1581
  217loPI   C2B 3470  12.086  14.840   8.673 -0.1081  0.0358 -0.1820
  217loPI   C3B 3471  12.147  14.693   8.237  0.0449  0.1403 -0.1743
  217loPI   C4B 3472  12.159  14.454   7.893 -0.0351 -0.0609  0.0057
  218loPI    C1 3473  15.899   1.174  10.257  0.1250 -0.0316  0.1682
  218loPI    C2 3474  16.185   1.155  10.536 -0.1258 -0.1628  0.4215
  218loPI    C3 3475  16.055   0.820  10.361  0.2510 -0.0546 -0.0900
  218loPI   PO4 3476  15.928   1.340  10.058 -0.1920  0.3185  0.0047
  218loPI   GL1 3477  15.842   1.341   9.549 -0.5056  0.2067 -0.0696
  218loPI   GL2 3478  16.096   1.279   9.346 -0.3821 -0.0843 -0.3336
  218loPI   C1A 3479  15.779   1.589   9.131 -0.3760 -0.0109  0.1803
  218loPI   C2A 3480  15.357   1.732   8.948 -0.1137 -0.1972  0.2301
  218loPI   C3A 3481  15.216   1.789   8.546  0.1339  0.0255  0.3319
  218loPI   C4A 3482  15.205   1.992   8.105  0.3456  0.1662  0.4246
  218loPI   C5A 3483  15.112   1.899   7.697  0.1901 -0.2071  0.1777
  218loPI   C6A 3484  15.316   1.962   7.459  0.0188 -0.0611 -0.2406
  218loPI   C1B 3485  16.221   1.297   8.933 -0.1724  0.1005 -0.0504
  218loPI   C2B 3486  16.065   0.965   8.579  0.1606  0.0157 -0.1152
  218loPI   C3B 3487  16.012   0.858   8.180 -0.0229 -0.0464  0.1278
  218loPI   C4B 3488  16.237   0.896   7.784  0.0175 -0.1061  0.2948
  219loPI    C1 3489  13.081   1.824   9.179  0.0257  0.3742  0.2703
  219loPI    C2 3490  13.433   1.682   9.305 -0.0490 -0.1099 -0.0382
  219loPI    C3 3491  13.112   1.661   9.543  0.0595  0.0464  0.1245
  219loPI   PO4 3492  13.127   2.055   9.062 -0.0610  0.2379  0.0701
  219loPI   GL1 3493  12.939   2.298   8.800  0.2022 -0.2339  0.1746
  219loPI   GL2 3494  13.357   2.355   8.722  0.2560  0.1737  0.2185
  219loPI   C1A 3495  12.658   2.332   8.449 -0.0157 -0.2323 -0.1246
  219loPI   C2A 3496  12.649   2.143   8.038 -0.2286  0.0418 -0.1792
  219loPI   C3A 3497  12.481   2.069   7.658 -0.0960 -0.2222  0.1073
  219loPI   C4A 3498  12.126   1.876   7.510 -0.0069 -0.1191  0.4004
  219loPI   C5A 3499  11.984   1.874   7.116 -0.0199  0.0393  0.0685
  219loPI   C6A 3500  11.707   1.742   6.852  0.0179  0.1614  0.3159
  219loPI   C1B 3501  13.567   2.320   8.346  0.0978 -0.2019  0.0795
  219loPI   C2B 3502  13.805   2.311   7.888  0.1045  0.1943 -0.2930
  219loPI   C3B 3503  13.982   2.324   7.517 -0.1579 -0.1501  0.3467
  219loPI   C4B 3504  14.334   2.100   7.320  0.2814 -0.2800  0.0905
  220loPI    C1 3505   8.591  16.941  10.191 -0.0238  0.1928  0.0020
  220loPI    C2 3506   8.954  16.791  10.266 -0.0580 -0.0473 -0.2956
  220loPI    C3 3507   8.627  16.578  10.355 -0.1325  0.2016  0.0458
  220loPI   PO4 3508   8.607  16.990   9.949 -0.2437 -0.0198 -0.3483
  220loPI   GL1 3509   8.797  16.938   9.497 -0.1897 -0.2376  0.2725
  220loPI   GL2 3510   8.948  17.048   9.317  0.0385  0.0749  0.1478
  220loPI   C1A 3511   8.766  16.660   9.107  0.1456  0.2175 -0.3466
  220loPI   C2A 3512   8.841  16.706   8.680 -0.0731 -0.0966 -0.2597
  220loPI   C3A 3513   9.151  16.562   8.333 -0.0758  0.3508 -0.0804
  220loPI   C4A 3514   9.178  16.771   7.969 -0.0344 -0.2259 -0.1326
  220loPI   C5A 3515   8.978  16.691   7.619 -0.0593 -0.2099  0.0637
  220loPI   C6A 3516   8.727  16.895   7.284  0.1253  0.0881 -0.5386
  220loPI   C1B 3517   9.073  17.181   8.951  0.0245  0.0541 -0.0812
  220loPI   C2B 3518   9.354  16.967   8.613  0.0410  0.1039 -0.2405
  220loPI   C3B 3519   9.381  17.150   8.241  0.0040  0.0295  0.0421
  220loPI   C4B 3520   9.654  17.261   7.923 -0.1983 -0.1558  0.0051
  221loPI    C1 3521  15.428   5.228  10.004 -0.1866  0.0641 -0.2738
  221loPI    C2 3522  15.074   5.161  10.179 -0.0061 -0.0811  0.0453
  221loPI    C3 3523  15.383   4.916  10.251  0.1242 -0.0384 -0.3413
  221loPI   PO4 3524  15.342   5.265   9.700 -0.1484 -0.0061 -0.2754
  221loPI   GL1 3525  15.679   5.039   9.386  0.2541  0.1692  0.1060
  221loPI   GL2 3526  15.744   5.310   9.432  0.1940  0.1949  0.0644
  221loPI   C1A 3527  15.748   4.974   8.990  0.0793 -0.2005 -0.1264
  221loPI   C2A 3528  16.047   4.698   8.639  0.1083  0.0926 -0.3578
  221loPI   C3A 3529  16.188   4.829   8.287  0.3317  0.0148 -0.3084
  221loPI   C4A 3530  16.429   5.050   7.905 -0.0153  0.1026  0.0974
  221loPI   C5A 3531  16.238   5.257   7.583  0.5097 -0.0927  0.1723
  221loPI   C6A 3532  15.956   5.284   7.227 -0.3028  0.0264 -0.0045
  221loPI   C1B 3533  15.463   5.340   9.014 -0.4130  0.0287  0.0093
  221loPI   C2B 3534  15.496   5.410   8.562  0.3408  0.0525 -0.2170
  221loPI   C3B 3535  15.539   5.447   8.083  0.0291 -0.1388  0.2352
  221loPI   C4B 3536  15.325   5.689   7.767  0.1586 -0.1432 -0.5092
  222loPI    C1 3537  11.241  12.674  10.374 -0.1093 -0.2601 -0.1188
  222loPI    C2 3538  11.232  12.867  10.724  0.1577 -0.0730 -0.2113
  222loPI    C3 3539  11.203  12.468  10.715  0.1689 -0.0806  0.0249
  222loPI   PO4 3540  11.442  12.900  10.219 -0.2118 -0.0512  0.1087
  222loPI   GL1 3541  11.126  12.983   9.837  0.1337 -0.0539  0.1259
  222loPI   GL2 3542  11.196  12.693   9.869  0.0046 -0.2440  0.0230
  222loPI   C1A 3543  10.937  12.885   9.477  0.2173 -0.0752  0.1012
  222loPI   C2A 3544  10.737  12.904   9.045 -0.0254  0.1405 -0.0027
  222loPI   C3A 3545  10.709  12.854   8.663 -0.1385 -0.0191 -0.0446
  222loPI   C4A 3546  10.846  12.752   8.201  0.1327 -0.2187 -0.1719
  222loPI   C5A 3547  10.651  12.681   7.811  0.0185  0.0645  0.0700
  222loPI   C6A 3548  10.191  12.824   7.529 -0.1442  0.0408  0.2071
  222loPI   C1B 3549  11.466  12.645   9.501 -0.0127  0.1391  0.3300
  222loPI   C2B 3550  11.674  12.426   9.288 -0.3338 -0.3668 -0.2936
  222loPI   C3B 3551  11.904  12.333   8.903 -0.2027  0.0938  0.0827
  222loPI   C4B 3552  12.066  12.145   8.514 -0.0017  0.2280 -0.1276
  223loPI    C1 3553   6.892   3.341   9.849  0.0464  0.0281 -0.0072
  223loPI    C2 3554   7.033   3.008  10.020  0.0852  0.0710  0.0444
  223loPI    C3 3555   7.226   3.355  10.068  0.0731  0.0913 -0.0519
  223loPI   PO4 3556   6.842   3.274   9.605 -0.3771  0.1858  0.1282
  223loPI   GL1 3557   6.753   3.340   9.147 -0.0453 -0.3835 -0.0960
  223loPI   GL2 3558   6.706   3.683   9.324 -0.4345  0.0030 -0.0618
  223loPI   C1A 3559   6.590   3.115   8.724 -0.2997 -0.1678 -0.1035
  223loPI   C2A 3560   6.651   2.874   8.406 -0.2279  0.0598 -0.0157
  223loPI   C3A 3561   6.698   2.704   8.109  0.2094  0.2358  0.1395
  223loPI   C4A 3562   6.848   2.526   7.741 -0.1866  0.0551  0.1035
  223loPI   C5A 3563   6.850   2.297   7.339 -0.1424  0.1893 -0.0618
  223loPI   C6A 3564   7.040   2.078   6.932 -0.1715  0.1061 -0.1236
  223loPI   C1B 3565   7.154   3.628   8.966  0.3835 -0.2428 -0.0997
  223loPI   C2B 3566   7.200   3.251   8.772  0.0273  0.5375  0.1028
  223loPI   C3B 3567   7.255   3.031   8.338  0.1308  0.0725 -0.0574
  223loPI   C4B 3568   7.182   2.702   8.133  0.0507  0.1740 -0.2408
  224loPI    C1 3569  13.521  19.113   9.618 -0.1220 -0.1233  0.0589
  224loPI    C2 3570  13.229  19.300   9.418  0.0457  0.0595 -0.0188
  224loPI    C3 3571  13.363  19.450   9.764  0.0237 -0.0437  0.0351
  224loPI   PO4 3572  13.640  19.015   9.369  0.0877  0.0800 -0.0142
  224loPI   GL1 3573  13.522  19.106   8.954  0.0699 -0.1437 -0.0401
  224loPI   GL2 3574  13.267  18.956   9.012  0.1423 -0.2961  0.1922
  224loPI   C1A 3575  13.423  18.919   8.493  0.1266  0.3198 -0.1454
  224loPI   C2A 3576  13.520  19.175   8.242 -0.1020  0.0917 -0.0699
  224loPI   C3A 3577  13.837  19.130   7.731  0.0948 -0.3491 -0.0562
  224loPI   C4A 3578  14.037  19.020   7.359 -0.0316  0.1575  0.0576
  224loPI   C5A 3579  14.420  18.811   7.207  0.4585  0.0974 -0.0338
  224loPI   C6A 3580  14.741  18.368   7.369 -0.1873 -0.0182  0.0945
  224loPI   C1B 3581  13.422  18.544   8.778  0.1014  0.1612 -0.2637
  224loPI   C2B 3582  13.492  18.433   8.349 -0.0182  0.1865  0.1626
  224loPI   C3B 3583  13.583  18.274   7.932  0.1689 -0.2662 -0.1791
  224loPI   C4B 3584  13.702  18.102   7.553  0.2198 -0.1706 -0.2453
  225loPI    C1 3585   0.835   7.819   9.622 -0.1082 -0.1240  0.0571
  225loPI    C2 3586   0.576   7.627   9.859 -0.0613  0.0170  0.2254
  225loPI    C3 3587   0.968   7.615   9.940 -0.0065 -0.2386 -0.0582
  225loPI   PO4 3588   0.780   8.038   9.590  0.3827 -0.2901  0.0977
  225loPI   GL1 3589   0.614   8.075   9.173  0.0604 -0.0840 -0.0178
  225loPI   GL2 3590   0.761   8.413   9.096 -0.1540 -0.0491  0.2194
  225loPI   C1A 3591   0.479   7.897   8.674  0.1045  0.1224  0.2095
  225loPI   C2A 3592   0.548   7.984   8.163  0.0101  0.3389 -0.0387
  225loPI   C3A 3593   0.790   7.986   7.822  0.2833  0.0785  0.0220
  225loPI   C4A 3594   1.039   8.095   7.515 -0.2308  0.1025  0.3647
  225loPI   C5A 3595   1.485   8.256   7.427 -0.0051  0.2626 -0.1253
  225loPI   C6A 3596   1.550   8.578   7.268  0.1154  0.1794 -0.3684
  225loPI   C1B 3597   0.842   8.431   8.682 -0.0797  0.2387 -0.0489
  225loPI   C2B 3598   0.783   8.445   8.148  0.1144 -0.0093  0.0139
  225loPI   C3B 3599   0.621   8.503   7.752 -0.3260  0.1310  0.3013
  225loPI   C4B 3600   0.612   8.304   7.340 -0.2654 -0.0455  0.1167
  226loPI    C1 3601  14.499   5.873  10.164  0.1416  0.0445  0.1227
  226loPI    C2 3602  14.223   5.626  10.314  0.2736 -0.2586 -0.1220
  226loPI    C3 3603  14.348   5.940  10.528 -0.0509 -0.2795  0.1062
  226loPI   PO4 3604  14.539   5.753   9.913 -0.1844  0.0835  0.1436
  226loPI   GL1 3605  14.281   5.901   9.574 -0.0906 -0.0411  0.1473
  226loPI   GL2 3606  14.246   6.153   9.596 -0.1677 -0.0512  0.1074
  226loPI   C1A 3607  14.561   5.859   9.184 -0.2992  0.4590 -0.1108
  226loPI   C2A 3608  14.741   5.937   8.887  0.4605 -0.4550 -0.0990
  226loPI   C3A 3609  14.796   6.079   8.398 -0.0340 -0.1156 -0.0414
  226loPI   C4A 3610  14.791   6.127   8.035 -0.1389 -0.1855 -0.1948
  226loPI   C5A 3611  14.596   6.466   7.752  0.2811  0.0321 -0.0294
  226loPI   C6A 3612  14.203   6.643   7.790 -0.0443 -0.3656 -0.1898
  226loPI   C1B 3613  14.190   6.357   9.314  0.5100 -0.2210  0.0793
  226loPI   C2B 3614  14.166   6.156   8.938  0.2497 -0.0521 -0.0310
  226loPI   C3B 3615  14.199   6.084   8.570 -0.2607  0.2206 -0.3229
  226loPI   C4B 3616  14.344   6.270   8.178 -0.1136 -0.4260 -0.3330
  227loPI    C1 3617   1.995   2.282  10.325  0.1683  0.1104 -0.3328
  227loPI    C2 3618   2.134   2.169  10.682  0.0997 -0.2086 -0.4043
  227loPI    C3 3619   1.964   2.528  10.639 -0.1558 -0.2803 -0.0479
  227loPI   PO4 3620   1.880   2.079  10.286  0.4016  0.3103 -0.1759
  227loPI   GL1 3621   1.783   1.950   9.937 -0.1030 -0.1118 -0.0442
  227loPI   GL2 3622   1.866   2.226   9.760  0.3534  0.3382  0.1558
  227loPI   C1A 3623   1.930   1.753   9.581  0.0291 -0.0890  0.1605
  227loPI   C2A 3624   2.165   1.734   9.179  0.1551  0.3762  0.1442
  227loPI   C3A 3625   2.024   1.607   8.707  0.0110  0.0977  0.1179
  227loPI   C4A 3626   2.083   1.727   8.223 -0.1019  0.0088 -0.1371
  227loPI   C5A 3627   2.301   1.752   7.869  0.0467  0.0381 -0.0499
  227loPI   C6A 3628   2.390   1.623   7.543 -0.0033  0.1221  0.2732
  227loPI   C1B 3629   1.962   2.188   9.326 -0.0864 -0.2165  0.0096
  227loPI   C2B 3630   2.225   2.236   8.978 -0.0219 -0.0732 -0.0913
  227loPI   C3B 3631   2.263   2.058   8.598  0.0070 -0.0359  0.1045
  227loPI   C4B 3632   2.545   1.974   8.357 -0.0125  0.2663  0.0022
  228loPI    C1 3633   4.162   2.417  10.583 -0.0032  0.1096  0.1178
  228loPI    C2 3634   4.295   2.781  10.682  0.0999  0.0922  0.0457
  228loPI    C3 3635   4.327   2.478  10.942 -0.0734  0.1552  0.1427
  228loPI   PO4 3636   4.289   2.346  10.317 -0.3144  0.2393 -0.2283
  228loPI   GL1 3637   4.110   2.208   9.978 -0.1596 -0.3665 -0.2828
  228loPI   GL2 3638   4.394   2.099   9.793  0.2619 -0.2610 -0.1402
  228loPI   C1A 3639   3.905   2.183   9.549 -0.3365  0.1083 -0.1559
  228loPI   C2A 3640   3.877   2.280   9.091  0.0736 -0.2140 -0.0797
  228loPI   C3A 3641   3.874   2.299   8.663  0.1864  0.1186  0.0065
  228loPI   C4A 3642   3.790   2.259   8.239  0.1416 -0.0440 -0.0157
  228loPI   C5A 3643   3.738   1.974   7.889  0.2220 -0.1318  0.2926
  228loPI   C6A 3644   3.682   1.539   7.965  0.1854  0.1432  0.2754
  228loPI   C1B 3645   4.395   2.041   9.314  0.1105 -0.1574 -0.0342
  228loPI   C2B 3646   4.466   1.990   8.925  0.0779 -0.1302  0.3033
  228loPI   C3B 3647   4.492   1.982   8.491  0.0640 -0.1285 -0.0958
  228loPI   C4B 3648   4.728   2.113   8.108  0.0485 -0.1370 -0.4592
  229loPI    C1 3649   3.326  16.598  10.086  0.2089  0.0714 -0.0795
  229loPI    C2 3650   3.683  16.599  10.266  0.1432  0.0194  0.0521
  229loPI    C3 3651   3.352  16.523  10.478  0.0664 -0.0561 -0.0935
  229loPI   PO4 3652   3.205  16.470   9.817  0.0099 -0.0258  0.1105
  229loPI   GL1 3653   3.380  16.218   9.541 -0.0002 -0.0082  0.2413
  229loPI   GL2 3654   3.210  16.326   9.280 -0.0155  0.2290  0.1066
  229loPI   C1A 3655   3.635  16.541   9.284  0.1152 -0.1267  0.1875
  229loPI   C2A 3656   3.582  16.582   8.915  0.0022  0.2082  0.0888
  229loPI   C3A 3657   3.550  16.605   8.534 -0.2375 -0.0547  0.1494
  229loPI   C4A 3658   3.704  16.681   8.111  0.2588 -0.0824 -0.0041
  229loPI   C5A 3659   3.860  16.587   7.624  0.0389  0.0038 -0.2084
  229loPI   C6A 3660   3.894  16.351   7.254 -0.0062  0.0141  0.2042
  229loPI   C1B 3661   3.137  16.329   8.916 -0.1028 -0.3972 -0.0841
  229loPI   C2B 3662   3.159  16.246   8.560  0.0686  0.1360  0.0318
  229loPI   C3B 3663   3.169  16.475   8.133  0.1003  0.1342  0.2761
  229loPI   C4B 3664   3.420  16.412   7.759  0.6513 -0.1978  0.0965
  230loPI    C1 3665  17.372  12.242   9.989  0.3063  0.1494 -0.2423
  230loPI    C2 3666  17.566  12.483  10.241  0.1520  0.1507 -0.1236
  230loPI    C3 3667  17.552  12.090  10.312 -0.1391  0.1863  0.0312
  230loPI   PO4 3668  17.184  12.381   9.896 -0.2129 -0.1468 -0.0335
  230loPI   GL1 3669  16.947  12.314   9.511 -0.2797  0.2143  0.3139
  230loPI   GL2 3670  16.573  12.281   9.493  0.0199 -0.0099 -0.2769
  230loPI   C1A 3671  16.938  12.649   9.208 -0.1159  0.0662 -0.2321
  230loPI   C2A 3672  16.719  12.692   8.843  0.0230 -0.2224  0.1056
  230loPI   C3A 3673  16.756  12.806   8.403  0.0624  0.0125 -0.2357
  230loPI   C4A 3674  16.804  12.771   7.940  0.0723 -0.1050  0.1674
  230loPI   C5A 3675  16.851  12.677   7.510 -0.2459  0.0731  0.0635
  230loPI   C6A 3676  16.990  12.291   7.438  0.2613  0.1990 -0.1511
  230loPI   C1B 3677  16.613  12.273   9.029  0.1194 -0.0379  0.1395
  230loPI   C2B 3678  16.622  12.232   8.576  0.0145 -0.0087 -0.1079
  230loPI   C3B 3679  16.531  12.405   8.173  0.1056  0.2477  0.1063
  230loPI   C4B 3680  16.673  12.259   7.812 -0.4199 -0.1196 -0.0384
  231loPI    C1 3681   1.772  15.913  10.245  0.2515 -0.0042  0.0739
  231loPI    C2 3682   2.132  15.985  10.405  0.1815  0.1165  0.1791
  231loPI    C3 3683   1.878  15.737  10.588  0.1618  0.1315  0.1723
  231loPI   PO4 3684   1.862  15.884   9.903 -0.0861 -0.1655 -0.0506
  231loPI   GL1 3685   2.064  15.898   9.510 -0.2414 -0.1509 -0.0334
  231loPI   GL2 3686   1.782  16.112   9.497 -0.0850  0.0307  0.0770
  231loPI   C1A 3687   1.856  15.552   9.224 -0.1243 -0.0604 -0.1413
  231loPI   C2A 3688   1.865  15.622   8.715  0.2506  0.1159 -0.1876
  231loPI   C3A 3689   1.873  15.781   8.228 -0.0630 -0.0146 -0.1293
  231loPI   C4A 3690   2.024  15.603   7.858  0.0449 -0.3420  0.1219
  231loPI   C5A 3691   2.270  15.790   7.429 -0.2027 -0.2470  0.0422
  231loPI   C6A 3692   2.171  15.913   7.077  0.1958  0.1313  0.4393
  231loPI   C1B 3693   1.895  16.068   9.078 -0.0389  0.4713 -0.1981
  231loPI   C2B 3694   1.688  16.073   8.666 -0.0527  0.0819 -0.2501
  231loPI   C3B 3695   1.939  16.255   8.267  0.0783 -0.2617  0.1597
  231loPI   C4B 3696   2.094  16.145   7.883 -0.0667  0.0169  0.1475
  232loPI    C1 3697   3.782   2.747  10.764  0.2599 -0.1539  0.0384
  232loPI    C2 3698   3.945   3.066  10.942  0.1679 -0.1816  0.1738
  232loPI    C3 3699   3.602   2.913  11.080  0.1765 -0.2984  0.0678
  232loPI   PO4 3700   3.836   2.740  10.519 -0.0020 -0.1348  0.0115
  232loPI   GL1 3701   3.675   2.481  10.233 -0.0241  0.4159 -0.0387
  232loPI   GL2 3702   3.372   2.248  10.052  0.2336  0.2163 -0.2269
  232loPI   C1A 3703   3.645   2.566   9.785  0.2278  0.2452 -0.2459
  232loPI   C2A 3704   3.543   2.596   9.333  0.4469 -0.0303  0.4203
  232loPI   C3A 3705   3.397   2.434   8.824  0.4301  0.2643 -0.0238
  232loPI   C4A 3706   3.319   2.386   8.406  0.1736  0.1341 -0.1160
  232loPI   C5A 3707   3.240   2.229   8.016  0.1843 -0.0828 -0.0858
  232loPI   C6A 3708   3.259   2.207   7.594 -0.0179  0.1824 -0.1872
  232loPI   C1B 3709   3.411   2.175   9.635  0.0388 -0.0490  0.1288
  232loPI   C2B 3710   3.476   1.918   9.217 -0.1831 -0.2462 -0.0960
  232loPI   C3B 3711   3.393   1.913   8.744  0.4178  0.2175 -0.1183
  232loPI   C4B 3712   3.520   1.885   8.358 -0.2601 -0.2649  0.0499
  233loPI    C1 3713  11.212   1.254   9.693 -0.0478 -0.0376  0.0831
  233loPI    C2 3714  11.113   1.627   9.799 -0.0027 -0.0272  0.0884
  233loPI    C3 3715  11.058   1.325  10.056 -0.1195 -0.0365  0.0528
  233loPI   PO4 3716  11.144   1.072   9.494  0.3352  0.2312  0.0531
  233loPI   GL1 3717  11.131   0.729   9.199  0.2790 -0.1872  0.1707
  233loPI   GL2 3718  10.871   0.856   9.140  0.1692  0.0789 -0.0620
  233loPI   C1A 3719  11.331   0.564   8.758  0.1603  0.1209 -0.1147
  233loPI   C2A 3720  11.330   0.494   8.322 -0.0428  0.1879 -0.0385
  233loPI   C3A 3721  11.262   0.483   7.869  0.0393 -0.2433  0.0506
  233loPI   C4A 3722  11.107   0.501   7.542 -0.1767  0.2713  0.1271
  233loPI   C5A 3723  11.029   0.354   7.039 -0.0445 -0.1141  0.1977
  233loPI   C6A 3724  10.832   0.430   6.669 -0.1102 -0.0338  0.0227
  233loPI   C1B 3725  11.050   0.994   8.748 -0.2045  0.2937 -0.1792
  233loPI   C2B 3726  10.905   0.769   8.405 -0.0096 -0.2209  0.0228
  233loPI   C3B 3727  10.825   0.588   8.094 -0.0098  0.1062 -0.1963
  233loPI   C4B 3728  10.671   0.668   7.761 -0.3260  0.0666 -0.1848
  234loPI    C1 3729  16.838   0.226  10.411  0.1566  0.0933  0.0336
  234loPI    C2 3730  16.788   0.556  10.632  0.1034 -0.0348  0.2153
  234loPI    C3 3731  16.732   0.195  10.795  0.1746 -0.1353  0.0216
  234loPI   PO4 3732  16.705   0.331  10.067  0.0382  0.1148 -0.0277
  234loPI   GL1 3733  16.771   0.112   9.607 -0.1853 -0.0684 -0.0905
  234loPI   GL2 3734  16.996  -0.182   9.560 -0.0839  0.0587 -0.0272
  234loPI   C1A 3735  16.657   0.040   9.154 -0.0754 -0.3613  0.1719
  234loPI   C2A 3736  16.939   0.062   8.732  0.0505 -0.0247 -0.1457
  234loPI   C3A 3737  17.148  -0.269   8.489 -0.1983  0.1524  0.0011
  234loPI   C4A 3738  17.241  -0.576   8.198  0.1332  0.1041 -0.1199
  234loPI   C5A 3739  17.151  -0.797   7.805 -0.1638  0.0789  0.0199
  234loPI   C6A 3740  17.092  -0.777   7.353  0.0095 -0.0569 -0.1978
  234loPI   C1B 3741  17.100  -0.191   9.144  0.0734 -0.0268 -0.0431
  234loPI   C2B 3742  17.252  -0.530   8.961 -0.0134  0.0593 -0.0887
  234loPI   C3B 3743  17.127  -0.831   8.651 -0.1560  0.5037  0.1711
  234loPI   C4B 3744  17.080  -1.238   8.590 -0.1446  0.1107 -0.1659
  235loPI    C1 3745  13.050   3.542   9.599 -0.1029 -0.0342 -0.1037
  235loPI    C2 3746  13.126   3.404   9.967 -0.2716  0.0248 -0.0458
  235loPI    C3 3747  12.754   3.514   9.867 -0.1819  0.2298 -0.1601
  235loPI   PO4 3748  13.215   3.440   9.471 -0.1427  0.1979 -0.0709
  235loPI   GL1 3749  13.327   3.424   9.037 -0.3010  0.0556 -0.0819
  235loPI   GL2 3750  13.462   3.747   9.057 -0.2352 -0.1726 -0.2437
  235loPI   C1A 3751  13.385   3.430   8.687  0.1113 -0.0334 -0.0089
  235loPI   C2A 3752  13.190   3.295   8.319  0.0510  0.1143 -0.0144
  235loPI   C3A 3753  12.995   3.077   7.874  0.1545  0.0159  0.2796
  235loPI   C4A 3754  12.792   3.052   7.445 -0.2005  0.1660  0.0988
  235loPI   C5A 3755  12.545   3.046   7.113 -0.3932 -0.1227 -0.0626
  235loPI   C6A 3756  12.306   2.719   6.939 -0.2145 -0.0719  0.3801
  235loPI   C1B 3757  13.211   3.940   8.742 -0.0566  0.0968 -0.0413
  235loPI   C2B 3758  13.179   4.071   8.230  0.0487 -0.1974 -0.0331
  235loPI   C3B 3759  13.123   4.315   7.862 -0.2014 -0.1459  0.0062
  235loPI   C4B 3760  13.427   4.454   7.571 -0.0843 -0.2958 -0.4053
  236loPI    C1 3761   0.592  19.100  10.090 -0.2054 -0.2551  0.2482
  236loPI    C2 3762   0.825  18.792  10.192  0.0942 -0.0557  0.1807
  236loPI    C3 3763   0.672  19.030  10.475  0.0783 -0.1106  0.2184
  236loPI   PO4 3764   0.773  19.257   9.867  0.2454 -0.0034  0.2116
  236loPI   GL1 3765   0.917  19.357   9.406 -0.1631  0.0701  0.3455
  236loPI   GL2 3766   1.084  19.698   9.358  0.0534 -0.1924 -0.0474
  236loPI   C1A 3767   0.910  19.437   8.998  0.2814 -0.1355 -0.0104
  236loPI   C2A 3768   1.064  19.584   8.647 -0.1246  0.1514 -0.0246
  236loPI   C3A 3769   1.384  19.605   8.249 -0.0006 -0.2591  0.2546
  236loPI   C4A 3770   1.558  19.276   7.926  0.2206 -0.0197  0.1205
  236loPI   C5A 3771   1.797  18.876   7.913 -0.0759 -0.0188 -0.3010
  236loPI   C6A 3772   1.944  18.486   8.094  0.1990  0.0164  0.1689
  236loPI   C1B 3773   1.374  19.793   9.018 -0.0746  0.3712 -0.2867
  236loPI   C2B 3774   1.614  19.565   8.656  0.2251  0.3047  0.0147
  236loPI   C3B 3775   1.730  19.238   8.427 -0.0581  0.0255 -0.0723
  236loPI   C4B 3776   2.082  18.959   8.379 -0.3107 -0.0237 -0.3297
  237loPI    C1 3777   9.365  16.722   9.905  0.2271 -0.2067 -0.0045
  237loPI    C2 3778   9.711  16.549   9.803  0.2420 -0.2647  0.1421
  237loPI    C3 3779   9.378  16.329   9.833  0.1600 -0.1842 -0.1449
  237loPI   PO4 3780   9.318  16.855   9.674  0.0734 -0.0472  0.0212
  237loPI   GL1 3781   9.262  16.586   9.382 -0.1418 -0.1144  0.0750
  237loPI   GL2 3782   9.120  16.348   9.389  0.1077 -0.0011  0.1802
  237loPI   C1A 3783   9.214  16.533   8.946  0.0397 -0.0518 -0.1769
  237loPI   C2A 3784   9.598  16.496   8.638  0.0207 -0.0953  0.2197
  237loPI   C3A 3785   9.696  16.323   8.242  0.0670 -0.0544  0.0267
  237loPI   C4A 3786   9.431  16.291   7.994 -0.1941  0.0247 -0.0456
  237loPI   C5A 3787   9.198  16.264   7.698  0.1865 -0.1690 -0.0821
  237loPI   C6A 3788   8.841  16.115   7.326  0.0233  0.0296 -0.1230
  237loPI   C1B 3789   9.314  16.097   9.113  0.1033 -0.0169 -0.0514
  237loPI   C2B 3790   9.594  16.024   8.705  0.2340 -0.1987 -0.1956
  237loPI   C3B 3791   9.571  15.824   8.364  0.1121 -0.0241  0.1010
  237loPI   C4B 3792   9.296  15.672   8.022 -0.3544 -0.0311 -0.1224
  238loPI    C1 3793  10.896   2.451   9.413 -0.2191 -0.2354  0.0596
  238loPI    C2 3794  10.689   2.793   9.386  0.0468 -0.0917 -0.2221
  238loPI    C3 3795  10.786   2.646   9.745 -0.1688  0.0658 -0.0969
  238loPI   PO4 3796  10.791   2.340   9.237  0.0016  0.2292  0.0573
  238loPI   GL1 3797  10.646   1.998   9.037  0.1219 -0.0273  0.1654
  238loPI   GL2 3798  11.060   1.942   8.842  0.2192 -0.2562  0.0419
  238loPI   C1A 3799  10.487   2.196   8.601  0.1825  0.0863  0.0214
  238loPI   C2A 3800  10.043   2.209   8.437 -0.1229 -0.1141  0.0595
  238loPI   C3A 3801   9.775   2.459   8.151  0.2455 -0.4431 -0.0931
  238loPI   C4A 3802   9.948   2.588   7.750  0.2461 -0.1804 -0.0051
  238loPI   C5A 3803  10.270   2.359   7.468 -0.1006 -0.1687  0.2755
  238loPI   C6A 3804  10.533   2.081   7.205  0.0763  0.0953  0.1152
  238loPI   C1B 3805  10.984   2.198   8.401  0.1021  0.1106 -0.0533
  238loPI   C2B 3806  10.897   2.323   8.059  0.3711  0.1431  0.2268
  238loPI   C3B 3807  11.194   2.459   7.756 -0.2628 -0.0149  0.3345
  238loPI   C4B 3808  11.587   2.118   7.530 -0.2320 -0.1879 -0.1434
  239loPI    C1 3809  17.691   8.404  10.034 -0.0475 -0.2022  0.0378
  239loPI    C2 3810  17.772   8.181  10.356 -0.1324 -0.0107  0.1934
  239loPI    C3 3811  17.658   8.562  10.400 -0.3429 -0.0426 -0.0548
  239loPI   PO4 3812  17.630   8.155   9.858 -0.0133 -0.0325 -0.1462
  239loPI   GL1 3813  17.481   8.094   9.501 -0.0408  0.0935 -0.0300
  239loPI   GL2 3814  17.601   8.317   9.287  0.0043  0.0930 -0.1911
  239loPI   C1A 3815  17.335   7.987   9.066 -0.4540 -0.1858  0.1595
  239loPI   C2A 3816  17.218   7.901   8.706  0.1272  0.1251  0.3089
  239loPI   C3A 3817  17.250   7.940   8.215 -0.0067 -0.2479  0.2382
  239loPI   C4A 3818  17.042   7.921   7.799  0.0941  0.3041  0.0045
  239loPI   C5A 3819  17.085   7.725   7.470 -0.1525  0.1463 -0.3836
  239loPI   C6A 3820  17.412   7.421   7.269  0.2775  0.2307  0.4108
  239loPI   C1B 3821  17.732   8.305   8.843 -0.2319  0.0739  0.4503
  239loPI   C2B 3822  17.775   8.210   8.411 -0.1159 -0.1616  0.1869
  239loPI   C3B 3823  17.665   8.201   7.938  0.0943  0.3856  0.1645
  239loPI   C4B 3824  17.503   8.021   7.572  0.1774  0.1345 -0.0750
  240loPI    C1 3825   7.719   3.870   9.537  0.1968  0.0806  0.0484
  240loPI    C2 3826   7.554   4.006   9.876  0.2252  0.1206  0.0462
  240loPI    C3 3827   7.588   3.612   9.814  0.0517  0.1109  0.0087
  240loPI   PO4 3828   7.551   4.111   9.362  0.0422 -0.1853  0.1318
  240loPI   GL1 3829   7.310   4.082   9.033 -0.0267  0.0380 -0.3131
  240loPI   GL2 3830   7.193   4.401   9.138 -0.1714  0.4780  0.0158
  240loPI   C1A 3831   7.229   4.394   8.615 -0.1215  0.0290 -0.0376
  240loPI   C2A 3832   7.044   4.764   8.418 -0.0631  0.2081 -0.2359
  240loPI   C3A 3833   6.853   4.863   8.025  0.2920 -0.1009 -0.1011
  240loPI   C4A 3834   6.518   4.702   7.789  0.1526 -0.0960  0.0622
  240loPI   C5A 3835   6.142   4.556   7.619 -0.2572  0.0626  0.2096
  240loPI   C6A 3836   5.935   4.489   7.228  0.0753  0.1420 -0.1911
  240loPI   C1B 3837   6.833   4.575   8.932  0.1037 -0.0299  0.0682
  240loPI   C2B 3838   6.701   4.397   8.586 -0.0165 -0.0533  0.0243
  240loPI   C3B 3839   6.754   4.372   8.266 -0.0095  0.1189 -0.1408
  240loPI   C4B 3840   6.922   4.343   7.856 -0.2354 -0.0588  0.2445
  241loPI    C1 3841  11.993  15.576  10.093  0.0003 -0.0711  0.0184
  241loPI    C2 3842  11.674  15.792  10.203  0.0746  0.0208  0.0557
  241loPI    C3 3843  11.904  15.620  10.481  0.1032  0.0210  0.0321
  241loPI   PO4 3844  11.920  15.405   9.896 -0.0625 -0.2456 -0.2700
  241loPI   GL1 3845  11.765  15.064   9.649  0.1710 -0.0533  0.3593
  241loPI   GL2 3846  11.559  15.297   9.429  0.0883 -0.3443 -0.5441
  241loPI   C1A 3847  11.642  14.768   9.395  0.2388  0.2583  0.0361
  241loPI   C2A 3848  11.542  14.554   8.949 -0.0453  0.2147 -0.0268
  241loPI   C3A 3849  11.761  14.446   8.511  0.0028  0.1998 -0.5006
  241loPI   C4A 3850  11.727  14.278   8.130  0.1679 -0.2395 -0.3469
  241loPI   C5A 3851  11.932  13.977   7.868  0.0516 -0.0218  0.4352
  241loPI   C6A 3852  12.296  13.545   7.799 -0.0218  0.3226 -0.2656
  241loPI   C1B 3853  11.513  15.167   9.038 -0.1370  0.0919  0.1916
  241loPI   C2B 3854  11.525  15.007   8.664 -0.1564 -0.0505 -0.5256
  241loPI   C3B 3855  11.716  14.947   8.327 -0.5827 -0.1504  0.2110
  241loPI   C4B 3856  11.771  14.747   7.852 -0.1168 -0.0964  0.0390
  242loPI    C1 3857  17.866   9.927  10.053  0.1208 -0.1885  0.1056
  242loPI    C2 3858  17.735  10.135  10.368  0.0977 -0.0116 -0.0193
  242loPI    C3 3859  17.550   9.797  10.261 -0.1319  0.1282 -0.0716
  242loPI   PO4 3860  17.829  10.095   9.866 -0.0362  0.0825  0.1637
  242loPI   GL1 3861  17.669  10.326   9.441 -0.0662  0.1667 -0.4590
  242loPI   GL2 3862  17.649  10.624   9.397  0.1546  0.3211  0.1283
  242loPI   C1A 3863  17.982  10.292   9.116  0.1512  0.2727  0.0303
  242loPI   C2A 3864  18.185  10.526   8.854  0.1691 -0.1125 -0.0426
  242loPI   C3A 3865  18.419  10.672   8.511  0.1378  0.1722 -0.3310
  242loPI   C4A 3866  18.461  10.531   8.178 -0.1053  0.0222 -0.0520
  242loPI   C5A 3867  18.532  10.552   7.665 -0.1350 -0.0674  0.2690
  242loPI   C6A 3868  18.505  10.859   7.348  0.0540 -0.0060 -0.1578
  242loPI   C1B 3869  17.604  10.486   8.947  0.0994 -0.1138  0.2393
  242loPI   C2B 3870  17.702  10.561   8.525  0.1351  0.1206 -0.0431
  242loPI   C3B 3871  17.989  10.682   8.253  0.1797 -0.0039  0.0683
  242loPI   C4B 3872  18.099  10.720   7.902  0.2241 -0.0738  0.1048
  243loPI    C1 3873   7.657   2.660   9.605 -0.3017 -0.1869 -0.2975
  243loPI    C2 3874   7.860   2.395   9.384 -0.1162 -0.1210 -0.2078
  243loPI    C3 3875   7.972   2.779   9.390 -0.1481 -0.1134 -0.0360
  243loPI   PO4 3876   7.401   2.651   9.518  0.1135 -0.1254  0.0414
  243loPI   GL1 3877   7.118   2.603   9.098  0.1337 -0.0440  0.1086
  243loPI   GL2 3878   6.832   2.859   9.132 -0.2360  0.2843  0.1470
  243loPI   C1A 3879   7.011   2.648   8.677  0.1143  0.0102 -0.0375
  243loPI   C2A 3880   6.888   2.378   8.458  0.0425 -0.0107 -0.3169
  243loPI   C3A 3881   6.866   2.192   8.108  0.0566  0.2005  0.1170
  243loPI   C4A 3882   6.821   1.889   7.735 -0.1203  0.0141 -0.2379
  243loPI   C5A 3883   6.983   1.805   7.386  0.2423  0.2075  0.1388
  243loPI   C6A 3884   7.169   1.451   7.101 -0.1235 -0.0220 -0.0049
  243loPI   C1B 3885   6.565   2.631   8.851  0.1329 -0.4367 -0.5365
  243loPI   C2B 3886   6.344   2.331   8.661 -0.0846  0.0749  0.0917
  243loPI   C3B 3887   6.228   2.540   8.250 -0.2584 -0.1411  0.1413
  243loPI   C4B 3888   5.990   2.448   8.025  0.1281  0.1309 -0.1965
  244loPI    C1 3889  10.604   3.338   9.425  0.0825 -0.2093 -0.3598
  244loPI    C2 3890  10.939   3.252   9.224  0.3010  0.1348 -0.1519
  244loPI    C3 3891  10.937   3.240   9.624  0.0090 -0.0515 -0.1562
  244loPI   PO4 3892  10.356   3.127   9.345  0.0820  0.0245 -0.1064
  244loPI   GL1 3893  10.306   3.079   8.903 -0.0399  0.1185  0.0203
  244loPI   GL2 3894  10.657   2.981   8.907 -0.0779 -0.2406  0.0669
  244loPI   C1A 3895  10.043   3.200   8.622 -0.0357 -0.3785 -0.2955
  244loPI   C2A 3896   9.913   3.402   8.258 -0.1699  0.2244  0.1536
  244loPI   C3A 3897   9.667   3.476   7.819  0.2027  0.3591 -0.3276
  244loPI   C4A 3898   9.294   3.693   7.511  0.0257 -0.2525  0.0284
  244loPI   C5A 3899   9.040   3.967   7.180  0.3496  0.1390 -0.3151
  244loPI   C6A 3900   9.190   4.323   6.909 -0.0478  0.2725  0.2883
  244loPI   C1B 3901  10.930   3.050   8.569  0.0721  0.0105  0.1917
  244loPI   C2B 3902  11.110   2.705   8.340 -0.4000 -0.0661  0.3263
  244loPI   C3B 3903  11.537   2.641   8.183 -0.3495  0.0045  0.1063
  244loPI   C4B 3904  11.727   2.257   8.016 -0.1302 -0.0368 -0.3056
  245loPI    C1 3905   6.380   6.039   9.960 -0.1102 -0.0714 -0.0486
  245loPI    C2 3906   6.384   5.731   9.706  0.1031 -0.0360 -0.0904
  245loPI    C3 3907   6.521   5.684  10.079 -0.1913 -0.0828  0.0149
  245loPI   PO4 3908   6.453   6.221   9.643  0.0728 -0.0686 -0.4305
  245loPI   GL1 3909   6.351   6.433   9.326 -0.1872 -0.4376 -0.1390
  245loPI   GL2 3910   6.182   6.722   9.097  0.0023 -0.0713  0.2431
  245loPI   C1A 3911   6.412   6.202   8.949  0.0557 -0.0631  0.2657
  245loPI   C2A 3912   6.254   6.231   8.470  0.2613  0.1756  0.3589
  245loPI   C3A 3913   5.887   6.088   8.226 -0.0421 -0.1086 -0.1260
  245loPI   C4A 3914   5.696   6.176   7.838  0.3116 -0.0388  0.2466
  245loPI   C5A 3915   5.344   6.366   7.589 -0.3185 -0.0385 -0.3530
  245loPI   C6A 3916   5.055   6.673   7.371 -0.1762  0.2323 -0.0781
  245loPI   C1B 3917   6.321   6.830   8.765 -0.0624 -0.0088  0.2142
  245loPI   C2B 3918   6.380   6.784   8.362 -0.2734 -0.0670 -0.0679
  245loPI   C3B 3919   6.368   7.031   8.006  0.4112  0.0333  0.2708
  245loPI   C4B 3920   6.201   7.407   7.911 -0.1172 -0.2888 -0.0815
  246loPI    C1 3921   5.587   0.123  10.243 -0.0320  0.1251  0.4044
  246loPI    C2 3922   5.896  -0.104  10.355 -0.0181 -0.1179 -0.0975
  246loPI    C3 3923   5.960   0.258  10.196 -0.0040 -0.0818 -0.0103
  246loPI   PO4 3924   5.350  -0.118  10.154 -0.0931  0.1974 -0.0979
  246loPI   GL1 3925   5.255  -0.300   9.893  0.0662 -0.1553  0.2650
  246loPI   GL2 3926   4.882  -0.208  10.016 -0.2622 -0.2528 -0.0944
  246loPI   C1A 3927   5.332  -0.051   9.526 -0.1928  0.4124  0.0186
  246loPI   C2A 3928   5.144   0.100   9.188 -0.0185  0.0008  0.2448
  246loPI   C3A 3929   5.056  -0.019   8.733  0.1380 -0.3068 -0.2686
  246loPI   C4A 3930   5.106   0.223   8.380 -0.1006 -0.1339  0.0042
  246loPI   C5A 3931   5.121   0.039   8.036 -0.0103 -0.0103  0.0154
  246loPI   C6A 3932   4.764  -0.165   7.845  0.1626 -0.2186  0.0477
  246loPI   C1B 3933   4.813  -0.034   9.591  0.0252  0.1801  0.0435
  246loPI   C2B 3934   4.642  -0.011   9.088  0.1203 -0.0068 -0.0702
  246loPI   C3B 3935   4.434   0.309   8.725 -0.0358 -0.3378 -0.0167
  246loPI   C4B 3936   4.066   0.416   8.703  0.1472 -0.2049 -0.0277
  247loPI    C1 3937  14.366  17.073  10.059 -0.1249  0.0186  0.0653
  247loPI    C2 3938  14.567  17.266  10.346 -0.0245 -0.0136  0.0172
  247loPI    C3 3939  14.192  17.144  10.412 -0.0190  0.0221  0.1174
  247loPI   PO4 3940  14.559  17.107   9.791 -0.2570  0.0289 -0.1050
  247loPI   GL1 3941  14.676  17.217   9.500  0.2256 -0.0329 -0.2912
  247loPI   GL2 3942  14.376  17.271   9.261  0.1890 -0.1049  0.1683
  247loPI   C1A 3943  14.715  16.943   9.024 -0.1031  0.0955  0.2142
  247loPI   C2A 3944  14.704  17.029   8.489  0.0599 -0.1867 -0.0022
  247loPI   C3A 3945  14.437  17.261   8.169  0.0117 -0.2312  0.0474
  247loPI   C4A 3946  14.221  17.465   7.744  0.0026  0.0838 -0.0291
  247loPI   C5A 3947  13.961  17.553   7.443 -0.2449  0.0235  0.2555
  247loPI   C6A 3948  13.847  17.555   6.993 -0.4811 -0.4685  0.0922
  247loPI   C1B 3949  14.547  17.570   9.068  0.0266  0.0641  0.2538
  247loPI   C2B 3950  14.768  17.841   9.044  0.3990  0.3277 -0.2809
  247loPI   C3B 3951  14.830  18.209   8.948  0.1398 -0.2087 -0.1392
  247loPI   C4B 3952  15.215  18.194   8.811 -0.0917 -0.1104 -0.1718
  248loPI    C1 3953   7.455  18.045   9.888  0.0230 -0.1391  0.1706
  248loPI    C2 3954   7.821  17.911   9.979  0.0121 -0.2697  0.0284
  248loPI    C3 3955   7.509  17.817  10.212  0.0835 -0.0735  0.2067
  248loPI   PO4 3956   7.448  18.076   9.641 -0.0431 -0.0628  0.0665
  248loPI   GL1 3957   7.264  18.476   9.497 -0.0496  0.1634  0.1433
  248loPI   GL2 3958   7.550  18.601   9.531  0.1200 -0.0335 -0.0294
  248loPI   C1A 3959   7.302  18.393   9.017  0.2470  0.1405 -0.1136
  248loPI   C2A 3960   7.328  18.476   8.657  0.2060 -0.2057 -0.2279
  248loPI   C3A 3961   7.142  18.529   8.194  0.1490  0.0438  0.3142
  248loPI   C4A 3962   7.068  18.664   7.846  0.1278  0.2154  0.0719
  248loPI   C5A 3963   7.217  18.627   7.441 -0.1880 -0.3045 -0.0253
  248loPI   C6A 3964   7.361  18.745   7.007  0.1381 -0.0282 -0.3215
  248loPI   C1B 3965   7.726  18.656   9.057  0.3879  0.2058 -0.1383
  248loPI   C2B 3966   7.961  18.664   8.642 -0.3998  0.3608 -0.3389
  248loPI   C3B 3967   8.178  18.653   8.309  0.4410  0.0299  0.1653
  248loPI   C4B 3968   8.014  18.447   7.867 -0.0843  0.0890 -0.1475
  249loPI    C1 3969   0.640   1.768  10.708 -0.2175  0.0938  0.1483
  249loPI    C2 3970   0.386   1.558  10.482 -0.0839  0.1394 -0.0470
  249loPI    C3 3971   0.255   1.873  10.690 -0.2178  0.0674 -0.0213
  249loPI   PO4 3972   0.892   1.821  10.505  0.2422 -0.1121 -0.4721
  249loPI   GL1 3973   0.777   1.899  10.086 -0.0317  0.0117  0.0070
  249loPI   GL2 3974   0.519   1.835  10.025 -0.3567 -0.4048  0.1276
  249loPI   C1A 3975   0.940   2.003   9.651 -0.0672 -0.1063 -0.0233
  249loPI   C2A 3976   1.086   2.172   9.260  0.2742 -0.1933 -0.0136
  249loPI   C3A 3977   0.957   2.482   8.921 -0.2196 -0.2071  0.1754
  249loPI   C4A 3978   0.878   2.501   8.394 -0.1189  0.0138  0.0200
  249loPI   C5A 3979   0.738   2.563   7.984 -0.1058 -0.1654  0.0184
  249loPI   C6A 3980   0.502   2.765   7.667  0.0830 -0.1715 -0.2578
  249loPI   C1B 3981   0.419   2.007   9.606 -0.3880 -0.1751  0.0258
  249loPI   C2B 3982   0.582   2.050   9.147  0.0374 -0.0079  0.0372
  249loPI   C3B 3983   0.735   2.026   8.749  0.4096 -0.0244  0.2262
  249loPI   C4B 3984   0.922   1.892   8.459  0.0094 -0.1123  0.1606
  250loPI    C1 3985   2.080  11.759   9.956 -0.1089 -0.0556  0.0284
  250loPI    C2 3986   2.101  12.028  10.251  0.1933 -0.1145  0.0645
  250loPI    C3 3987   2.164  11.641  10.329  0.0220 -0.1632 -0.0341
  250loPI   PO4 3988   2.017  11.911   9.709  0.1601 -0.1445  0.2250
  250loPI   GL1 3989   1.860  12.023   9.398 -0.2111  0.0560 -0.0900
  250loPI   GL2 3990   1.609  12.205   9.473 -0.1803 -0.1182  0.1617
  250loPI   C1A 3991   1.902  12.132   8.968 -0.3567 -0.1329 -0.0329
  250loPI   C2A 3992   1.762  12.117   8.631  0.0670  0.1926 -0.1267
  250loPI   C3A 3993   1.484  12.393   8.424  0.0871 -0.0966 -0.0483
  250loPI   C4A 3994   1.295  12.264   7.990 -0.0411 -0.0483  0.1384
  250loPI   C5A 3995   1.126  12.164   7.668  0.1230  0.2435 -0.0619
  250loPI   C6A 3996   1.039  11.739   7.628 -0.0863  0.2484 -0.0577
  250loPI   C1B 3997   1.418  12.263   9.048  0.2013 -0.1927  0.0352
  250loPI   C2B 3998   1.221  12.055   8.792  0.0663 -0.4235  0.1370
  250loPI   C3B 3999   1.242  11.720   8.556  0.0866 -0.1255  0.0710
  250loPI   C4B 4000   1.290  11.656   8.085 -0.2147  0.1297  0.4645
  251loPI    C1 4001  12.251   8.765  10.663 -0.1021 -0.1108  0.0815
  251loPI    C2 4002  12.537   9.045  10.662 -0.0079 -0.2052 -0.1564
  251loPI    C3 4003  12.309   8.993  10.987 -0.0330  0.1524 -0.1133
  251loPI   PO4 4004  12.112   8.812  10.368  0.5424 -0.1246 -0.0019
  251loPI   GL1 4005  12.106   8.639   9.860  0.4078 -0.0151 -0.1288
  251loPI   GL2 4006  11.856   8.513  10.094  0.2843 -0.2419  0.1822
  251loPI   C1A 4007  12.207   8.362   9.430 -0.0957 -0.1946  0.0656
  251loPI   C2A 4008  12.188   8.427   8.953 -0.0979 -0.5218  0.1554
  251loPI   C3A 4009  12.134   8.624   8.567  0.2993  0.0951  0.1813
  251loPI   C4A 4010  12.352   8.788   8.228  0.2945 -0.2584 -0.0920
  251loPI   C5A 4011  12.566   8.810   7.764 -0.0923  0.2051 -0.3366
  251loPI   C6A 4012  12.531   8.954   7.400  0.0428 -0.2000 -0.0216
  251loPI   C1B 4013  11.625   8.597   9.699 -0.2156 -0.0911  0.1688
  251loPI   C2B 4014  11.754   8.954   9.319 -0.0233  0.4684 -0.1466
  251loPI   C3B 4015  11.719   8.993   8.892 -0.1166 -0.0519  0.3336
  251loPI   C4B 4016  11.804   9.170   8.538 -0.2693  0.1424  0.1339
  252loPI    C1 4017   7.115   6.886   9.861  0.1024 -0.2185 -0.1480
  252loPI    C2 4018   7.302   6.869  10.214  0.0749 -0.0891 -0.1266
  252loPI    C3 4019   7.066   6.568  10.098 -0.1561  0.0007  0.1009
  252loPI   PO4 4020   7.386   6.992   9.756  0.2219  0.1769  0.0170
  252loPI   GL1 4021   7.713   7.103   9.322  0.1716  0.4035  0.2644
  252loPI   GL2 4022   7.943   7.315   9.235 -0.1312  0.1493  0.1332
  252loPI   C1A 4023   7.828   6.981   8.913  0.1329 -0.1285  0.0400
  252loPI   C2A 4024   8.271   7.070   8.738 -0.0005 -0.1656 -0.1276
  252loPI   C3A 4025   8.710   7.076   8.782  0.0806 -0.0537 -0.0868
  252loPI   C4A 4026   9.076   6.877   8.600 -0.0392 -0.0901 -0.1773
  252loPI   C5A 4027   9.077   6.498   8.376 -0.0031  0.1778 -0.1640
  252loPI   C6A 4028   8.950   6.117   8.533 -0.1315  0.1689 -0.3291
  252loPI   C1B 4029   7.934   7.460   8.800  0.4114  0.3238  0.2594
  252loPI   C2B 4030   8.085   7.662   8.467  0.0301  0.0009 -0.0474
  252loPI   C3B 4031   8.009   7.687   8.047  0.2356  0.1440  0.0054
  252loPI   C4B 4032   8.244   7.899   7.662  0.3454  0.0148 -0.2203
  253loPI    C1 4033  18.162  14.130  10.172 -0.0307  0.0326 -0.1822
  253loPI    C2 4034  18.251  14.197  10.557 -0.0372 -0.0974 -0.1577
  253loPI    C3 4035  17.879  14.261  10.423 -0.0338 -0.0473 -0.1441
  253loPI   PO4 4036  18.256  14.222  10.054 -0.0205  0.0613 -0.2792
  253loPI   GL1 4037  18.483  14.313   9.614  0.3440 -0.3085  0.1650
  253loPI   GL2 4038  18.768  14.199   9.781  0.1803 -0.1712 -0.0367
  253loPI   C1A 4039  18.752  14.611   9.388 -0.1939  0.0024  0.3163
  253loPI   C2A 4040  19.044  14.471   9.139 -0.2926  0.3268  0.0353
  253loPI   C3A 4041  19.143  14.466   8.747  0.0357  0.2818  0.0655
  253loPI   C4A 4042  19.076  14.340   8.232  0.0360 -0.0745 -0.2275
  253loPI   C5A 4043  18.938  14.392   7.759 -0.4293 -0.0129  0.1909
  253loPI   C6A 4044  19.231  14.279   7.466  0.1226 -0.1178  0.0428
  253loPI   C1B 4045  18.975  14.022   9.432 -0.1024  0.0140  0.1839
  253loPI   C2B 4046  18.850  13.927   9.021  0.2406  0.3411  0.1350
  253loPI   C3B 4047  18.885  14.041   8.612  0.2468  0.3126  0.2076
  253loPI   C4B 4048  18.978  13.697   8.365  0.1875 -0.0388  0.2501
  254loPI    C1 4049   5.040  16.027  10.391 -0.1142 -0.1584  0.0583
  254loPI    C2 4050   4.797  16.213  10.649  0.0945  0.0679  0.0950
  254loPI    C3 4051   5.190  16.196  10.721  0.0958 -0.2727  0.0227
  254loPI   PO4 4052   5.054  16.118  10.112  0.0466  0.0459 -0.0634
  254loPI   GL1 4053   5.228  16.110   9.565 -0.2944  0.0373 -0.0001
  254loPI   GL2 4054   4.911  16.163   9.630 -0.1067  0.0904  0.4904
  254loPI   C1A 4055   5.319  16.026   9.202 -0.1018  0.0161 -0.2197
  254loPI   C2A 4056   5.386  15.909   8.715 -0.0389  0.2412  0.0131
  254loPI   C3A 4057   5.399  15.731   8.252 -0.0527 -0.0093  0.0882
  254loPI   C4A 4058   5.329  15.520   7.819  0.2297 -0.1750  0.2242
  254loPI   C5A 4059   5.188  15.225   7.533  0.0871 -0.0294 -0.1154
  254loPI   C6A 4060   5.201  14.824   7.565  0.0661  0.0537  0.1294
  254loPI   C1B 4061   4.870  16.174   9.160 -0.0875  0.0173 -0.1398
  254loPI   C2B 4062   4.966  16.212   8.736  0.1886  0.2251  0.1356
  254loPI   C3B 4063   5.080  16.250   8.362 -0.0486  0.1679 -0.0001
  254loPI   C4B 4064   4.883  16.341   7.906 -0.1471  0.0786 -0.3577
  255loPI    C1 4065   0.682   3.369   9.876 -0.0034 -0.0614  0.0762
  255loPI    C2 4066   0.707   3.756   9.974 -0.4600 -0.0569  0.1975
  255loPI    C3 4067   0.763   3.476  10.253 -0.2571 -0.0788  0.1370
  255loPI   PO4 4068   0.850   3.349   9.686  0.2486  0.1493 -0.1214
  255loPI   GL1 4069   1.203   3.375   9.333  0.1093 -0.0887 -0.1598
  255loPI   GL2 4070   1.248   3.702   9.472  0.0020 -0.1423  0.1016
  255loPI   C1A 4071   1.261   3.408   8.875  0.2208  0.3285 -0.1983
  255loPI   C2A 4072   1.167   3.367   8.373  0.0779 -0.2593  0.0986
  255loPI   C3A 4073   1.134   3.449   7.935  0.0306  0.0285  0.1975
  255loPI   C4A 4074   1.412   3.283   7.684  0.0621  0.0378 -0.0121
  255loPI   C5A 4075   1.561   3.098   7.259  0.1727  0.1353 -0.0328
  255loPI   C6A 4076   1.211   2.875   6.898  0.0547 -0.0020  0.0613
  255loPI   C1B 4077   0.925   3.733   9.103 -0.0134  0.1848  0.2660
  255loPI   C2B 4078   0.819   3.688   8.738 -0.3331 -0.0109 -0.0129
  255loPI   C3B 4079   0.802   3.690   8.273 -0.0623  0.0910  0.2630
  255loPI   C4B 4080   0.670   3.750   7.843 -0.0749 -0.0073  0.5362
  256loPI    C1 4081  15.531  12.398  10.511 -0.2696  0.1702  0.0369
  256loPI    C2 4082  15.268  12.169  10.707 -0.1364 -0.0845 -0.0771
  256loPI    C3 4083  15.141  12.424  10.426 -0.2646 -0.1819 -0.1083
  256loPI   PO4 4084  15.649  12.268  10.299  0.3260  0.2234  0.1340
  256loPI   GL1 4085  15.342  12.393   9.953 -0.2290 -0.2933  0.1921
  256loPI   GL2 4086  15.109  12.631   9.991  0.1710  0.0688  0.0767
  256loPI   C1A 4087  15.187  12.439   9.498  0.2672  0.1376  0.2626
  256loPI   C2A 4088  15.244  12.647   9.033  0.4905 -0.2292  0.1282
  256loPI   C3A 4089  15.376  13.014   8.776 -0.0874 -0.0222 -0.7910
  256loPI   C4A 4090  15.639  13.229   8.481  0.0503 -0.0963 -0.4318
  256loPI   C5A 4091  15.899  13.301   8.230  0.0487 -0.0251  0.2212
  256loPI   C6A 4092  16.009  13.270   7.848 -0.3092  0.1971  0.2815
  256loPI   C1B 4093  14.973  12.864   9.583  0.3750 -0.1176 -0.0969
  256loPI   C2B 4094  14.893  13.039   9.226 -0.0836 -0.1077  0.2812
  256loPI   C3B 4095  14.957  13.270   8.812  0.1665  0.0992 -0.1617
  256loPI   C4B 4096  15.039  13.222   8.420  0.1189  0.3322 -0.1819
  257loPI    C1 4097  14.933   0.432   9.718 -0.0352 -0.1213  0.2600
  257loPI    C2 4098  14.553   0.556   9.708  0.0464  0.1214  0.0664
  257loPI    C3 4099  14.803   0.701   9.984  0.0820  0.2134 -0.0138
  257loPI   PO4 4100  15.000   0.400   9.492  0.4081 -0.4659  0.0875
  257loPI   GL1 4101  14.867   0.505   9.173  0.0518 -0.2035 -0.0804
  257loPI   GL2 4102  14.565   0.523   9.104 -0.1944 -0.0139  0.2330
  257loPI   C1A 4103  14.945   0.477   8.722 -0.0183 -0.0222 -0.1858
  257loPI   C2A 4104  14.877   0.640   8.361  0.1908  0.3908  0.1015
  257loPI   C3A 4105  15.048   0.783   8.053  0.0309  0.1150 -0.1060
  257loPI   C4A 4106  14.911   0.604   7.599  0.1572  0.4699 -0.0925
  257loPI   C5A 4107  15.105   0.332   7.340  0.2791  0.2011 -0.1401
  257loPI   C6A 4108  15.033   0.147   6.951 -0.0718  0.1337  0.1175
  257loPI   C1B 4109  14.511   0.299   8.723  0.0268 -0.0402 -0.2876
  257loPI   C2B 4110  14.648   0.203   8.313  0.1210  0.0015  0.0956
  257loPI   C3B 4111  14.872  -0.149   8.254  0.0633  0.0440 -0.0719
  257loPI   C4B 4112  15.070  -0.504   7.987  0.0620 -0.4065  0.1594
  258loPI    C1 4113  11.601  18.904   9.845 -0.0025  0.2014  0.0207
  258loPI    C2 4114  11.705  19.060   9.491  0.1072 -0.1675 -0.1138
  258loPI    C3 4115  11.951  19.094   9.805  0.0538  0.0748 -0.0965
  258loPI   PO4 4116  11.366  18.914   9.804 -0.0220  0.1211 -0.1314
  258loPI   GL1 4117  11.241  18.936   9.440  0.0830 -0.0447  0.2085
  258loPI   GL2 4118  11.002  18.943   9.273 -0.0561  0.2267 -0.0859
  258loPI   C1A 4119  11.365  18.844   8.922  0.0042 -0.2841  0.2994
  258loPI   C2A 4120  11.688  18.796   8.539 -0.1426  0.2884 -0.0143
  258loPI   C3A 4121  11.944  18.629   8.285 -0.2175  0.3220  0.0321
  258loPI   C4A 4122  11.793  18.604   7.876 -0.1495 -0.1183  0.0406
  258loPI   C5A 4123  11.433  18.692   7.617 -0.1364  0.0050  0.1720
  258loPI   C6A 4124  10.969  18.582   7.590  0.0482 -0.0784  0.1571
  258loPI   C1B 4125  11.076  19.334   8.908 -0.0793  0.0896 -0.3600
  258loPI   C2B 4126  10.853  19.392   8.499  0.0333 -0.2664  0.0294
  258loPI   C3B 4127  10.432  19.471   8.287 -0.3173  0.1757 -0.4229
  258loPI   C4B 4128  10.255  19.544   8.020 -0.2164  0.1637 -0.0243
  259loPI    C1 4129   6.888   7.863  10.089 -0.3082  0.1364 -0.0048
  259loPI    C2 4130   6.674   7.553  10.224  0.0116 -0.0434  0.0998
  259loPI    C3 4131   6.983   7.691  10.437  0.0393  0.1746 -0.0776
  259loPI   PO4 4132   6.711   8.042   9.965 -0.1018 -0.1459 -0.2403
  259loPI   GL1 4133   6.658   8.237   9.552 -0.0605 -0.1785  0.2136
  259loPI   GL2 4134   6.564   8.005   9.423  0.4729 -0.0668 -0.1105
  259loPI   C1A 4135   6.882   8.147   9.102  0.0381  0.0087  0.0249
  259loPI   C2A 4136   6.960   8.228   8.629  0.0856 -0.2242  0.3406
  259loPI   C3A 4137   7.184   7.966   8.192  0.4074 -0.0213 -0.1441
  259loPI   C4A 4138   7.114   7.874   7.802 -0.1676  0.0616 -0.0797
  259loPI   C5A 4139   6.842   7.710   7.495 -0.1378 -0.0287  0.0716
  259loPI   C6A 4140   6.510   7.792   7.052 -0.1167  0.0841  0.1755
  259loPI   C1B 4141   6.506   7.884   8.988  0.2375  0.1024 -0.0958
  259loPI   C2B 4142   6.525   7.863   8.455  0.0271  0.2215  0.0188
  259loPI   C3B 4143   6.717   8.069   8.125  0.1040  0.0797 -0.0140
  259loPI   C4B 4144   6.723   8.210   7.607  0.2646  0.1039  0.1204
  260loPI    C1 4145   4.578   9.319   9.715 -0.1750  0.1523  0.1372
  260loPI    C2 4146   4.790   9.588   9.922  0.2737 -0.0057 -0.1024
  260loPI    C3 4147   4.500   9.380  10.102  0.2356  0.3023  0.2018
  260loPI   PO4 4148   4.734   9.184   9.598 -0.1744 -0.1731  0.0347
  260loPI   GL1 4149   4.631   9.058   9.245 -0.0624  0.1195 -0.1616
  260loPI   GL2 4150   4.620   9.415   9.093  0.0493 -0.1340 -0.1504
  260loPI   C1A 4151   4.610   8.976   8.768 -0.4120  0.0717 -0.1719
  260loPI   C2A 4152   4.674   9.221   8.402  0.1476 -0.0484  0.0539
  260loPI   C3A 4153   4.782   9.346   8.027 -0.0435 -0.0264 -0.0574
  260loPI   C4A 4154   5.003   9.247   7.773 -0.0695 -0.0756  0.1363
  260loPI   C5A 4155   5.112   9.377   7.380 -0.1000  0.0730  0.0347
  260loPI   C6A 4156   5.313   9.514   7.080  0.0929  0.2174 -0.0968
  260loPI   C1B 4157   4.300   9.359   8.879 -0.0616 -0.0961 -0.0810
  260loPI   C2B 4158   4.150   9.468   8.580  0.0639  0.1553  0.0485
  260loPI   C3B 4159   4.263   9.558   8.153 -0.0496 -0.3360  0.0151
  260loPI   C4B 4160   4.486   9.753   7.754 -0.1750  0.1730  0.0983
  261loPI    C1 4161  18.315   9.455   9.665 -0.1278  0.2329  0.2797
  261loPI    C2 4162  18.023   9.187   9.612 -0.1425  0.3243 -0.1379
  261loPI    C3 4163  17.999   9.454   9.910 -0.1220 -0.1378  0.2908
  261loPI   PO4 4164  18.398   9.522   9.385 -0.4012 -0.1572  0.1925
  261loPI   GL1 4165  18.391   9.298   9.062 -0.3972 -0.0944  0.3064
  261loPI   GL2 4166  18.164   9.152   9.108  0.4950  0.3916 -0.0256
  261loPI   C1A 4167  18.428   9.568   8.662  0.1211 -0.0756 -0.1261
  261loPI   C2A 4168  18.635   9.906   8.325  0.2217 -0.0827 -0.1187
  261loPI   C3A 4169  18.598  10.064   7.961 -0.0771 -0.1923  0.1988
  261loPI   C4A 4170  18.462   9.959   7.516  0.0598  0.1168  0.1967
  261loPI   C5A 4171  18.398   9.556   7.307 -0.0054  0.0362  0.0386
  261loPI   C6A 4172  17.987   9.232   7.242 -0.1633  0.1565  0.0117
  261loPI   C1B 4173  18.066   9.072   8.742 -0.1623 -0.3075  0.0410
  261loPI   C2B 4174  17.817   9.178   8.361 -0.0429  0.2710  0.0677
  261loPI   C3B 4175  17.820   9.394   7.885 -0.2408 -0.1899 -0.3041
  261loPI   C4B 4176  17.997   9.684   7.561 -0.0193 -0.2344  0.0444
  262loPI    C1 4177  16.787   8.479   9.753 -0.1568  0.0145  0.0841
  262loPI    C2 4178  16.973   8.624  10.076  0.1195 -0.1299 -0.0080
  262loPI    C3 4179  16.742   8.299  10.108 -0.0641  0.0086  0.0929
  262loPI   PO4 4180  16.882   8.461   9.570  0.0659  0.0848 -0.2146
  262loPI   GL1 4181  17.067   8.373   9.231  0.2130 -0.1863  0.0734
  262loPI   GL2 4182  16.868   8.611   9.055 -0.0840  0.1036 -0.2547
  262loPI   C1A 4183  16.854   8.109   8.952 -0.3956  0.1172  0.0329
  262loPI   C2A 4184  16.449   8.016   8.772  0.0223 -0.2183  0.1890
  262loPI   C3A 4185  16.311   7.939   8.489  0.1152 -0.0018 -0.0462
  262loPI   C4A 4186  16.393   7.552   8.340 -0.1914  0.3720 -0.2481
  262loPI   C5A 4187  16.304   7.352   7.889 -0.1595  0.3420  0.2770
  262loPI   C6A 4188  16.063   7.099   7.627 -0.0403 -0.0097  0.1380
  262loPI   C1B 4189  16.692   8.767   8.768  0.1737  0.1569  0.3761
  262loPI   C2B 4190  16.757   9.116   8.581  0.2381  0.1421  0.3139
  262loPI   C3B 4191  16.917   9.448   8.317  0.0109  0.3793 -0.0728
  262loPI   C4B 4192  16.842   9.571   8.009  0.0276 -0.2036 -0.1661
  263loPI    C1 4193   7.685   4.483   9.867 -0.0405  0.0417 -0.1458
  263loPI    C2 4194   7.372   4.726   9.810 -0.2361 -0.2178 -0.1962
  263loPI    C3 4195   7.364   4.455  10.104 -0.0008 -0.1356 -0.1119
  263loPI   PO4 4196   7.801   4.472   9.672  0.0580  0.6186 -0.0584
  263loPI   GL1 4197   7.679   4.584   9.279 -0.0525  0.0613  0.1163
  263loPI   GL2 4198   7.458   4.775   9.297 -0.2745  0.0741 -0.1167
  263loPI   C1A 4199   7.797   4.463   8.846 -0.1959 -0.1251  0.3638
  263loPI   C2A 4200   7.690   4.420   8.456 -0.0149 -0.3298  0.0685
  263loPI   C3A 4201   7.784   4.386   7.999  0.0769  0.3599 -0.0505
  263loPI   C4A 4202   7.834   4.194   7.515 -0.1510 -0.0406 -0.0533
  263loPI   C5A 4203   7.639   3.951   7.273  0.0521  0.0225  0.1926
  263loPI   C6A 4204   7.677   3.603   6.924 -0.3047 -0.0817 -0.1764
  263loPI   C1B 4205   7.410   4.824   8.815 -0.0772  0.1151  0.2039
  263loPI   C2B 4206   7.514   5.030   8.433 -0.2583 -0.2001 -0.2070
  263loPI   C3B 4207   7.327   5.228   8.092 -0.0466 -0.3985 -0.2006
  263loPI   C4B 4208   7.072   5.392   7.751  0.1772  0.0768 -0.0214
  264loPI    C1 4209  13.181  16.422  10.019  0.2117 -0.0258  0.0631
  264loPI    C2 4210  13.457  16.705   9.954 -0.0701  0.2483  0.0367
  264loPI    C3 4211  13.089  16.745   9.802 -0.0332 -0.2755 -0.2136
  264loPI   PO4 4212  13.233  16.120   9.910 -0.3670 -0.2714  0.0649
  264loPI   GL1 4213  13.408  15.875   9.606 -0.1370 -0.0087  0.0386
  264loPI   GL2 4214  13.606  15.726   9.756  0.2640 -0.3928 -0.0490
  264loPI   C1A 4215  13.324  16.010   9.192 -0.2763  0.0118  0.0868
  264loPI   C2A 4216  13.357  16.089   8.737 -0.1627 -0.1042 -0.3064
  264loPI   C3A 4217  13.258  16.250   8.301  0.1039 -0.2455 -0.3380
  264loPI   C4A 4218  13.178  16.199   7.734 -0.0500  0.1914  0.2198
  264loPI   C5A 4219  13.023  16.426   7.441 -0.1578 -0.0442 -0.1522
  264loPI   C6A 4220  12.782  16.418   7.013 -0.2871  0.0166 -0.3637
  264loPI   C1B 4221  13.594  15.550   9.316 -0.1224  0.1651 -0.1411
  264loPI   C2B 4222  13.733  15.423   8.949 -0.0358  0.3246  0.3076
  264loPI   C3B 4223  13.865  15.375   8.523  0.1699 -0.0365  0.4024
  264loPI   C4B 4224  13.869  15.292   8.158  0.0872  0.1251  0.0646
  265loPI    C1 4225  10.401  10.732   9.871 -0.1201  0.1950 -0.1296
  265loPI    C2 4226  10.225  10.754  10.229 -0.0396  0.0938 -0.0832
  265loPI    C3 4227  10.548  10.977  10.150  0.0938 -0.0690 -0.0051
  265loPI   PO4 4228  10.359  10.467   9.780 -0.1745 -0.0487 -0.1479
  265loPI   GL1 4229  10.339  10.421   9.324 -0.1916  0.0436 -0.1770
  265loPI   GL2 4230  10.350  10.178   9.250 -0.4757  0.2625  0.0717
  265loPI   C1A 4231  10.284  10.493   8.851  0.1136  0.2612 -0.0927
  265loPI   C2A 4232  10.339  10.254   8.509  0.2646 -0.1827  0.1462
  265loPI   C3A 4233  10.255  10.298   8.034  0.2145 -0.1495  0.3176
  265loPI   C4A 4234   9.763  10.314   7.762 -0.3747 -0.0390  0.1815
  265loPI   C5A 4235   9.448  10.580   7.666  0.2305  0.1474 -0.2024
  265loPI   C6A 4236   9.211  10.812   7.656 -0.0315 -0.1633 -0.1279
  265loPI   C1B 4237  10.706  10.214   8.946  0.0423 -0.2806 -0.2186
  265loPI   C2B 4238  10.885  10.122   8.535 -0.4309 -0.2773  0.4511
  265loPI   C3B 4239  10.800  10.239   8.120 -0.1126 -0.1197 -0.0893
  265loPI   C4B 4240  10.724  10.285   7.742  0.0592  0.2035 -0.2087
  266loPI    C1 4241   8.171  18.286   9.965  0.1282  0.0099  0.0381
  266loPI    C2 4242   8.559  18.255   9.874  0.1051 -0.0982 -0.0264
  266loPI    C3 4243   8.440  18.221  10.254  0.1537 -0.1119 -0.0123
  266loPI   PO4 4244   7.940  18.290   9.629  0.0371 -0.1577  0.0687
  266loPI   GL1 4245   7.745  18.171   9.245  0.1204  0.0344 -0.2804
  266loPI   GL2 4246   7.539  17.889   9.125 -0.2126 -0.2647 -0.1235
  266loPI   C1A 4247   7.853  18.183   8.793  0.2737 -0.2305 -0.0444
  266loPI   C2A 4248   7.781  18.318   8.356 -0.0080  0.1649  0.0960
  266loPI   C3A 4249   7.550  18.310   7.996  0.1274 -0.2808  0.1941
  266loPI   C4A 4250   7.748  18.062   7.703 -0.1314 -0.0669  0.1410
  266loPI   C5A 4251   7.828  17.880   7.377 -0.0668  0.3219 -0.1758
  266loPI   C6A 4252   7.634  17.485   7.168 -0.0789 -0.4058 -0.1661
  266loPI   C1B 4253   7.434  17.942   8.768 -0.2636 -0.1429  0.1139
  266loPI   C2B 4254   7.296  18.067   8.389  0.0523 -0.0722  0.1682
  266loPI   C3B 4255   7.337  17.867   8.002 -0.1554 -0.1072  0.4491
  266loPI   C4B 4256   7.295  17.649   7.587 -0.0363 -0.2464  0.1057
  267loPI    C1 4257   5.791   6.713   9.669 -0.2191  0.0596 -0.0178
  267loPI    C2 4258   6.002   6.426   9.849 -0.2759  0.0021 -0.0426
  267loPI    C3 4259   6.189   6.744   9.695 -0.2181  0.0053  0.0332
  267loPI   PO4 4260   5.617   6.536   9.520 -0.0719  0.1298 -0.2422
  267loPI   GL1 4261   5.654   6.491   9.171  0.1945  0.1021 -0.0686
  267loPI   GL2 4262   5.477   6.836   9.102 -0.0629  0.1402  0.0062
  267loPI   C1A 4263   5.876   6.526   8.782  0.0566 -0.1379 -0.1230
  267loPI   C2A 4264   5.853   6.571   8.350 -0.1213  0.1280  0.0538
  267loPI   C3A 4265   6.116   6.501   7.999  0.1388  0.2394  0.3947
  267loPI   C4A 4266   6.405   6.574   7.727  0.1601  0.3164  0.0080
  267loPI   C5A 4267   6.550   6.939   7.543 -0.1022  0.1120 -0.0365
  267loPI   C6A 4268   6.871   7.161   7.716 -0.0647  0.2167 -0.1325
  267loPI   C1B 4269   5.449   6.849   8.719 -0.0297 -0.0598 -0.0968
  267loPI   C2B 4270   5.528   6.989   8.291 -0.2057 -0.0752  0.1948
  267loPI   C3B 4271   5.778   6.868   7.932  0.2371  0.0122 -0.2477
  267loPI   C4B 4272   5.509   6.973   7.478  0.0172 -0.1037 -0.0620
  268loPI    C1 4273   6.825   1.818  10.070 -0.0070 -0.0223  0.3581
  268loPI    C2 4274   6.498   2.037  10.137 -0.0247  0.0802 -0.0394
  268loPI    C3 4275   6.467   1.641  10.091 -0.0682  0.0663  0.1069
  268loPI   PO4 4276   6.931   1.936   9.869 -0.0365  0.1848 -0.1726
  268loPI   GL1 4277   7.128   1.756   9.523 -0.0851  0.2430 -0.0018
  268loPI   GL2 4278   6.856   1.799   9.335  0.2209  0.3627  0.2277
  268loPI   C1A 4279   7.352   1.747   9.047  0.3030 -0.0047 -0.2971
  268loPI   C2A 4280   7.545   1.856   8.662  0.2688  0.0175 -0.0744
  268loPI   C3A 4281   7.780   1.816   8.176 -0.0310 -0.0639  0.4099
  268loPI   C4A 4282   7.832   1.933   7.767 -0.1492 -0.4266  0.1858
  268loPI   C5A 4283   7.853   2.210   7.420 -0.4184  0.0544 -0.0778
  268loPI   C6A 4284   7.793   2.514   7.130  0.0777 -0.0929 -0.1482
  268loPI   C1B 4285   6.822   1.583   8.870  0.0255  0.1057  0.0075
  268loPI   C2B 4286   6.652   1.909   8.533  0.5087  0.2931  0.1214
  268loPI   C3B 4287   6.428   2.093   8.233  0.1497 -0.2797 -0.0685
  268loPI   C4B 4288   6.418   2.204   7.830  0.2088  0.2379 -0.3349
  269loPI    C1 4289   6.755   9.012  10.291  0.1272  0.0145 -0.0732
  269loPI    C2 4290   7.134   9.121  10.355  0.0913  0.1458 -0.0808
  269loPI    C3 4291   6.856   9.193  10.633  0.0837 -0.0106 -0.0470
  269loPI   PO4 4292   6.695   9.147  10.008 -0.0263 -0.3107  0.2858
  269loPI   GL1 4293   6.723   9.313   9.572  0.2962  0.1632 -0.0163
  269loPI   GL2 4294   6.792   9.113   9.390 -0.2310 -0.5894 -0.0479
  269loPI   C1A 4295   6.792   9.679   9.155  0.1960 -0.2022  0.1085
  269loPI   C2A 4296   6.938   9.825   8.691 -0.0457 -0.1250  0.0950
  269loPI   C3A 4297   7.178   9.846   8.333  0.1561  0.0308 -0.1046
  269loPI   C4A 4298   7.248   9.650   7.914  0.3236  0.1809 -0.2929
  269loPI   C5A 4299   7.127   9.675   7.546 -0.0172 -0.1973 -0.1960
  269loPI   C6A 4300   6.995   9.960   7.232 -0.2220 -0.1776 -0.2930
  269loPI   C1B 4301   6.919   9.217   8.998 -0.0744 -0.1516  0.1353
  269loPI   C2B 4302   7.111   9.341   8.625  0.0433  0.1568 -0.0261
  269loPI   C3B 4303   7.181   9.252   8.236 -0.2164  0.1534  0.0420
  269loPI   C4B 4304   7.195   9.116   7.819 -0.1146 -0.1687  0.1531
  270loPI    C1 4305   2.795  18.426  10.429 -0.0884  0.0633  0.0266
  270loPI    C2 4306   2.823  18.259  10.792 -0.2633  0.1199  0.0670
  270loPI    C3 4307   2.947  18.635  10.735  0.2861 -0.0720 -0.0617
  270loPI   PO4 4308   2.499  18.452  10.257 -0.1497  0.2156 -0.0454
  270loPI   GL1 4309   2.470  18.248   9.823  0.2447 -0.1452  0.0151
  270loPI   GL2 4310   2.160  18.358   9.765 -0.0348 -0.1316 -0.0651
  270loPI   C1A 4311   2.393  18.100   9.379 -0.0995  0.0826  0.2810
  270loPI   C2A 4312   2.313  18.027   8.973 -0.1758  0.0781  0.2352
  270loPI   C3A 4313   2.428  18.004   8.480  0.0301  0.1502  0.1588
  270loPI   C4A 4314   2.259  18.131   8.169 -0.2021  0.1158  0.0889
  270loPI   C5A 4315   2.266  18.041   7.802  0.1790  0.2196 -0.2515
  270loPI   C6A 4316   2.284  18.107   7.411  0.3968  0.1495 -0.2440
  270loPI   C1B 4317   1.889  18.279   9.473 -0.2334  0.0665 -0.1869
  270loPI   C2B 4318   1.773  18.347   9.029 -0.0461  0.0939 -0.0765
  270loPI   C3B 4319   1.370  18.600   8.985 -0.0335  0.4195 -0.2973
  270loPI   C4B 4320   0.945  18.386   9.067 -0.0832  0.1167  0.0110
  271loPI    C1 4321   8.793  11.242  10.515 -0.2453  0.0085  0.0645
  271loPI    C2 4322   9.034  11.417  10.781 -0.0215  0.0178 -0.1405
  271loPI    C3 4323   8.701  11.232  10.904  0.1000 -0.0147  0.1486
  271loPI   PO4 4324   8.773  11.400  10.355 -0.0303 -0.1138 -0.1272
  271loPI   GL1 4325   8.922  11.522   9.951  0.0236  0.1479 -0.0189
  271loPI   GL2 4326   9.035  11.885   9.976 -0.0812 -0.3828 -0.4585
  271loPI   C1A 4327   9.046  11.374   9.590  0.0045 -0.1433 -0.3167
  271loPI   C2A 4328   9.144  11.287   9.181  0.2140  0.2405 -0.0021
  271loPI   C3A 4329   9.212  11.166   8.789  0.0836 -0.1337 -0.1973
  271loPI   C4A 4330   9.073  11.292   8.487  0.0884  0.1795 -0.3160
  271loPI   C5A 4331   9.072  11.314   8.034 -0.0324  0.0664  0.2510
  271loPI   C6A 4332   9.422  11.280   7.747 -0.1498  0.0356 -0.0070
  271loPI   C1B 4333   9.002  12.008   9.533 -0.0759  0.0244  0.0163
  271loPI   C2B 4334   9.016  12.132   9.167  0.2958  0.0411  0.0858
  271loPI   C3B 4335   9.054  12.181   8.807 -0.0809 -0.0871 -0.0884
  271loPI   C4B 4336   9.028  11.990   8.338 -0.0722  0.1522  0.1092
  272loPI    C1 4337   1.881   3.319  10.490 -0.4498  0.0353  0.0183
  272loPI    C2 4338   1.673   3.355  10.830 -0.0525  0.1399  0.2564
  272loPI    C3 4339   1.936   3.638  10.725  0.0057 -0.0111 -0.0162
  272loPI   PO4 4340   1.828   2.992  10.495 -0.0397 -0.3874 -0.1571
  272loPI   GL1 4341   1.970   2.763  10.147  0.2403 -0.1236  0.4291
  272loPI   GL2 4342   2.229   2.745  10.301 -0.0706 -0.0270 -0.0737
  272loPI   C1A 4343   2.094   2.762   9.633 -0.1419 -0.2345  0.0241
  272loPI   C2A 4344   1.946   2.752   9.317  0.0829 -0.0755  0.1977
  272loPI   C3A 4345   2.114   2.676   8.871  0.1748  0.0457 -0.4919
  272loPI   C4A 4346   2.185   2.758   8.528  0.0556 -0.0184 -0.3361
  272loPI   C5A 4347   2.427   2.536   8.183  0.0501 -0.0588  0.1433
  272loPI   C6A 4348   2.834   2.326   8.269 -0.0664  0.2469 -0.0913
  272loPI   C1B 4349   2.323   2.450   9.964 -0.2836  0.0761 -0.0131
  272loPI   C2B 4350   2.366   2.342   9.533 -0.1239  0.1748 -0.1631
  272loPI   C3B 4351   2.613   2.463   9.146  0.1176  0.2580 -0.0388
  272loPI   C4B 4352   2.558   2.465   8.688  0.1453  0.2638  0.1334
  273loPI    C1 4353   6.562  16.602  10.254  0.1205 -0.4329  0.1323
  273loPI    C2 4354   6.953  16.676  10.295 -0.0247  0.3353  0.2879
  273loPI    C3 4355   6.719  16.652  10.619 -0.0896 -0.3090  0.2072
  273loPI   PO4 4356   6.549  16.525   9.955  0.1593  0.1132  0.1117
  273loPI   GL1 4357   6.661  16.554   9.474 -0.0722 -0.0249  0.0199
  273loPI   GL2 4358   6.645  16.239   9.386  0.1208  0.0259  0.0786
  273loPI   C1A 4359   6.771  16.581   9.021  0.1206  0.0708  0.2263
  273loPI   C2A 4360   6.866  16.486   8.543 -0.0665 -0.0202  0.0561
  273loPI   C3A 4361   6.927  16.268   8.223 -0.0129 -0.0479  0.2741
  273loPI   C4A 4362   7.087  16.301   7.812  0.2714 -0.3935  0.2434
  273loPI   C5A 4363   7.407  16.356   7.563  0.0164  0.0327 -0.2144
  273loPI   C6A 4364   7.543  16.437   7.191 -0.0189 -0.1104 -0.0068
  273loPI   C1B 4365   6.400  16.317   9.062 -0.1049  0.2722  0.2876
  273loPI   C2B 4366   6.194  16.336   8.614  0.1300 -0.0482  0.2306
  273loPI   C3B 4367   6.002  16.581   8.277 -0.0175  0.0359  0.0232
  273loPI   C4B 4368   5.670  16.601   7.958  0.1374 -0.1987 -0.1528
  274loPI    C1 4369  16.297  12.222  10.643  0.0426  0.0743 -0.2302
  274loPI    C2 4370  16.016  12.480  10.763  0.1272 -0.0122  0.1686
  274loPI    C3 4371  15.940  12.087  10.764  0.0573 -0.0055 -0.2749
  274loPI   PO4 4372  16.367  12.322  10.394 -0.1889  0.4451 -0.1422
  274loPI   GL1 4373  16.164  12.331   9.983  0.0321 -0.1629 -0.2035
  274loPI   GL2 4374  16.254  12.502   9.778  0.0266 -0.2178  0.3476
  274loPI   C1A 4375  15.794  12.518   9.722 -0.2733 -0.0657 -0.1206
  274loPI   C2A 4376  15.646  12.553   9.308  0.0342 -0.2150  0.2975
  274loPI   C3A 4377  15.795  12.693   8.858 -0.0170 -0.1462 -0.1750
  274loPI   C4A 4378  15.788  12.748   8.412  0.2549  0.0999  0.0321
  274loPI   C5A 4379  15.737  12.836   7.942 -0.0146 -0.3523 -0.0305
  274loPI   C6A 4380  15.554  13.124   7.648 -0.0780  0.1988 -0.1452
  274loPI   C1B 4381  16.050  12.227   9.427  0.0742  0.2919  0.0265
  274loPI   C2B 4382  16.099  12.353   8.986 -0.0881 -0.0788 -0.0076
  274loPI   C3B 4383  16.173  12.340   8.517  0.0516  0.2427 -0.1716
  274loPI   C4B 4384  15.921  12.292   8.172  0.2271 -0.2454 -0.2130
  275loPI    C1 4385  12.357   6.215  10.183  0.1759 -0.0711 -0.0825
  275loPI    C2 4386  12.228   6.014  10.504  0.1150  0.1827  0.0548
  275loPI    C3 4387  12.192   6.412  10.489 -0.4088  0.1298 -0.5066
  275loPI   PO4 4388  12.283   6.092   9.972 -0.0906 -0.1567  0.0568
  275loPI   GL1 4389  12.082   6.319   9.633  0.0532  0.1292 -0.0961
  275loPI   GL2 4390  11.939   5.972   9.585 -0.0859  0.0249 -0.2541
  275loPI   C1A 4391  12.186   6.592   9.256 -0.1788 -0.3917 -0.0051
  275loPI   C2A 4392  12.171   7.006   8.892 -0.3625 -0.0636  0.4470
  275loPI   C3A 4393  12.313   7.184   8.534 -0.0149  0.0445  0.0401
  275loPI   C4A 4394  12.259   7.158   8.146 -0.4292  0.1540  0.1531
  275loPI   C5A 4395  12.362   7.378   7.627 -0.0220 -0.0426  0.1766
  275loPI   C6A 4396  12.793   7.454   7.397 -0.0436  0.0377  0.1171
  275loPI   C1B 4397  12.042   5.954   9.227  0.0853 -0.1086 -0.1900
  275loPI   C2B 4398  12.123   6.116   8.906 -0.3513  0.1433 -0.0498
  275loPI   C3B 4399  11.987   6.120   8.489 -0.3306 -0.0336 -0.1041
  275loPI   C4B 4400  11.985   5.834   8.056  0.3383 -0.0770  0.1410
  276loPI    C1 4401  16.735   4.900  10.000 -0.1249 -0.1881 -0.2366
  276loPI    C2 4402  16.520   4.863  10.336 -0.0086 -0.2182 -0.1653
  276loPI    C3 4403  16.374   5.071  10.027 -0.0754 -0.1091 -0.0608
  276loPI   PO4 4404  16.820   4.643   9.917  0.0610 -0.1204  0.1341
  276loPI   GL1 4405  16.956   4.474   9.487  0.0193  0.2288 -0.1435
  276loPI   GL2 4406  16.937   4.076   9.407 -0.0957 -0.1482 -0.3212
  276loPI   C1A 4407  17.279   4.481   9.210 -0.2332  0.2770 -0.3568
  276loPI   C2A 4408  17.288   4.519   8.652 -0.0423  0.3113  0.1285
  276loPI   C3A 4409  17.425   4.401   8.327  0.1259 -0.0226 -0.3071
  276loPI   C4A 4410  17.453   4.256   7.966  0.0502  0.1634 -0.3204
  276loPI   C5A 4411  17.484   4.302   7.571  0.0565  0.3026  0.0955
  276loPI   C6A 4412  17.604   4.415   7.169  0.1276 -0.3576 -0.0518
  276loPI   C1B 4413  16.903   4.289   8.942 -0.1221  0.0563 -0.3572
  276loPI   C2B 4414  16.920   4.294   8.495  0.0367  0.1458  0.3358
  276loPI   C3B 4415  16.874   4.316   8.070  0.0590 -0.3928  0.1676
  276loPI   C4B 4416  16.993   4.189   7.661 -0.1028 -0.2338 -0.2114
  277loPI    C1 4417   1.837   4.586   9.844  0.3027 -0.2250  0.0604
  277loPI    C2 4418   1.690   4.539  10.213  0.1996  0.0779  0.0605
  277loPI    C3 4419   1.609   4.269   9.929 -0.0356  0.0391  0.1622
  277loPI   PO4 4420   2.076   4.583   9.860 -0.0599  0.3082  0.0696
  277loPI   GL1 4421   2.296   4.632   9.511  0.0193 -0.0552  0.0616
  277loPI   GL2 4422   2.108   4.367   9.318  0.5094 -0.1997  0.0683
  277loPI   C1A 4423   2.618   4.722   9.216 -0.2342  0.1430 -0.3194
  277loPI   C2A 4424   3.059   4.824   9.007  0.1511  0.0434 -0.0062
  277loPI   C3A 4425   3.318   4.783   8.747 -0.0637  0.0053  0.3396
  277loPI   C4A 4426   3.489   4.627   8.392  0.0451  0.2228 -0.5487
  277loPI   C5A 4427   3.448   4.653   7.932 -0.1719 -0.0981 -0.0097
  277loPI   C6A 4428   3.400   4.434   7.541 -0.1078 -0.1397  0.3042
  277loPI   C1B 4429   2.269   4.446   8.885  0.0021  0.1123  0.0254
  277loPI   C2B 4430   2.240   4.421   8.498 -0.2564 -0.0799  0.0950
  277loPI   C3B 4431   2.478   4.794   8.209  0.0783 -0.3054 -0.0359
  277loPI   C4B 4432   2.339   4.787   7.749  0.2040 -0.0204 -0.0364
  278loPI    C1 4433  10.943  11.149   9.973 -0.0113 -0.1622  0.1189
  278loPI    C2 4434  11.283  11.360   9.961 -0.0846 -0.0465  0.0602
  278loPI    C3 4435  11.048  11.378  10.284 -0.3087  0.3084 -0.1171
  278loPI   PO4 4436  10.887  11.117   9.782 -0.0342  0.0721  0.1713
  278loPI   GL1 4437  10.704  10.817   9.466 -0.1879  0.1983  0.1181
  278loPI   GL2 4438  10.887  10.527   9.416 -0.0401 -0.3682 -0.0992
  278loPI   C1A 4439  10.538  10.899   8.981  0.3149  0.2940 -0.1807
  278loPI   C2A 4440  10.533  11.104   8.597 -0.1875  0.0173  0.0782
  278loPI   C3A 4441  10.727  11.120   8.157 -0.1518  0.3180  0.2855
  278loPI   C4A 4442  10.747  11.220   7.798  0.2813  0.2958 -0.2108
  278loPI   C5A 4443  10.510  11.410   7.497  0.1789 -0.0406 -0.0071
  278loPI   C6A 4444  10.271  11.563   7.227 -0.1639  0.1579 -0.0331
  278loPI   C1B 4445  11.024  10.617   8.926 -0.1926 -0.0878  0.3079
  278loPI   C2B 4446  10.785  10.621   8.597 -0.0124 -0.5242  0.1665
  278loPI   C3B 4447  10.474  10.716   8.154  0.1187  0.2658 -0.0255
  278loPI   C4B 4448  10.535  10.767   7.675 -0.3348 -0.1872 -0.1458
  279loPI    C1 4449  10.918  18.643   9.704  0.1286  0.2081 -0.2220
  279loPI    C2 4450  11.185  18.503   9.967 -0.0074  0.5373  0.1013
  279loPI    C3 4451  11.251  18.464   9.574 -0.0206 -0.3808  0.1692
  279loPI   PO4 4452  10.720  18.695   9.863  0.0743 -0.2077 -0.1815
  279loPI   GL1 4453  10.406  18.735   9.674 -0.0937 -0.0393 -0.1429
  279loPI   GL2 4454  10.074  18.632   9.498 -0.2922  0.1910 -0.3043
  279loPI   C1A 4455  10.491  18.684   9.238 -0.0203 -0.0906  0.1382
  279loPI   C2A 4456  10.411  18.549   8.889 -0.1450  0.1267  0.0698
  279loPI   C3A 4457  10.247  18.291   8.624 -0.2430  0.2247 -0.1066
  279loPI   C4A 4458  10.198  18.139   8.253  0.0651  0.0988  0.4281
  279loPI   C5A 4459  10.003  17.827   7.935  0.4730 -0.1173 -0.1116
  279loPI   C6A 4460   9.924  17.543   7.588  0.0044  0.3326  0.0769
  279loPI   C1B 4461   9.847  18.584   9.075 -0.4064  0.0313  0.0247
  279loPI   C2B 4462   9.734  18.376   8.683 -0.0665 -0.2157 -0.1612
  279loPI   C3B 4463   9.558  18.230   8.280 -0.1471  0.3268  0.0370
  279loPI   C4B 4464   9.432  17.940   7.867 -0.0388 -0.3485 -0.2044
  280loPI    C1 4465  17.587   4.056   9.952 -0.0378 -0.1566  0.1570
  280loPI    C2 4466  17.312   3.988  10.234  0.0254  0.0343  0.2665
  280loPI    C3 4467  17.622   4.228  10.312  0.0394  0.0950  0.0314
  280loPI   PO4 4468  17.406   3.989   9.754  0.0612 -0.2692 -0.1738
  280loPI   GL1 4469  17.514   4.180   9.435  0.1053  0.1167  0.1230
  280loPI   GL2 4470  17.707   4.401   9.503  0.0301 -0.1352 -0.2424
  280loPI   C1A 4471  17.580   4.103   8.968  0.3923  0.1032  0.0830
  280loPI   C2A 4472  17.792   4.149   8.588  0.0221  0.1366  0.1254
  280loPI   C3A 4473  17.908   4.355   8.299  0.1669  0.0134 -0.0376
  280loPI   C4A 4474  17.809   4.622   7.953  0.1583  0.0304  0.1620
  280loPI   C5A 4475  17.608   4.843   7.640 -0.2483  0.0329  0.0264
  280loPI   C6A 4476  17.278   4.984   7.408 -0.0778  0.0609  0.0016
  280loPI   C1B 4477  18.006   4.308   9.235 -0.0107 -0.1424 -0.0656
  280loPI   C2B 4478  18.144   3.972   9.034 -0.2271 -0.1703 -0.0067
  280loPI   C3B 4479  18.029   3.696   8.660  0.0856  0.1332 -0.0260
  280loPI   C4B 4480  18.036   3.612   8.241 -0.0483  0.1121 -0.2947
  281loPI    C1 4481   0.871  17.425  10.335  0.0018  0.2189 -0.1739
  281loPI    C2 4482   1.172  17.501  10.587 -0.0567  0.0894 -0.0637
  281loPI    C3 4483   0.793  17.540  10.710 -0.0861 -0.0744 -0.0994
  281loPI   PO4 4484   0.877  17.565  10.116  0.1561 -0.1328 -0.1647
  281loPI   GL1 4485   0.879  17.486   9.673  0.2040  0.1180  0.1968
  281loPI   GL2 4486   0.879  17.280   9.454 -0.0427  0.0905 -0.1174
  281loPI   C1A 4487   1.324  17.681   9.529 -0.1316 -0.1488 -0.2539
  281loPI   C2A 4488   1.482  17.497   9.029  0.2230 -0.0310  0.1000
  281loPI   C3A 4489   1.454  17.600   8.633  0.2917  0.2045  0.2529
  281loPI   C4A 4490   1.442  17.632   8.207  0.0509  0.1518  0.2552
  281loPI   C5A 4491   1.198  17.365   7.936  0.0886 -0.0805 -0.0188
  281loPI   C6A 4492   0.939  16.979   7.731  0.0980 -0.0239 -0.2391
  281loPI   C1B 4493   1.007  17.163   8.978 -0.2226  0.2727 -0.0370
  281loPI   C2B 4494   0.983  17.288   8.455 -0.2845 -0.0349  0.1102
  281loPI   C3B 4495   0.677  17.333   8.147  0.1358  0.0576 -0.1337
  281loPI   C4B 4496   0.755  17.463   7.726 -0.1734  0.0881  0.0057
  282loPI    C1 4497   4.134  13.015   9.536  0.0816  0.0833 -0.0349
  282loPI    C2 4498   3.767  13.115   9.662 -0.0293 -0.1425 -0.1731
  282loPI    C3 4499   3.990  12.861   9.876  0.0897  0.0747 -0.0353
  282loPI   PO4 4500   4.061  13.016   9.247  0.2794 -0.1767  0.0617
  282loPI   GL1 4501   4.076  13.036   8.825  0.0216  0.1463 -0.1559
  282loPI   GL2 4502   3.944  13.298   8.754 -0.0899  0.2132  0.1433
  282loPI   C1A 4503   4.273  12.879   8.448  0.1966 -0.1687  0.1327
  282loPI   C2A 4504   4.173  12.727   8.106 -0.1109 -0.4796  0.0536
  282loPI   C3A 4505   4.387  12.890   7.746 -0.2267 -0.2056  0.0481
  282loPI   C4A 4506   4.322  13.171   7.388 -0.1282  0.0577  0.0948
  282loPI   C5A 4507   4.348  13.254   6.944  0.0711  0.2383 -0.1735
  282loPI   C6A 4508   4.328  13.133   6.570  0.0156  0.2411 -0.2690
  282loPI   C1B 4509   3.878  13.260   8.312  0.0600 -0.0327  0.1107
  282loPI   C2B 4510   3.869  13.253   7.882  0.3790 -0.1871  0.2057
  282loPI   C3B 4511   3.681  12.975   7.658 -0.1287  0.2280  0.0782
  282loPI   C4B 4512   3.437  12.625   7.349 -0.1274  0.0830 -0.2291
  283loPI    C1 4513  13.275   0.799   9.648  0.1875  0.1929 -0.2273
  283loPI    C2 4514  13.670   0.780   9.707  0.1079 -0.0980  0.2615
  283loPI    C3 4515  13.431   0.913   9.998 -0.1712 -0.0788  0.0274
  283loPI   PO4 4516  13.237   0.639   9.432 -0.0004  0.1305  0.1224
  283loPI   GL1 4517  13.222   0.477   9.029 -0.2914 -0.0989  0.1437
  283loPI   GL2 4518  13.532   0.552   8.891 -0.1385 -0.0327  0.1652
  283loPI   C1A 4519  13.248   0.236   8.649 -0.3111 -0.0224  0.0559
  283loPI   C2A 4520  13.089   0.059   8.469  0.1092 -0.3121 -0.2422
  283loPI   C3A 4521  13.135  -0.272   8.025 -0.5045  0.3552 -0.0447
  283loPI   C4A 4522  13.492  -0.344   7.906 -0.1484 -0.0282 -0.0113
  283loPI   C5A 4523  13.622  -0.521   7.555 -0.0294  0.0377 -0.0318
  283loPI   C6A 4524  13.880  -0.626   7.257  0.2556  0.1203 -0.1076
  283loPI   C1B 4525  13.687   0.599   8.419 -0.2994  0.1746  0.1480
  283loPI   C2B 4526  13.489   0.916   8.096  0.0593 -0.3091 -0.0269
  283loPI   C3B 4527  13.190   0.938   7.806 -0.2354  0.5137 -0.3042
  283loPI   C4B 4528  12.977   0.850   7.353 -0.0442 -0.2107 -0.0435
  284loPI    C1 4529   7.781   7.314   9.839  0.1317 -0.2589  0.0232
  284loPI    C2 4530   8.034   7.491  10.093 -0.1758 -0.0931  0.2206
  284loPI    C3 4531   7.738   7.262  10.234  0.0311 -0.5208 -0.0203
  284loPI   PO4 4532   7.647   7.486   9.701  0.2632  0.1311  0.2040
  284loPI   GL1 4533   7.696   7.732   9.474 -0.1497  0.1550 -0.0251
  284loPI   GL2 4534   8.046   7.757   9.509 -0.0024 -0.5334  0.0316
  284loPI   C1A 4535   7.819   7.870   9.027 -0.0389 -0.2604  0.0308
  284loPI   C2A 4536   7.758   7.898   8.718  0.1490  0.1025 -0.1546
  284loPI   C3A 4537   7.584   7.793   8.381 -0.1346 -0.3470  0.0900
  284loPI   C4A 4538   7.476   7.544   8.115 -0.0777  0.0386 -0.0368
  284loPI   C5A 4539   7.639   7.252   7.847 -0.0715 -0.0759  0.2208
  284loPI   C6A 4540   7.936   7.003   7.654 -0.2071  0.1211  0.1905
  284loPI   C1B 4541   8.398   7.583   9.102 -0.0098 -0.2495  0.0280
  284loPI   C2B 4542   8.515   7.593   8.666  0.0485  0.1690  0.0566
  284loPI   C3B 4543   8.728   7.381   8.339  0.0542 -0.0989  0.0358
  284loPI   C4B 4544   8.970   7.079   8.099  0.0181  0.0504 -0.1165
  285loPI    C1 4545  17.343  16.696  10.302 -0.1153 -0.0531 -0.0587
  285loPI    C2 4546  17.270  16.937  10.613  0.0285 -0.0911  0.0057
  285loPI    C3 4547  16.973  16.724  10.450 -0.0335 -0.1260  0.1630
  285loPI   PO4 4548  17.403  16.838  10.008 -0.4093  0.0610  0.3377
  285loPI   GL1 4549  17.731  16.963   9.677  0.1723 -0.1313  0.0219
  285loPI   GL2 4550  17.786  16.693   9.555 -0.0107 -0.2461 -0.0057
  285loPI   C1A 4551  17.548  17.117   9.366 -0.2291 -0.0054  0.0798
  285loPI   C2A 4552  17.420  17.124   8.902  0.2372  0.1998  0.0441
  285loPI   C3A 4553  17.335  16.947   8.516 -0.1276  0.4000  0.1787
  285loPI   C4A 4554  17.125  16.542   8.378 -0.2418  0.0798  0.1023
  285loPI   C5A 4555  16.792  16.288   8.287 -0.1578 -0.0885  0.1603
  285loPI   C6A 4556  16.582  15.847   8.248 -0.0530  0.2802  0.1527
  285loPI   C1B 4557  18.111  16.919   9.356 -0.0351  0.1700 -0.0609
  285loPI   C2B 4558  18.238  17.128   8.983  0.0473  0.0918 -0.2589
  285loPI   C3B 4559  18.372  17.157   8.581 -0.2041  0.2897  0.0528
  285loPI   C4B 4560  18.331  17.284   8.134  0.2281 -0.0518  0.0425
  286loPI    C1 4561   2.737   6.509  10.175  0.1706  0.0232 -0.1582
  286loPI    C2 4562   2.871   6.869  10.286  0.0338 -0.0568  0.2898
  286loPI    C3 4563   2.479   6.792  10.291  0.0392 -0.1276 -0.0786
  286loPI   PO4 4564   2.854   6.416   9.958  0.1563 -0.0427 -0.1150
  286loPI   GL1 4565   2.796   6.504   9.501 -0.0389 -0.1974 -0.1506
  286loPI   GL2 4566   2.941   6.699   9.409  0.2581 -0.1621  0.3002
  286loPI   C1A 4567   2.966   6.141   9.260  0.0761  0.0557 -0.0509
  286loPI   C2A 4568   2.960   5.998   8.873  0.2085 -0.1169  0.1842
  286loPI   C3A 4569   3.030   5.875   8.490 -0.0548 -0.1999 -0.0452
  286loPI   C4A 4570   3.121   5.983   8.089  0.2283  0.2631  0.0887
  286loPI   C5A 4571   3.123   6.127   7.587 -0.1589 -0.1195 -0.0603
  286loPI   C6A 4572   2.885   6.171   7.206  0.0488 -0.0384  0.3082
  286loPI   C1B 4573   3.033   6.891   9.117  0.0787  0.0923  0.2631
  286loPI   C2B 4574   3.094   6.848   8.657 -0.0565 -0.3644 -0.1583
  286loPI   C3B 4575   3.087   6.958   8.346 -0.1992 -0.1534  0.5268
  286loPI   C4B 4576   3.017   7.078   7.910 -0.2251  0.0104 -0.1612
  287loPI    C1 4577   3.473   1.628  10.334 -0.1475  0.2165 -0.0926
  287loPI    C2 4578   3.118   1.595  10.515 -0.0599 -0.0504  0.0353
  287loPI    C3 4579   3.365   1.281  10.499  0.0777  0.0683 -0.2502
  287loPI   PO4 4580   3.449   1.718  10.153  0.1482 -0.0220 -0.2271
  287loPI   GL1 4581   3.164   1.742   9.867  0.0162 -0.2249 -0.2330
  287loPI   GL2 4582   2.890   1.744  10.086  0.1316  0.1870 -0.0928
  287loPI   C1A 4583   3.041   1.798   9.464 -0.2384  0.0916  0.2141
  287loPI   C2A 4584   3.100   1.692   9.020  0.1617 -0.1817  0.2416
  287loPI   C3A 4585   3.005   1.695   8.478 -0.1222 -0.1608 -0.2073
  287loPI   C4A 4586   2.916   1.751   8.012  0.2105 -0.5420 -0.3621
  287loPI   C5A 4587   2.912   1.506   7.638 -0.1475  0.4159  0.0746
  287loPI   C6A 4588   2.654   1.392   7.214 -0.0992 -0.4234  0.1037
  287loPI   C1B 4589   2.820   2.185   9.900 -0.2624  0.1202 -0.1505
  287loPI   C2B 4590   2.907   2.301   9.526 -0.1228 -0.0752 -0.1844
  287loPI   C3B 4591   3.061   2.242   9.144  0.1965  0.1364  0.0076
  287loPI   C4B 4592   2.935   2.137   8.747 -0.0481  0.3450  0.0924
  288loPI    C1 4593  13.994   2.939   9.322  0.1408  0.3624 -0.0716
  288loPI    C2 4594  14.229   2.789   9.608 -0.0554  0.1021 -0.0433
  288loPI    C3 4595  13.832   2.803   9.662 -0.0971  0.0159 -0.3169
  288loPI   PO4 4596  14.094   2.832   9.138 -0.1061 -0.0934 -0.0058
  288loPI   GL1 4597  14.393   2.842   8.765 -0.2805 -0.0950 -0.0526
  288loPI   GL2 4598  14.439   2.576   8.917  0.0832  0.2214  0.2690
  288loPI   C1A 4599  14.412   3.022   8.335 -0.1590 -0.2116 -0.0903
  288loPI   C2A 4600  14.632   3.015   7.937 -0.3932 -0.0450 -0.0201
  288loPI   C3A 4601  14.982   2.908   7.792 -0.1056  0.0426 -0.0740
  288loPI   C4A 4602  15.340   2.926   7.677 -0.2282 -0.1843 -0.0022
  288loPI   C5A 4603  15.668   2.570   7.573 -0.2399 -0.4076 -0.3081
  288loPI   C6A 4604  16.064   2.416   7.363 -0.1481 -0.0474  0.2029
  288loPI   C1B 4605  14.519   2.493   8.410 -0.0440 -0.1510 -0.0232
  288loPI   C2B 4606  14.589   2.510   8.048  0.3408  0.0581  0.1578
  288loPI   C3B 4607  14.619   2.591   7.616 -0.0014 -0.0377  0.1703
  288loPI   C4B 4608  14.670   2.939   7.346 -0.2376  0.3003 -0.1892
  289loPI    C1 4609   8.088  15.956  10.031  0.1298 -0.1498  0.1088
  289loPI    C2 4610   8.209  16.121  10.375  0.2270 -0.0407  0.0229
  289loPI    C3 4611   8.454  15.878  10.171  0.1262 -0.2003  0.0902
  289loPI   PO4 4612   7.934  16.157   9.920  0.1418  0.0176  0.1139
  289loPI   GL1 4613   8.086  16.232   9.391  0.0369 -0.3871 -0.1537
  289loPI   GL2 4614   7.824  16.236   9.179 -0.0327 -0.2346  0.0709
  289loPI   C1A 4615   8.353  15.989   9.165  0.1652 -0.0640  0.4242
  289loPI   C2A 4616   8.518  15.842   8.829 -0.0292  0.0456 -0.3061
  289loPI   C3A 4617   8.601  15.703   8.391 -0.2189 -0.0658 -0.1503
  289loPI   C4A 4618   8.440  15.414   8.085 -0.0786  0.1382 -0.0605
  289loPI   C5A 4619   8.171  15.404   7.624 -0.0127 -0.1498  0.3502
  289loPI   C6A 4620   7.841  15.154   7.428  0.1069  0.2933 -0.2400
  289loPI   C1B 4621   7.732  16.614   8.948  0.2409  0.0270 -0.4501
  289loPI   C2B 4622   7.482  16.882   8.741  0.2191 -0.3758  0.1670
  289loPI   C3B 4623   7.531  16.958   8.312 -0.2673  0.1851 -0.1141
  289loPI   C4B 4624   7.487  17.121   7.905  0.0099 -0.1732 -0.1421
  290loPI    C1 4625   2.723  12.547   9.584 -0.1918  0.0451 -0.0761
  290loPI    C2 4626   3.011  12.723   9.798 -0.4298  0.2681  0.0672
  290loPI    C3 4627   2.973  12.325   9.804 -0.0099  0.2193 -0.1038
  290loPI   PO4 4628   2.696  12.706   9.343 -0.2364  0.0634 -0.0569
  290loPI   GL1 4629   2.648  12.817   8.963  0.0052 -0.0361 -0.0249
  290loPI   GL2 4630   2.965  12.632   8.899 -0.0408  0.0185 -0.0472
  290loPI   C1A 4631   2.229  12.938   8.735 -0.1990 -0.1358 -0.2222
  290loPI   C2A 4632   2.136  13.035   8.372  0.0139  0.4364 -0.2145
  290loPI   C3A 4633   1.832  13.073   7.989 -0.3257 -0.0939 -0.1080
  290loPI   C4A 4634   1.608  13.163   7.569  0.2442  0.3608 -0.0456
  290loPI   C5A 4635   1.380  13.068   7.225  0.3570  0.5146  0.0951
  290loPI   C6A 4636   1.461  13.114   6.764  0.0069 -0.0773  0.0424
  290loPI   C1B 4637   2.748  12.394   8.535  0.1175 -0.3550 -0.1108
  290loPI   C2B 4638   2.488  12.349   8.133  0.2518  0.1244  0.0116
  290loPI   C3B 4639   2.168  12.559   7.808 -0.1160  0.2339 -0.1938
  290loPI   C4B 4640   1.887  12.720   7.494 -0.1138 -0.0607  0.0312
  291loPI    C1 4641  10.256   5.060   9.895 -0.0122 -0.0151 -0.2042
  291loPI    C2 4642  10.336   4.680   9.993  0.1512  0.0707  0.0022
  291loPI    C3 4643  10.021   4.866  10.154 -0.0977 -0.0645 -0.3180
  291loPI   PO4 4644  10.308   5.093   9.677 -0.0734 -0.1145 -0.0518
  291loPI   GL1 4645  10.265   5.198   9.260 -0.1258 -0.0530  0.1972
  291loPI   GL2 4646  10.079   4.918   9.200  0.1090 -0.4151 -0.1111
  291loPI   C1A 4647  10.298   5.144   8.854 -0.0576 -0.3056  0.1986
  291loPI   C2A 4648  10.365   5.265   8.447 -0.3090 -0.1845 -0.2092
  291loPI   C3A 4649  10.323   5.213   8.022  0.2863  0.0434 -0.0879
  291loPI   C4A 4650  10.338   5.312   7.592 -0.1731  0.1643  0.0968
  291loPI   C5A 4651  10.064   5.177   7.190  0.1851 -0.3538  0.2051
  291loPI   C6A 4652  10.136   4.866   6.886 -0.2132  0.1817 -0.1494
  291loPI   C1B 4653   9.707   4.761   9.018 -0.1099  0.1869  0.2180
  291loPI   C2B 4654   9.553   4.749   8.688  0.0757  0.0388  0.1149
  291loPI   C3B 4655   9.525   4.887   8.268  0.0150  0.1865  0.0146
  291loPI   C4B 4656   9.351   5.177   7.950 -0.0703  0.0543  0.0943
  292loPI    C1 4657  12.232  16.270   9.464  0.0646  0.0873 -0.1008
  292loPI    C2 4658  12.387  16.636   9.419  0.1217  0.0920  0.1245
  292loPI    C3 4659  12.101  16.572   9.692 -0.1792  0.0539 -0.1929
  292loPI   PO4 4660  12.414  16.170   9.496  0.0348 -0.0267 -0.3554
  292loPI   GL1 4661  12.638  16.230   9.165  0.1085 -0.1356 -0.0052
  292loPI   GL2 4662  12.485  16.347   8.890  0.1502  0.2801 -0.1267
  292loPI   C1A 4663  12.841  15.912   8.965 -0.1544  0.1760  0.1414
  292loPI   C2A 4664  12.737  15.604   8.721 -0.2389  0.0231  0.1495
  292loPI   C3A 4665  12.808  15.280   8.418 -0.0341 -0.2386  0.0104
  292loPI   C4A 4666  12.638  14.995   8.056 -0.2095 -0.0587 -0.2195
  292loPI   C5A 4667  12.407  14.786   7.630  0.0232 -0.1833 -0.0346
  292loPI   C6A 4668  12.104  14.689   7.321  0.0686 -0.1556 -0.2053
  292loPI   C1B 4669  12.433  16.236   8.388 -0.2981 -0.2057  0.1501
  292loPI   C2B 4670  12.481  16.075   8.015 -0.2640 -0.0920  0.2470
  292loPI   C3B 4671  12.161  16.082   7.734  0.0278 -0.0773 -0.1184
  292loPI   C4B 4672  11.997  16.160   7.391 -0.2349 -0.2267  0.1573
  293loPI    C1 4673   8.333  15.412  10.090  0.1122 -0.1055 -0.1297
  293loPI    C2 4674   8.569  15.103   9.997 -0.1396 -0.2963 -0.1477
  293loPI    C3 4675   8.401  15.125  10.359  0.2111  0.0404  0.0026
  293loPI   PO4 4676   8.214  15.476   9.843  0.1105 -0.2842 -0.1016
  293loPI   GL1 4677   8.248  15.483   9.377  0.1467  0.2888 -0.0627
  293loPI   GL2 4678   8.063  15.507   9.192  0.0548 -0.2259 -0.2097
  293loPI   C1A 4679   8.426  15.179   9.058 -0.0481 -0.0282  0.1939
  293loPI   C2A 4680   8.309  14.841   8.899 -0.0653  0.1150 -0.0848
  293loPI   C3A 4681   8.558  14.668   8.643  0.0124 -0.4422 -0.2145
  293loPI   C4A 4682   8.692  14.811   8.223 -0.1277  0.2404  0.3500
  293loPI   C5A 4683   8.372  14.939   7.957 -0.1546 -0.0903  0.3217
  293loPI   C6A 4684   7.932  15.084   7.968 -0.3266  0.3720  0.2502
  293loPI   C1B 4685   7.978  15.774   8.960  0.3724  0.2354 -0.2514
  293loPI   C2B 4686   7.915  15.982   8.562 -0.0559 -0.0093 -0.1399
  293loPI   C3B 4687   7.848  16.429   8.434 -0.2696  0.2250  0.3047
  293loPI   C4B 4688   7.946  16.690   8.207 -0.0729  0.0755 -0.0962
  294loPI    C1 4689   9.002   9.270  10.264  0.1779 -0.0991  0.0599
  294loPI    C2 4690   9.307   9.527  10.298  0.1002 -0.0375  0.3180
  294loPI    C3 4691   9.304   9.190  10.513  0.1390 -0.1944  0.0773
  294loPI   PO4 4692   8.824   9.509  10.227  0.1128  0.0348  0.1946
  294loPI   GL1 4693   9.015   9.756   9.938  0.0686 -0.1172 -0.0467
  294loPI   GL2 4694   9.105  10.023  10.062 -0.0322 -0.2380  0.1117
  294loPI   C1A 4695   9.288   9.887   9.618  0.0599 -0.1869  0.2356
  294loPI   C2A 4696   9.377   9.974   9.176 -0.0958  0.1980  0.2571
  294loPI   C3A 4697   9.277   9.775   8.676 -0.0282  0.0507 -0.0321
  294loPI   C4A 4698   9.470   9.845   8.262  0.0930  0.2464 -0.1137
  294loPI   C5A 4699   9.497   9.675   7.911  0.2700  0.1170  0.0579
  294loPI   C6A 4700   9.393   9.574   7.530 -0.2230 -0.1059 -0.1649
  294loPI   C1B 4701   8.861  10.267   9.774 -0.2315  0.1501 -0.0533
  294loPI   C2B 4702   8.739  10.475   9.311  0.1787 -0.1695 -0.0131
  294loPI   C3B 4703   8.703  10.406   8.862  0.1430  0.3596 -0.3129
  294loPI   C4B 4704   8.744  10.420   8.341 -0.0140 -0.2311  0.0499
  295loPI    C1 4705   2.104  12.401   9.615 -0.2474 -0.0894  0.1186
  295loPI    C2 4706   2.302  12.446   9.960  0.1167 -0.3824 -0.0449
  295loPI    C3 4707   1.909  12.370   9.963  0.0474 -0.0422  0.2914
  295loPI   PO4 4708   2.271  12.363   9.476  0.0506 -0.1357  0.0193
  295loPI   GL1 4709   2.247  12.502   9.003 -0.0650  0.0430  0.2491
  295loPI   GL2 4710   2.508  12.358   9.031  0.0991  0.2256  0.3228
  295loPI   C1A 4711   2.165  12.498   8.586 -0.1383  0.5706  0.1949
  295loPI   C2A 4712   1.904  12.493   8.215 -0.0445 -0.1259 -0.1164
  295loPI   C3A 4713   1.646  12.617   7.916 -0.0224 -0.0742  0.1859
  295loPI   C4A 4714   1.338  12.585   7.595 -0.0676  0.0535 -0.0602
  295loPI   C5A 4715   1.087  12.651   7.269 -0.0723  0.3327 -0.1778
  295loPI   C6A 4716   0.685  12.631   7.152  0.3461 -0.2183  0.0738
  295loPI   C1B 4717   2.361  12.058   8.733  0.1787 -0.0822 -0.2336
  295loPI   C2B 4718   2.179  11.980   8.336  0.1829 -0.2190  0.0133
  295loPI   C3B 4719   2.179  12.083   7.890  0.0658 -0.1766  0.2431
  295loPI   C4B 4720   1.888  12.250   7.583  0.1508  0.2262 -0.0248
  296loPI    C1 4721   5.650   3.172  10.345 -0.0126  0.1871 -0.0714
  296loPI    C2 4722   5.474   3.374  10.643 -0.0461  0.1282 -0.0511
  296loPI    C3 4723   5.709   3.060  10.725 -0.0837  0.0901 -0.0885
  296loPI   PO4 4724   5.719   3.392  10.156  0.0950  0.0531 -0.2747
  296loPI   GL1 4725   5.571   3.290   9.770 -0.1441 -0.1642 -0.3674
  296loPI   GL2 4726   5.375   3.487   9.509 -0.0691 -0.0448 -0.2129
  296loPI   C1A 4727   5.780   3.233   9.367  0.1164  0.0190  0.1758
  296loPI   C2A 4728   5.934   3.370   8.881  0.3211 -0.4428  0.0493
  296loPI   C3A 4729   6.149   3.459   8.555  0.0848  0.0210 -0.0470
  296loPI   C4A 4730   6.437   3.458   8.273 -0.1016 -0.1520  0.1607
  296loPI   C5A 4731   6.443   3.222   7.951  0.0854  0.0154  0.0546
  296loPI   C6A 4732   6.625   3.065   7.522 -0.2574 -0.2987 -0.1678
  296loPI   C1B 4733   5.424   3.526   9.034  0.0471  0.2047  0.2890
  296loPI   C2B 4734   5.528   3.654   8.687 -0.1066 -0.0756  0.4770
  296loPI   C3B 4735   5.629   3.798   8.309  0.0016  0.1109 -0.4026
  296loPI   C4B 4736   5.419   3.833   7.901 -0.0096 -0.1783 -0.3652
  297loPI    C1 4737   9.852   0.493   9.586  0.0267  0.2782 -0.1428
  297loPI    C2 4738  10.224   0.367   9.659 -0.1607 -0.1423  0.1252
  297loPI    C3 4739   9.971   0.429   9.962 -0.3795 -0.0825 -0.0668
  297loPI   PO4 4740   9.869   0.729   9.524 -0.2013 -0.1173 -0.2369
  297loPI   GL1 4741   9.688   0.874   9.139 -0.0064  0.0211 -0.0892
  297loPI   GL2 4742   9.571   0.552   9.176  0.2114 -0.1939  0.0024
  297loPI   C1A 4743   9.883   0.716   8.798  0.0328 -0.0963  0.0891
  297loPI   C2A 4744   9.960   0.783   8.377 -0.5274 -0.1677 -0.2862
  297loPI   C3A 4745   9.856   0.848   7.956  0.0889 -0.0193 -0.1025
  297loPI   C4A 4746  10.166   0.700   7.583 -0.3706  0.2449 -0.0909
  297loPI   C5A 4747  10.433   0.657   7.181 -0.2305 -0.2133  0.0457
  297loPI   C6A 4748  10.305   0.474   6.902  0.0745 -0.1128 -0.2695
  297loPI   C1B 4749   9.365   0.845   8.828 -0.0179  0.2484 -0.0786
  297loPI   C2B 4750   9.357   0.834   8.440 -0.1180 -0.2596  0.3102
  297loPI   C3B 4751   9.370   0.859   7.979 -0.2024 -0.1651  0.1940
  297loPI   C4B 4752   9.279   0.566   7.657  0.1749 -0.0767  0.2742
  298loPI    C1 4753  18.446   5.522   9.910  0.2541 -0.0672 -0.1042
  298loPI    C2 4754  18.372   5.277  10.218  0.1251  0.2898  0.1564
  298loPI    C3 4755  18.742   5.416  10.158  0.1855  0.0854  0.0453
  298loPI   PO4 4756  18.415   5.509   9.700 -0.0428  0.2289  0.0844
  298loPI   GL1 4757  18.075   5.534   9.406  0.1317  0.0745  0.0077
  298loPI   GL2 4758  17.712   5.413   9.391  0.0060 -0.2180 -0.1645
  298loPI   C1A 4759  18.207   5.440   9.035 -0.1065 -0.1190 -0.1759
  298loPI   C2A 4760  18.143   5.458   8.619  0.0822  0.0786 -0.0330
  298loPI   C3A 4761  18.330   5.486   8.223  0.1806  0.1338 -0.0012
  298loPI   C4A 4762  18.347   5.336   7.762 -0.5235 -0.3891  0.0419
  298loPI   C5A 4763  18.318   5.525   7.353 -0.0235  0.1909 -0.2957
  298loPI   C6A 4764  18.365   5.696   7.044  0.3482 -0.0162  0.6352
  298loPI   C1B 4765  17.763   5.269   8.981 -0.1056 -0.2545 -0.2833
  298loPI   C2B 4766  17.710   5.216   8.546 -0.2078 -0.0437  0.0641
  298loPI   C3B 4767  17.380   4.915   8.311 -0.1610 -0.0359 -0.1140
  298loPI   C4B 4768  17.244   4.723   7.933 -0.0375 -0.0347  0.2460
  299loPI    C1 4769  13.926  18.554   9.614  0.1118  0.1771  0.0672
  299loPI    C2 4770  14.188  18.428   9.888  0.0804 -0.2448 -0.0899
  299loPI    C3 4771  13.797  18.358   9.937  0.0087  0.2175  0.0510
  299loPI   PO4 4772  14.002  18.488   9.459 -0.0660  0.1476  0.0569
  299loPI   GL1 4773  13.970  18.463   9.006 -0.1045  0.0522 -0.1885
  299loPI   GL2 4774  13.974  18.798   9.034 -0.1646  0.2035  0.2344
  299loPI   C1A 4775  13.953  18.363   8.650 -0.0667 -0.1333 -0.0354
  299loPI   C2A 4776  13.931  18.112   8.237 -0.0454 -0.2707  0.0001
  299loPI   C3A 4777  14.104  17.978   7.829 -0.0599 -0.0616 -0.1469
  299loPI   C4A 4778  14.271  17.966   7.372 -0.0092 -0.1816  0.0822
  299loPI   C5A 4779  14.386  17.802   6.970  0.1804  0.2393  0.2797
  299loPI   C6A 4780  14.313  17.549   6.681  0.2230  0.0847  0.1756
  299loPI   C1B 4781  13.871  18.866   8.687 -0.1040  0.0095  0.1786
  299loPI   C2B 4782  13.871  18.672   8.219  0.1788  0.1969 -0.1637
  299loPI   C3B 4783  14.025  18.604   7.926  0.0421  0.1490  0.2693
  299loPI   C4B 4784  14.232  18.447   7.625 -0.0245  0.0868 -0.2316
  300loPI    C1 4785  10.856  12.341  10.370 -0.0495 -0.0030 -0.0803
  300loPI    C2 4786  10.473  12.455  10.380 -0.0542 -0.0319  0.0966
  300loPI    C3 4787  10.746  12.651  10.597  0.0741  0.1410 -0.2147
  300loPI   PO4 4788  10.978  12.294  10.123 -0.1413  0.2003  0.4124
  300loPI   GL1 4789  10.841  12.217   9.652 -0.1586  0.2711 -0.0692
  300loPI   GL2 4790  11.164  12.065   9.587 -0.2635  0.0339  0.0112
  300loPI   C1A 4791  10.963  12.405   9.265 -0.2430  0.0739 -0.1590
  300loPI   C2A 4792  11.259  12.686   9.054  0.1011  0.2018 -0.1318
  300loPI   C3A 4793  11.225  12.842   8.652  0.1997  0.0299  0.1359
  300loPI   C4A 4794  11.423  12.875   8.299  0.0320 -0.0383  0.1542
  300loPI   C5A 4795  11.655  13.044   7.986 -0.0614 -0.1977  0.0221
  300loPI   C6A 4796  11.821  13.425   7.776  0.0729  0.0749  0.1881
  300loPI   C1B 4797  11.349  12.033   9.178  0.2931 -0.0824  0.0412
  300loPI   C2B 4798  11.425  12.279   8.834  0.0169 -0.0548  0.2165
  300loPI   C3B 4799  11.626  12.266   8.444  0.1446 -0.0014 -0.1878
  300loPI   C4B 4800  11.661  12.131   8.010 -0.1407  0.0746 -0.0988
  301loPI    C1 4801  16.695   1.975  10.026 -0.1196  0.2329 -0.1606
  301loPI    C2 4802  16.859   1.628  10.139 -0.0797  0.2852 -0.0567
  301loPI    C3 4803  16.575   1.798  10.364 -0.3666  0.1345 -0.2966
  301loPI   PO4 4804  16.687   1.911   9.736  0.0936  0.1484 -0.2693
  301loPI   GL1 4805  16.706   1.786   9.292 -0.1362 -0.0215  0.2283
  301loPI   GL2 4806  16.655   1.498   9.259 -0.5243  0.0301  0.2858
  301loPI   C1A 4807  16.727   2.001   8.923 -0.3283  0.2568 -0.1250
  301loPI   C2A 4808  16.780   1.957   8.476  0.0790  0.0541 -0.1288
  301loPI   C3A 4809  16.753   2.205   8.041 -0.1507  0.0724 -0.0967
  301loPI   C4A 4810  16.604   2.074   7.702  0.3308  0.3539 -0.1572
  301loPI   C5A 4811  16.250   1.930   7.487 -0.0538  0.0789 -0.0434
  301loPI   C6A 4812  15.815   1.847   7.462  0.2469 -0.3567  0.1984
  301loPI   C1B 4813  16.665   1.503   8.849 -0.1394 -0.0310  0.4641
  301loPI   C2B 4814  16.614   1.389   8.436 -0.2454  0.0251 -0.0818
  301loPI   C3B 4815  16.466   1.317   7.974  0.0159 -0.0119  0.0641
  301loPI   C4B 4816  16.343   1.522   7.698  0.2162  0.1776  0.0774
  302loPI    C1 4817   6.249  14.246   9.823 -0.1755  0.0962  0.2251
  302loPI    C2 4818   6.628  14.122   9.865 -0.2049 -0.1170 -0.1018
  302loPI    C3 4819   6.375  14.100  10.174 -0.0570 -0.3500  0.0057
  302loPI   PO4 4820   6.230  14.266   9.521  0.0811  0.0357 -0.1624
  302loPI   GL1 4821   6.482  14.419   9.194 -0.0324  0.0913 -0.0729
  302loPI   GL2 4822   6.732  14.218   9.355 -0.3724 -0.0182  0.1272
  302loPI   C1A 4823   6.462  14.398   8.731 -0.1900  0.2143  0.1805
  302loPI   C2A 4824   6.380  14.458   8.265 -0.3321 -0.0280  0.1539
  302loPI   C3A 4825   6.472  14.439   7.855  0.0893 -0.2580  0.1526
  302loPI   C4A 4826   6.565  14.660   7.579 -0.1272  0.2753  0.1897
  302loPI   C5A 4827   6.428  14.657   7.145  0.0724  0.0582  0.2692
  302loPI   C6A 4828   6.233  14.396   7.034 -0.0731 -0.0357  0.2761
  302loPI   C1B 4829   7.037  14.096   8.963  0.0648  0.1700 -0.3547
  302loPI   C2B 4830   7.285  13.907   8.737 -0.0686 -0.1009  0.0788
  302loPI   C3B 4831   7.319  13.948   8.282 -0.0956 -0.1653 -0.0344
  302loPI   C4B 4832   7.318  13.960   7.846 -0.0980  0.0671  0.0532
  303loPI    C1 4833   7.623   3.127   9.388  0.1883  0.1810 -0.0291
  303loPI    C2 4834   7.317   3.111   9.644  0.2779 -0.1824  0.0618
  303loPI    C3 4835   7.249   3.090   9.251  0.1684  0.0016  0.0697
  303loPI   PO4 4836   7.730   3.361   9.429 -0.1062  0.3159  0.0358
  303loPI   GL1 4837   7.671   3.685   9.098 -0.0724  0.0267  0.3071
  303loPI   GL2 4838   7.835   3.948   8.932  0.0758 -0.1315 -0.1562
  303loPI   C1A 4839   7.653   3.493   8.696  0.0995 -0.1900  0.1976
  303loPI   C2A 4840   7.394   3.548   8.307 -0.1785  0.0865 -0.0291
  303loPI   C3A 4841   7.236   3.611   7.918  0.0910  0.1027  0.3516
  303loPI   C4A 4842   7.037   3.637   7.547 -0.2022 -0.2788 -0.1380
  303loPI   C5A 4843   7.206   3.709   7.213 -0.2509  0.1632  0.0287
  303loPI   C6A 4844   7.254   4.010   6.852 -0.2435  0.1549  0.1036
  303loPI   C1B 4845   7.618   3.958   8.535  0.0826  0.0468 -0.0052
  303loPI   C2B 4846   7.695   3.959   8.143 -0.1326  0.0843  0.0262
  303loPI   C3B 4847   7.657   3.723   7.735 -0.1478 -0.1141 -0.1109
  303loPI   C4B 4848   7.516   3.423   7.402 -0.1805 -0.1465 -0.0246
  304loPI    C1 4849  14.722  12.621  10.567 -0.0960 -0.0246  0.0269
  304loPI    C2 4850  14.431  12.741  10.814  0.0183 -0.0243  0.1630
  304loPI    C3 4851  14.760  12.964  10.770 -0.0005 -0.0255  0.0110
  304loPI   PO4 4852  14.596  12.554  10.260  0.1147 -0.0376 -0.0381
  304loPI   GL1 4853  14.593  12.570   9.772  0.1178 -0.3306  0.1036
  304loPI   GL2 4854  14.227  12.526   9.653  0.0879  0.2762  0.0731
  304loPI   C1A 4855  14.633  12.541   9.356 -0.0966  0.0087  0.2927
  304loPI   C2A 4856  14.703  12.634   8.948  0.0876 -0.0107 -0.0024
  304loPI   C3A 4857  14.816  12.795   8.659  0.1000 -0.1088  0.1293
  304loPI   C4A 4858  15.206  12.676   8.498 -0.0047 -0.0532 -0.0257
  304loPI   C5A 4859  15.276  12.858   8.202 -0.0498 -0.0176  0.1196
  304loPI   C6A 4860  15.348  13.303   8.067  0.1829  0.2126  0.0695
  304loPI   C1B 4861  14.076  12.373   9.289  0.0160 -0.1270 -0.0688
  304loPI   C2B 4862  14.276  12.371   8.910  0.0180  0.1618  0.2131
  304loPI   C3B 4863  14.481  12.341   8.440  0.1623  0.1878 -0.4402
  304loPI   C4B 4864  14.837  12.437   8.288  0.0109  0.1741 -0.1578
  305loPI    C1 4865  16.091  17.882  10.011  0.1250  0.0001 -0.1596
  305loPI    C2 4866  15.786  17.684  10.177  0.1206  0.0695 -0.0839
  305loPI    C3 4867  15.715  17.981   9.919  0.1164  0.2723  0.1464
  305loPI   PO4 4868  16.211  17.703   9.897  0.1517 -0.1429 -0.0292
  305loPI   GL1 4869  16.259  17.489   9.537  0.1684  0.3512  0.2346
  305loPI   GL2 4870  16.199  17.713   9.403 -0.0218 -0.0359  0.1497
  305loPI   C1A 4871  16.361  17.296   9.118  0.0671  0.1818  0.0890
  305loPI   C2A 4872  16.629  17.029   9.011 -0.2553  0.2788 -0.2519
  305loPI   C3A 4873  16.832  16.868   8.702  0.0305  0.2366 -0.1935
  305loPI   C4A 4874  16.867  16.919   8.283 -0.2579 -0.0152  0.4156
  305loPI   C5A 4875  17.209  17.140   8.036 -0.0132  0.2507  0.2191
  305loPI   C6A 4876  17.606  17.258   7.804  0.3342  0.0851 -0.1318
  305loPI   C1B 4877  16.250  17.874   8.970 -0.3089  0.1248 -0.0423
  305loPI   C2B 4878  16.137  18.035   8.566 -0.2444 -0.3769  0.1857
  305loPI   C3B 4879  16.157  17.987   8.120 -0.4118 -0.1759  0.0689
  305loPI   C4B 4880  16.251  18.089   7.665  0.0454 -0.2200  0.1306
  306loPI    C1 4881  10.787  13.463  10.471 -0.0556 -0.1897 -0.2460
  306loPI    C2 4882  11.044  13.172  10.373  0.2573 -0.0512  0.1395
  306loPI    C3 4883  10.799  13.126  10.686 -0.1283 -0.1423 -0.1674
  306loPI   PO4 4884  10.824  13.628  10.211  0.1903 -0.1277 -0.0522
  306loPI   GL1 4885  10.852  13.403   9.871  0.1004 -0.0318 -0.1425
  306loPI   GL2 4886  10.573  13.212   9.751 -0.4840  0.3116 -0.0312
  306loPI   C1A 4887  10.995  13.430   9.377  0.1440 -0.2898  0.0447
  306loPI   C2A 4888  11.005  13.399   8.932  0.3133  0.0670 -0.2140
  306loPI   C3A 4889  10.895  13.254   8.491  0.0808  0.1361  0.0412
  306loPI   C4A 4890  11.061  13.184   8.103 -0.2619  0.1034 -0.2112
  306loPI   C5A 4891  11.248  13.499   7.943  0.1053 -0.0202  0.2490
  306loPI   C6A 4892  11.618  13.692   8.113  0.0678 -0.0806 -0.0195
  306loPI   C1B 4893  10.492  13.277   9.273 -0.2243  0.2285  0.0873
  306loPI   C2B 4894  10.466  13.288   8.843  0.1290 -0.1964  0.0389
  306loPI   C3B 4895  10.394  13.292   8.457  0.2129 -0.2620 -0.0114
  306loPI   C4B 4896  10.398  13.072   8.076 -0.1451 -0.0375 -0.2176
  307loPI    C1 4897  17.228   1.538   9.718 -0.0221 -0.1388 -0.0321
  307loPI    C2 4898  17.566   1.750   9.752 -0.1470  0.0347  0.1572
  307loPI    C3 4899  17.385   1.608  10.079 -0.2948  0.0026  0.0627
  307loPI   PO4 4900  17.137   1.653   9.543  0.1859 -0.0656 -0.0041
  307loPI   GL1 4901  17.192   1.575   9.169  0.4816 -0.0499  0.0713
  307loPI   GL2 4902  17.515   1.374   9.229 -0.2869 -0.0301  0.0489
  307loPI   C1A 4903  17.145   1.690   8.700  0.0625 -0.3044 -0.2258
  307loPI   C2A 4904  17.260   1.886   8.296  0.1821 -0.0073  0.2427
  307loPI   C3A 4905  17.245   1.781   7.856 -0.1199 -0.1404  0.2223
  307loPI   C4A 4906  17.334   1.424   7.617  0.1076  0.2181  0.3684
  307loPI   C5A 4907  17.457   1.041   7.451 -0.2338 -0.0754 -0.2725
  307loPI   C6A 4908  17.736   0.618   7.514  0.0094 -0.3397  0.3118
  307loPI   C1B 4909  17.415   1.301   8.840  0.1209  0.0905 -0.0498
  307loPI   C2B 4910  17.609   1.140   8.365 -0.1087  0.0792  0.2056
  307loPI   C3B 4911  17.675   1.222   7.948  0.2275 -0.2474 -0.0910
  307loPI   C4B 4912  18.021   1.334   7.608  0.2955 -0.0472 -0.1070
  308loPI    C1 4913   5.911  16.052  10.078  0.2410 -0.1286  0.2108
  308loPI    C2 4914   5.790  15.676  10.144 -0.1252  0.0035  0.3150
  308loPI    C3 4915   5.547  15.936   9.960  0.1680  0.1613  0.1429
  308loPI   PO4 4916   6.140  16.133   9.935  0.0480  0.1607  0.1516
  308loPI   GL1 4917   6.163  16.105   9.465 -0.2444  0.0982  0.0623
  308loPI   GL2 4918   6.140  16.436   9.537 -0.0329  0.2443 -0.2922
  308loPI   C1A 4919   6.041  15.974   9.112  0.0924 -0.3359 -0.1292
  308loPI   C2A 4920   5.860  15.953   8.676 -0.0326 -0.0667 -0.1531
  308loPI   C3A 4921   5.906  16.071   8.240 -0.2267 -0.1621  0.1902
  308loPI   C4A 4922   6.029  16.231   7.836 -0.0296 -0.0484 -0.1743
  308loPI   C5A 4923   6.274  16.671   7.684 -0.0760  0.0062  0.0262
  308loPI   C6A 4924   6.299  17.070   7.913  0.0003  0.0702  0.4521
  308loPI   C1B 4925   6.246  16.770   9.279 -0.2860  0.0288 -0.1088
  308loPI   C2B 4926   6.410  16.835   8.807  0.0924 -0.0112  0.2027
  308loPI   C3B 4927   6.417  16.793   8.312  0.1871 -0.2255  0.3556
  308loPI   C4B 4928   6.684  16.624   7.989  0.0903  0.1980 -0.0738
  309loPI    C1 4929   7.839  13.602  10.202  0.1996 -0.2261 -0.0889
  309loPI    C2 4930   8.115  13.765  10.442  0.1136 -0.0086 -0.1359
  309loPI    C3 4931   7.726  13.806  10.528  0.0910 -0.1884 -0.1495
  309loPI   PO4 4932   7.878  13.674   9.921  0.0983 -0.2466  0.0452
  309loPI   GL1 4933   8.066  13.521   9.541 -0.0635 -0.0482 -0.1562
  309loPI   GL2 4934   7.811  13.350   9.343 -0.1791 -0.1120  0.2784
  309loPI   C1A 4935   8.200  13.882   9.236  0.2383 -0.1119 -0.1119
  309loPI   C2A 4936   8.169  14.016   8.771 -0.1095 -0.0180 -0.0304
  309loPI   C3A 4937   8.222  13.937   8.302  0.0903 -0.0721 -0.3713
  309loPI   C4A 4938   8.225  14.023   7.862 -0.2804  0.0525  0.1501
  309loPI   C5A 4939   8.277  14.170   7.459 -0.1342 -0.2114  0.0077
  309loPI   C6A 4940   8.477  14.437   7.260 -0.2864 -0.0492  0.2021
  309loPI   C1B 4941   8.122  13.436   8.966 -0.2169  0.2272 -0.0044
  309loPI   C2B 4942   8.363  13.516   8.548 -0.1271 -0.0736 -0.3546
  309loPI   C3B 4943   8.645  13.706   8.164  0.2066 -0.3334  0.3555
  309loPI   C4B 4944   8.689  13.817   7.700  0.2135 -0.2860 -0.0158
  310loPI    C1 4945  14.425  10.086  10.444  0.0283 -0.2035  0.3145
  310loPI    C2 4946  14.808  10.074  10.560  0.0813 -0.0914  0.1537
  310loPI    C3 4947  14.552  10.323  10.741  0.1727  0.1110  0.0086
  310loPI   PO4 4948  14.481   9.885  10.238  0.1158  0.0251  0.0849
  310loPI   GL1 4949  14.336   9.986   9.835  0.0506  0.3175  0.0315
  310loPI   GL2 4950  14.460  10.280   9.665  0.1209  0.1897 -0.0260
  310loPI   C1A 4951  14.492   9.922   9.319 -0.0347 -0.2635 -0.4730
  310loPI   C2A 4952  14.507  10.045   8.891 -0.1013 -0.1865 -0.3076
  310loPI   C3A 4953  14.494  10.044   8.503 -0.3025 -0.4262 -0.1607
  310loPI   C4A 4954  14.612  10.018   8.011 -0.1616  0.3522  0.1411
  310loPI   C5A 4955  14.929   9.827   7.829  0.2652 -0.0926 -0.3783
  310loPI   C6A 4956  15.393   9.806   7.614 -0.1162 -0.2068 -0.0893
  310loPI   C1B 4957  14.356  10.397   9.290 -0.2416 -0.0322  0.0382
  310loPI   C2B 4958  14.283  10.476   8.832  0.0671 -0.0056 -0.3646
  310loPI   C3B 4959  14.397  10.577   8.418 -0.1023 -0.0556  0.0142
  310loPI   C4B 4960  14.316  10.433   8.101 -0.1042  0.0495  0.1124
  311loPI    C1 4961   2.508  17.647  10.346 -0.0085 -0.2160  0.0163
  311loPI    C2 4962   2.736  17.960  10.246 -0.2287 -0.0727 -0.0441
  311loPI    C3 4963   2.765  17.800  10.611  0.1023 -0.1766 -0.1130
  311loPI   PO4 4964   2.400  17.570  10.110 -0.1798 -0.0171  0.1199
  311loPI   GL1 4965   2.532  17.793   9.759 -0.1635 -0.0995  0.1221
  311loPI   GL2 4966   2.813  17.901   9.630 -0.0650  0.1797  0.0356
  311loPI   C1A 4967   2.320  17.606   9.498 -0.2767 -0.0743  0.0642
  311loPI   C2A 4968   2.426  17.521   9.159 -0.2470  0.0547  0.0167
  311loPI   C3A 4969   2.376  17.458   8.718 -0.2869 -0.0293  0.1160
  311loPI   C4A 4970   2.257  17.438   8.254 -0.1621  0.1735  0.2098
  311loPI   C5A 4971   2.245  17.485   7.848  0.3425 -0.0348  0.2240
  311loPI   C6A 4972   2.299  17.162   7.463 -0.0390  0.0689 -0.1344
  311loPI   C1B 4973   2.919  17.787   9.261  0.1959  0.2928 -0.0678
  311loPI   C2B 4974   2.801  17.806   8.765  0.0417  0.1239 -0.2786
  311loPI   C3B 4975   2.806  17.654   8.411  0.1483  0.0230  0.0376
  311loPI   C4B 4976   2.693  17.739   8.008 -0.1270 -0.1171  0.2137
  312loPI    C1 4977  13.652   8.493  10.311  0.1762 -0.0204 -0.1102
  312loPI    C2 4978  13.943   8.361  10.552  0.0569  0.0055  0.0498
  312loPI    C3 4979  13.657   8.600  10.697 -0.0977 -0.0958 -0.0840
  312loPI   PO4 4980  13.685   8.396  10.102  0.1493  0.0369  0.1954
  312loPI   GL1 4981  13.789   8.487   9.659 -0.2065 -0.2423  0.0354
  312loPI   GL2 4982  13.928   8.714   9.329 -0.0760  0.0220 -0.0294
  312loPI   C1A 4983  13.512   8.257   9.390  0.1433 -0.0278  0.1097
  312loPI   C2A 4984  13.482   8.082   8.939 -0.0644  0.0886 -0.2108
  312loPI   C3A 4985  13.368   8.040   8.496 -0.0454 -0.3321 -0.2740
  312loPI   C4A 4986  13.416   7.793   8.154  0.1443 -0.0581  0.1043
  312loPI   C5A 4987  13.536   7.854   7.853 -0.0611 -0.0222  0.0257
  312loPI   C6A 4988  13.912   7.975   7.493 -0.0532 -0.0843  0.3762
  312loPI   C1B 4989  13.657   8.595   9.035  0.1542 -0.0416 -0.3291
  312loPI   C2B 4990  13.659   8.513   8.610  0.0780 -0.4750 -0.0656
  312loPI   C3B 4991  13.654   8.423   8.163 -0.3086  0.0154 -0.0201
  312loPI   C4B 4992  13.660   8.327   7.716  0.0645  0.1297 -0.2989
  313loPI    C1 4993   5.551  16.426  10.342 -0.3566 -0.0556  0.0700
  313loPI    C2 4994   5.640  16.064  10.489  0.0433  0.0326  0.0545
  313loPI    C3 4995   5.903  16.364  10.521 -0.0800  0.1943 -0.3706
  313loPI   PO4 4996   5.479  16.404  10.113  0.0450  0.2571  0.1959
  313loPI   GL1 4997   5.705  16.457   9.805  0.1754 -0.1093 -0.1027
  313loPI   GL2 4998   5.690  16.691   9.617  0.0051  0.3533 -0.1090
  313loPI   C1A 4999   5.691  16.287   9.352  0.1332 -0.0924  0.0263
  313loPI   C2A 5000   5.878  16.495   9.062 -0.3730  0.3409  0.5600
  313loPI   C3A 5001   5.929  16.829   8.747 -0.3825  0.2769  0.1546
  313loPI   C4A 5002   6.012  17.075   8.360 -0.1517 -0.0234 -0.2815
  313loPI   C5A 5003   5.895  17.342   7.965  0.3370 -0.0230 -0.1812
  313loPI   C6A 5004   5.650  17.572   7.709  0.0124  0.2321  0.0184
  313loPI   C1B 5005   5.387  16.698   9.245  0.1303 -0.2415 -0.0205
  313loPI   C2B 5006   5.432  16.412   8.870  0.2028 -0.0938  0.0854
  313loPI   C3B 5007   5.576  16.352   8.394 -0.1250  0.2046 -0.1622
  313loPI   C4B 5008   5.445  16.197   8.020 -0.0456  0.0457  0.2493
  314loPI    C1 5009   9.409   4.601   9.977  0.0092 -0.0031 -0.1036
  314loPI    C2 5010   9.071   4.416  10.085  0.0642 -0.0358  0.0146
  314loPI    C3 5011   9.304   4.585  10.363  0.1985 -0.1044 -0.0552
  314loPI   PO4 5012   9.466   4.496   9.720 -0.1204  0.0891 -0.1115
  314loPI   GL1 5013   9.412   4.485   9.315  0.0877 -0.2379  0.0750
  314loPI   GL2 5014   9.173   4.623   9.137  0.1125 -0.1441 -0.1719
  314loPI   C1A 5015   9.433   4.277   8.892  0.2387  0.2335 -0.0049
  314loPI   C2A 5016   9.352   4.266   8.505 -0.3994  0.1135 -0.2349
  314loPI   C3A 5017   9.271   4.416   8.084 -0.0763 -0.0283  0.2005
  314loPI   C4A 5018   9.085   4.712   7.893 -0.4218 -0.2702 -0.1271
  314loPI   C5A 5019   8.755   4.908   7.575  0.0208  0.0911  0.0449
  314loPI   C6A 5020   8.399   4.844   7.316 -0.0405 -0.0981 -0.1426
  314loPI   C1B 5021   9.050   4.666   8.638 -0.0248 -0.2906 -0.0082
  314loPI   C2B 5022   8.779   4.724   8.291 -0.1266  0.0856  0.0756
  314loPI   C3B 5023   8.476   4.852   7.994 -0.0882 -0.0166 -0.2390
  314loPI   C4B 5024   8.405   5.266   7.675 -0.4426 -0.1013 -0.2125
  315loPI    C1 5025   0.187  13.061   9.847 -0.0982  0.0224  0.1491
  315loPI    C2 5026   0.524  12.906   9.996  0.1542  0.2452 -0.1743
  315loPI    C3 5027   0.429  13.286  10.073 -0.1403  0.1216  0.0959
  315loPI   PO4 5028   0.202  13.012   9.616  0.0626  0.0910  0.2134
  315loPI   GL1 5029   0.414  12.751   9.519  0.0558  0.1761 -0.3035
  315loPI   GL2 5030   0.714  12.795   9.369 -0.0486 -0.1903  0.1189
  315loPI   C1A 5031   0.354  12.553   9.074 -0.1594  0.1072  0.0615
  315loPI   C2A 5032   0.129  12.322   8.728  0.1592  0.1769 -0.0683
  315loPI   C3A 5033  -0.048  12.085   8.337  0.1859 -0.2917  0.0563
  315loPI   C4A 5034  -0.141  12.165   7.933  0.3076 -0.1099 -0.0226
  315loPI   C5A 5035  -0.018  12.345   7.574 -0.2575  0.0227  0.0892
  315loPI   C6A 5036   0.361  12.505   7.517 -0.1468  0.1037  0.0336
  315loPI   C1B 5037   0.812  12.881   9.024 -0.0886 -0.1951 -0.1981
  315loPI   C2B 5038   0.806  13.318   8.787  0.2045 -0.1175 -0.1768
  315loPI   C3B 5039   0.752  13.716   8.499 -0.2844 -0.1289  0.1933
  315loPI   C4B 5040   1.023  13.699   8.128 -0.0621 -0.1186 -0.1543
  316loPI    C1 5041   2.914  15.467   9.998  0.0846  0.0716 -0.0372
  316loPI    C2 5042   2.678  15.563  10.306  0.1086 -0.0035  0.0051
  316loPI    C3 5043   3.072  15.521  10.361  0.0922 -0.1717 -0.0029
  316loPI   PO4 5044   2.840  15.577   9.826  0.1476 -0.2831  0.2091
  316loPI   GL1 5045   2.519  15.684   9.516  0.0020 -0.2037  0.2417
  316loPI   GL2 5046   2.469  15.387   9.331 -0.2636 -0.1182 -0.1056
  316loPI   C1A 5047   2.310  15.816   9.063  0.2047  0.1380  0.1138
  316loPI   C2A 5048   2.222  15.931   8.614 -0.1409 -0.0763 -0.1084
  316loPI   C3A 5049   2.332  15.841   8.187 -0.2298  0.2287 -0.1305
  316loPI   C4A 5050   2.524  15.829   7.929 -0.1823 -0.1726  0.2215
  316loPI   C5A 5051   2.514  15.440   7.699 -0.0029  0.3133  0.0183
  316loPI   C6A 5052   2.829  15.263   7.414 -0.0727 -0.3895 -0.2317
  316loPI   C1B 5053   2.680  15.132   9.076 -0.2623 -0.1678 -0.2256
  316loPI   C2B 5054   2.947  15.047   8.654  0.3042 -0.0045 -0.0134
  316loPI   C3B 5055   3.059  15.167   8.204 -0.1785  0.1785  0.3770
  316loPI   C4B 5056   2.991  15.423   7.838  0.0145  0.1238  0.0830
  317loPI    C1 5057   2.316   3.090  10.660 -0.1346  0.0537  0.1724
  317loPI    C2 5058   2.400   2.983  11.036 -0.0454  0.0212  0.1434
  317loPI    C3 5059   2.119   3.259  10.965 -0.0384  0.0524  0.2357
  317loPI   PO4 5060   2.500   3.121  10.551  0.4381  0.2125 -0.0221
  317loPI   GL1 5061   2.608   3.437  10.329  0.1448 -0.2186  0.0194
  317loPI   GL2 5062   2.783   3.251  10.246 -0.2755 -0.1513 -0.1355
  317loPI   C1A 5063   2.502   3.497   9.884 -0.6345  0.0768 -0.1616
  317loPI   C2A 5064   2.546   3.500   9.406 -0.2230 -0.0738  0.2480
  317loPI   C3A 5065   2.481   3.491   8.988  0.1271  0.2895  0.2667
  317loPI   C4A 5066   2.282   3.645   8.666  0.0867 -0.0465 -0.1079
  317loPI   C5A 5067   2.278   3.868   8.329  0.1057 -0.1779 -0.1173
  317loPI   C6A 5068   2.023   3.864   7.966 -0.0866  0.0499 -0.1119
  317loPI   C1B 5069   2.999   3.099   9.934  0.2288 -0.1716  0.1839
  317loPI   C2B 5070   3.325   3.051   9.557 -0.4569 -0.1685  0.1158
  317loPI   C3B 5071   3.520   3.047   9.124 -0.0393  0.3262 -0.0606
  317loPI   C4B 5072   3.864   3.279   8.952  0.3819  0.2848 -0.0268
  318loPI    C1 5073   5.647  16.935  10.018  0.1315 -0.0187  0.0375
  318loPI    C2 5074   5.714  16.883  10.409  0.2328 -0.0348  0.0184
  318loPI    C3 5075   5.346  16.971  10.278  0.1211 -0.3936  0.0820
  318loPI   PO4 5076   5.905  17.078   9.854 -0.0849  0.1738 -0.1555
  318loPI   GL1 5077   6.000  17.234   9.480 -0.0141  0.1028  0.1809
  318loPI   GL2 5078   5.873  17.650   9.522  0.2268  0.0075  0.1353
  318loPI   C1A 5079   6.079  17.167   9.098 -0.2993 -0.0040  0.2344
  318loPI   C2A 5080   6.068  17.442   8.815  0.0112  0.0336 -0.0571
  318loPI   C3A 5081   6.028  17.572   8.379 -0.1192 -0.0270 -0.2752
  318loPI   C4A 5082   5.939  17.847   8.009  0.1605  0.1741  0.0496
  318loPI   C5A 5083   5.747  18.137   7.832  0.3539  0.0127 -0.0987
  318loPI   C6A 5084   5.564  18.557   7.960 -0.0737 -0.2243 -0.0680
  318loPI   C1B 5085   5.695  17.510   9.155 -0.1077 -0.1519 -0.3792
  318loPI   C2B 5086   5.593  17.089   9.059 -0.1480 -0.4485 -0.0060
  318loPI   C3B 5087   5.436  16.944   8.725 -0.2069 -0.0182 -0.3237
  318loPI   C4B 5088   5.561  16.880   8.354 -0.2041 -0.0530  0.0077
  319loPI    C1 5089   3.072   9.249   9.507  0.0156  0.3317 -0.0926
  319loPI    C2 5090   2.914   9.599   9.620 -0.3392  0.1382  0.0270
  319loPI    C3 5091   3.093   9.364   9.890 -0.1421  0.2046 -0.0445
  319loPI   PO4 5092   2.860   9.106   9.450 -0.4392  0.1241 -0.1635
  319loPI   GL1 5093   3.006   9.019   9.041  0.2046 -0.2451 -0.0082
  319loPI   GL2 5094   2.735   8.916   8.784  0.1180  0.0871  0.1792
  319loPI   C1A 5095   3.275   9.008   8.718 -0.0291 -0.0572  0.0261
  319loPI   C2A 5096   3.325   9.097   8.306 -0.2691 -0.1065  0.2217
  319loPI   C3A 5097   3.272   9.100   8.001 -0.1974 -0.0477  0.0474
  319loPI   C4A 5098   3.358   9.049   7.598  0.1022 -0.4001 -0.0079
  319loPI   C5A 5099   3.230   9.033   7.159 -0.0466  0.0199 -0.0812
  319loPI   C6A 5100   2.856   9.188   6.962  0.1807 -0.0140  0.1163
  319loPI   C1B 5101   2.852   8.883   8.340 -0.0299 -0.0135 -0.0306
  319loPI   C2B 5102   2.834   8.852   7.931 -0.3420  0.2804 -0.1001
  319loPI   C3B 5103   2.781   9.040   7.585  0.1436 -0.2271 -0.1759
  319loPI   C4B 5104   2.569   9.256   7.366 -0.1615  0.3005  0.0633
  320loPI    C1 5105   9.801  15.534  10.358 -0.0781 -0.0199 -0.0703
  320loPI    C2 5106   9.893  15.313  10.678  0.0350 -0.0162 -0.1001
  320loPI    C3 5107   9.546  15.510  10.665 -0.0688 -0.1949 -0.0754
  320loPI   PO4 5108   9.889  15.417  10.057 -0.2179 -0.0968 -0.0098
  320loPI   GL1 5109   9.793  15.506   9.584 -0.4255  0.0746  0.2279
  320loPI   GL2 5110  10.033  15.798   9.627  0.1073  0.0303 -0.6454
  320loPI   C1A 5111   9.564  15.090   9.317 -0.2503  0.1342  0.1097
  320loPI   C2A 5112   9.407  14.912   8.962  0.2099  0.0269 -0.0489
  320loPI   C3A 5113   9.223  14.917   8.491  0.4276 -0.0748 -0.1210
  320loPI   C4A 5114   9.406  14.767   8.096  0.0412  0.2922  0.2279
  320loPI   C5A 5115   9.247  14.522   7.694 -0.0212  0.0622  0.2253
  320loPI   C6A 5116   8.990  14.189   7.394 -0.1198 -0.2628  0.0357
  320loPI   C1B 5117  10.276  15.777   9.241 -0.1187  0.1906  0.1053
  320loPI   C2B 5118  10.231  15.879   8.809 -0.2281 -0.1395 -0.0921
  320loPI   C3B 5119  10.178  15.857   8.354  0.1295 -0.3132 -0.0040
  320loPI   C4B 5120   9.984  15.703   8.053 -0.2431  0.0048 -0.2255
  321loPI    C1 5121  10.137   9.786   9.786 -0.2388 -0.0685  0.0696
  321loPI    C2 5122  10.298  10.044  10.045 -0.0941  0.0578 -0.1428
  321loPI    C3 5123  10.124   9.710  10.178  0.0647  0.0729  0.1100
  321loPI   PO4 5124  10.197   9.778   9.594  0.0798  0.1327  0.2232
  321loPI   GL1 5125  10.148   9.671   9.224  0.1347 -0.0438 -0.2365
  321loPI   GL2 5126   9.935   9.444   9.070 -0.0767  0.1297  0.0667
  321loPI   C1A 5127  10.023   9.892   8.813  0.1084 -0.0792  0.2414
  321loPI   C2A 5128  10.042   9.836   8.393  0.0495  0.2288  0.2242
  321loPI   C3A 5129   9.951   9.883   8.017  0.1981  0.0856  0.1535
  321loPI   C4A 5130  10.027   9.585   7.702 -0.1249  0.2838 -0.0293
  321loPI   C5A 5131  10.080   9.172   7.479 -0.2476  0.1515 -0.2582
  321loPI   C6A 5132  10.276   8.850   7.324  0.0726  0.2086 -0.0661
  321loPI   C1B 5133   9.743   9.482   8.707  0.1666 -0.0839 -0.3735
  321loPI   C2B 5134   9.726   9.421   8.290  0.3488 -0.1539  0.3604
  321loPI   C3B 5135   9.655   9.174   7.874 -0.1106  0.0296 -0.1580
  321loPI   C4B 5136   9.472   8.847   7.703  0.1098 -0.1487 -0.0820
  322loPI    C1 5137  15.070  14.417  10.417  0.1894  0.0470 -0.0006
  322loPI    C2 5138  14.809  14.683  10.562  0.0260 -0.1774  0.1235
  322loPI    C3 5139  15.117  14.564  10.786  0.0552 -0.1507  0.0973
  322loPI   PO4 5140  15.050  14.469  10.153 -0.1097 -0.3262  0.1006
  322loPI   GL1 5141  15.242  14.310   9.903 -0.1141 -0.2971 -0.4053
  322loPI   GL2 5142  15.147  14.585   9.638 -0.2260 -0.2915 -0.1471
  322loPI   C1A 5143  15.273  14.057   9.519 -0.1954  0.1164 -0.3079
  322loPI   C2A 5144  15.334  14.073   9.064 -0.1898  0.0309 -0.0774
  322loPI   C3A 5145  15.188  14.128   8.729 -0.1780  0.0331  0.0835
  322loPI   C4A 5146  15.176  14.050   8.244 -0.0337 -0.1141  0.2674
  322loPI   C5A 5147  15.099  13.911   7.803 -0.1066 -0.1672  0.3379
  322loPI   C6A 5148  14.803  13.846   7.593 -0.1146 -0.0835 -0.2587
  322loPI   C1B 5149  15.074  14.437   9.342 -0.1735  0.2444 -0.2317
  322loPI   C2B 5150  15.008  14.539   8.946 -0.0408 -0.1623 -0.0572
  322loPI   C3B 5151  14.944  14.558   8.440  0.1144  0.3127 -0.1296
  322loPI   C4B 5152  15.085  14.726   7.994  0.1300  0.0349  0.0015
  323loPI    C1 5153   4.922   5.359  10.615  0.0231  0.0484 -0.0591
  323loPI    C2 5154   5.208   5.134  10.780 -0.0059  0.0388 -0.0219
  323loPI    C3 5155   5.264   5.528  10.735  0.0132  0.0369 -0.0149
  323loPI   PO4 5156   4.835   5.175  10.445  0.0421  0.2084  0.1319
  323loPI   GL1 5157   4.834   5.100   9.939  0.0443  0.0406 -0.1112
  323loPI   GL2 5158   4.961   4.777   9.872 -0.2197  0.3831  0.1239
  323loPI   C1A 5159   4.614   4.963   9.523  0.3682 -0.1428  0.0425
  323loPI   C2A 5160   4.368   5.060   9.090  0.0004 -0.4503 -0.2283
  323loPI   C3A 5161   4.230   5.185   8.685 -0.1919  0.3664 -0.0810
  323loPI   C4A 5162   4.219   5.261   8.311  0.4514 -0.3100  0.1854
  323loPI   C5A 5163   4.527   5.340   8.012 -0.1738 -0.1624 -0.1978
  323loPI   C6A 5164   4.931   5.500   7.831  0.2823 -0.0427  0.1186
  323loPI   C1B 5165   5.218   4.486   9.642  0.0975  0.2116 -0.1183
  323loPI   C2B 5166   5.426   4.296   9.197  0.1415  0.2431 -0.1178
  323loPI   C3B 5167   5.370   4.087   8.860 -0.1132 -0.2307 -0.2269
  323loPI   C4B 5168   5.390   4.216   8.469  0.2970  0.2021 -0.1035
  324loPI    C1 5169  14.125   0.596   9.445 -0.1129  0.3563  0.5649
  324loPI    C2 5170  13.853   0.794   9.229 -0.1418 -0.1245  0.1416
  324loPI    C3 5171  14.241   0.884   9.193 -0.1533 -0.1494 -0.0569
  324loPI   PO4 5172  14.176   0.378   9.372  0.1095 -0.2658  0.0038
  324loPI   GL1 5173  14.013   0.313   9.002 -0.1878  0.0347  0.1406
  324loPI   GL2 5174  14.085   0.506   8.887 -0.3665 -0.0739 -0.4105
  324loPI   C1A 5175  13.853   0.193   8.587 -0.3014  0.3068  0.2216
  324loPI   C2A 5176  13.968   0.252   8.101  0.3881  0.3350 -0.0885
  324loPI   C3A 5177  14.262   0.258   7.763 -0.2732  0.0558  0.2553
  324loPI   C4A 5178  14.281   0.343   7.291  0.0124 -0.0534 -0.1072
  324loPI   C5A 5179  14.322   0.546   6.854  0.1371  0.2775 -0.1387
  324loPI   C6A 5180  14.451   0.823   6.702  0.2078 -0.1831  0.3021
  324loPI   C1B 5181  14.281   0.608   8.444  0.2491 -0.2123  0.1410
  324loPI   C2B 5182  14.415   0.706   8.026 -0.0506 -0.2584 -0.2613
  324loPI   C3B 5183  14.419   0.793   7.631 -0.2287  0.1677  0.2762
  324loPI   C4B 5184  14.292   1.076   7.365 -0.0255 -0.0312  0.0578
  325loPI    C1 5185   6.079  14.684   9.947 -0.0293  0.2955 -0.0080
  325loPI    C2 5186   6.417  14.590  10.138 -0.0745 -0.0838 -0.1081
  325loPI    C3 5187   6.064  14.483  10.293 -0.1411  0.1397 -0.1025
  325loPI   PO4 5188   6.149  14.797   9.682  0.1939  0.1018 -0.0423
  325loPI   GL1 5189   6.323  14.888   9.212 -0.1108  0.1390 -0.1032
  325loPI   GL2 5190   6.522  15.135   9.393  0.0323 -0.0474  0.1233
  325loPI   C1A 5191   6.650  14.837   8.942  0.1619  0.2809 -0.0784
  325loPI   C2A 5192   6.682  14.844   8.494  0.0301 -0.1003 -0.0091
  325loPI   C3A 5193   6.840  14.640   8.141  0.3276  0.1145  0.1500
  325loPI   C4A 5194   7.010  14.737   7.732  0.0096 -0.0675 -0.0222
  325loPI   C5A 5195   6.924  15.060   7.493  0.0431  0.0655  0.2407
  325loPI   C6A 5196   6.722  15.491   7.609  0.0287  0.2148 -0.1399
  325loPI   C1B 5197   6.515  15.323   8.979  0.2524  0.0135  0.1240
  325loPI   C2B 5198   6.637  15.433   8.597 -0.1918 -0.0194 -0.2504
  325loPI   C3B 5199   6.540  15.475   8.224  0.3016 -0.2337 -0.0869
  325loPI   C4B 5200   6.273  15.718   7.825 -0.2718  0.1046  0.0095
  326loPI    C1 5201  17.756   5.029   9.816  0.1589  0.1779  0.0956
  326loPI    C2 5202  18.134   5.081   9.695  0.1691  0.2051  0.1399
  326loPI    C3 5203  17.940   5.379   9.879  0.1105  0.2071  0.0750
  326loPI   PO4 5204  17.706   4.866   9.651 -0.1087  0.4383 -0.1077
  326loPI   GL1 5205  17.821   4.899   9.298  0.0643 -0.0536 -0.0695
  326loPI   GL2 5206  18.067   5.013   9.198  0.0895 -0.2249 -0.2100
  326loPI   C1A 5207  17.696   4.767   8.838  0.2270 -0.1005  0.0500
  326loPI   C2A 5208  17.979   4.835   8.375 -0.1562  0.1023  0.1411
  326loPI   C3A 5209  17.881   5.146   8.010 -0.0972  0.0211 -0.3209
  326loPI   C4A 5210  17.517   5.347   7.910 -0.2780 -0.0259 -0.2550
  326loPI   C5A 5211  17.402   5.531   7.565 -0.1581  0.0256  0.3335
  326loPI   C6A 5212  17.144   5.849   7.365 -0.0248 -0.1247 -0.1344
  326loPI   C1B 5213  18.288   4.993   8.807  0.0101  0.3866  0.0861
  326loPI   C2B 5214  18.499   4.938   8.497 -0.0039 -0.0132 -0.2834
  326loPI   C3B 5215  18.613   4.941   8.026  0.2010 -0.3063  0.0650
  326loPI   C4B 5216  18.659   5.064   7.534  0.3032 -0.2859  0.1994
  327loPI    C1 5217   7.412   2.161   9.850  0.0855  0.1234  0.0868
  327loPI    C2 5218   7.661   2.421  10.025  0.2467 -0.1092  0.2094
  327loPI    C3 5219   7.285   2.529   9.942  0.3549  0.2109  0.1200
  327loPI   PO4 5220   7.520   2.077   9.632  0.1971  0.2026 -0.2703
  327loPI   GL1 5221   7.730   1.913   9.322 -0.0629 -0.0538  0.0254
  327loPI   GL2 5222   7.833   1.647   9.247  0.1543  0.1420 -0.3532
  327loPI   C1A 5223   7.916   2.135   8.934  0.2802  0.1566 -0.0715
  327loPI   C2A 5224   8.073   2.011   8.493  0.0546 -0.0577  0.1019
  327loPI   C3A 5225   8.112   2.221   8.091 -0.1565  0.2970 -0.0739
  327loPI   C4A 5226   8.304   2.191   7.725 -0.3798  0.2448  0.2172
  327loPI   C5A 5227   8.578   2.317   7.453  0.1612  0.0428  0.3863
  327loPI   C6A 5228   8.949   2.462   7.232  0.1149 -0.2035 -0.0192
  327loPI   C1B 5229   7.723   1.480   8.874 -0.0279  0.2017  0.0943
  327loPI   C2B 5230   7.563   1.416   8.403 -0.1157 -0.1200 -0.0116
  327loPI   C3B 5231   7.656   1.343   7.886 -0.2280  0.2129 -0.1600
  327loPI   C4B 5232   7.371   1.496   7.577 -0.2870 -0.1935  0.1011
  328loPI    C1 5233   7.467   6.476   9.659  0.2843  0.0780  0.0031
  328loPI    C2 5234   7.499   6.206   9.953  0.0384 -0.0496 -0.0837
  328loPI    C3 5235   7.618   6.583  10.014  0.0568 -0.0924  0.1546
  328loPI   PO4 5236   7.271   6.396   9.524 -0.0758 -0.4592  0.2496
  328loPI   GL1 5237   6.819   6.386   9.376 -0.2617 -0.2350 -0.0305
  328loPI   GL2 5238   6.752   6.690   9.513  0.2628  0.1811  0.2862
  328loPI   C1A 5239   6.933   6.190   8.968  0.2005  0.2021  0.2524
  328loPI   C2A 5240   7.177   6.284   8.518 -0.0245  0.4878  0.0926
  328loPI   C3A 5241   7.172   6.416   8.101 -0.0701  0.1443 -0.0133
  328loPI   C4A 5242   7.256   6.198   7.620  0.1851  0.0864 -0.0487
  328loPI   C5A 5243   7.572   6.128   7.328 -0.0720 -0.0072  0.1519
  328loPI   C6A 5244   7.791   6.067   6.916 -0.0119 -0.1582  0.0997
  328loPI   C1B 5245   6.743   6.726   9.048 -0.0242 -0.1806 -0.0523
  328loPI   C2B 5246   6.664   6.480   8.648 -0.0137 -0.2186 -0.1822
  328loPI   C3B 5247   6.661   6.396   8.184  0.1534 -0.2339  0.3031
  328loPI   C4B 5248   6.421   6.092   8.004 -0.1657  0.0716  0.0564
  329loPI    C1 5249   5.330   2.405  10.272  0.1039 -0.2116  0.1229
  329loPI    C2 5250   5.162   2.442  10.633  0.0804  0.0653  0.0856
  329loPI    C3 5251   5.492   2.649  10.544  0.1524 -0.0904 -0.0135
  329loPI   PO4 5252   5.115   2.449  10.142 -0.1694 -0.5236 -0.2235
  329loPI   GL1 5253   4.689   2.531   9.876  0.1173 -0.3132  0.0547
  329loPI   GL2 5254   4.778   2.898   9.872 -0.1800  0.2592  0.2194
  329loPI   C1A 5255   4.714   2.417   9.462  0.0073  0.1016 -0.3732
  329loPI   C2A 5256   4.748   2.368   9.101 -0.1124  0.0424  0.1091
  329loPI   C3A 5257   4.808   2.377   8.626  0.1557  0.1606 -0.2574
  329loPI   C4A 5258   4.914   2.580   8.214  0.1487 -0.0674 -0.2932
  329loPI   C5A 5259   4.853   2.749   7.792 -0.0643  0.1001  0.1818
  329loPI   C6A 5260   4.422   2.783   7.636  0.0105 -0.1368  0.0992
  329loPI   C1B 5261   4.915   2.871   9.438 -0.1128 -0.1745  0.3325
  329loPI   C2B 5262   4.828   2.849   8.906 -0.1033  0.1023 -0.0985
  329loPI   C3B 5263   4.705   2.922   8.561 -0.2127 -0.3752 -0.0230
  329loPI   C4B 5264   4.456   2.826   8.145 -0.1488  0.1600 -0.0114
  330loPI    C1 5265   0.343   5.671   9.615 -0.2189 -0.1352 -0.1953
  330loPI    C2 5266   0.517   5.502   9.934  0.2145  0.6278 -0.0014
  330loPI    C3 5267   0.124   5.580   9.937  0.0955  0.0656  0.0820
  330loPI   PO4 5268   0.417   5.851   9.542 -0.1382  0.2154  0.3086
  330loPI   GL1 5269   0.576   5.734   9.146  0.2114 -0.0509  0.3568
  330loPI   GL2 5270   0.379   5.407   9.215 -0.0883  0.4135  0.1222
  330loPI   C1A 5271   0.739   5.615   8.806  0.1741 -0.3101 -0.0010
  330loPI   C2A 5272   0.825   5.719   8.333  0.3693  0.1172 -0.0030
  330loPI   C3A 5273   0.729   5.732   8.035 -0.1797  0.3326 -0.0478
  330loPI   C4A 5274   0.520   5.572   7.625 -0.2041  0.2275  0.0779
  330loPI   C5A 5275   0.191   5.761   7.285 -0.1100  0.0271 -0.2328
  330loPI   C6A 5276   0.015   5.850   6.889  0.2166 -0.1128  0.1009
  330loPI   C1B 5277   0.285   5.366   8.833 -0.3802 -0.0904  0.2079
  330loPI   C2B 5278   0.311   5.327   8.377 -0.0695  0.0355  0.3015
  330loPI   C3B 5279   0.317   5.253   7.936  0.0615 -0.3642 -0.2331
  330loPI   C4B 5280   0.404   4.903   7.549 -0.0636 -0.1589 -0.1174
  331loPI    C1 5281   8.624   5.507   9.641 -0.1510  0.0417 -0.0330
  331loPI    C2 5282   8.600   5.269   9.321 -0.2616 -0.1668  0.1282
  331loPI    C3 5283   8.656   5.111   9.684 -0.1414  0.0677  0.2136
  331loPI   PO4 5284   8.840   5.736   9.501 -0.1613 -0.0387 -0.3570
  331loPI   GL1 5285   9.198   5.747   9.228 -0.1860 -0.2622 -0.3470
  331loPI   GL2 5286   9.481   5.648   9.322  0.0715 -0.0025  0.1069
  331loPI   C1A 5287   9.017   5.600   8.765  0.2914  0.0308 -0.1306
  331loPI   C2A 5288   8.986   5.640   8.302 -0.0196  0.1754  0.2645
  331loPI   C3A 5289   9.031   5.886   7.960 -0.4058 -0.1174  0.2261
  331loPI   C4A 5290   9.250   6.233   7.740 -0.0634  0.0778  0.1965
  331loPI   C5A 5291   9.321   6.232   7.280  0.0293  0.0331  0.1714
  331loPI   C6A 5292   9.477   6.337   6.870  0.1736 -0.2890  0.1983
  331loPI   C1B 5293   9.567   5.665   8.904  0.3411  0.0910 -0.0809
  331loPI   C2B 5294   9.585   5.697   8.482  0.0457 -0.2237  0.2128
  331loPI   C3B 5295   9.506   5.737   8.055  0.1214 -0.1645 -0.2611
  331loPI   C4B 5296   9.272   5.639   7.632  0.2145 -0.1080 -0.1574
  332loPI    C1 5297   1.586  10.877   9.775 -0.1164 -0.1184 -0.1731
  332loPI    C2 5298   1.406  11.204   9.920 -0.2607 -0.2410 -0.0734
  332loPI    C3 5299   1.500  10.902  10.165  0.2328 -0.1115 -0.0938
  332loPI   PO4 5300   1.398  10.889   9.528  0.0599 -0.1213 -0.3307
  332loPI   GL1 5301   1.380  10.853   9.081 -0.2181  0.0930  0.3552
  332loPI   GL2 5302   1.617  10.649   8.975 -0.2262 -0.1315  0.4327
  332loPI   C1A 5303   1.152  11.097   8.802  0.0915  0.0172  0.0381
  332loPI   C2A 5304   1.312  11.247   8.444 -0.0498  0.1548 -0.1977
  332loPI   C3A 5305   1.662  11.247   8.102 -0.2404 -0.0536 -0.3474
  332loPI   C4A 5306   1.540  11.316   7.683  0.2624  0.1423  0.1435
  332loPI   C5A 5307   1.279  11.344   7.368  0.4370  0.0379 -0.2321
  332loPI   C6A 5308   1.036  11.605   7.120  0.2742 -0.1804 -0.0823
  332loPI   C1B 5309   1.583  10.800   8.466 -0.0948  0.4263 -0.1282
  332loPI   C2B 5310   1.691  10.736   8.056  0.3384 -0.2168  0.0112
  332loPI   C3B 5311   1.885  10.869   7.660  0.0213 -0.0927 -0.0554
  332loPI   C4B 5312   1.929  11.061   7.327  0.1569 -0.1971 -0.0121
  333loPI    C1 5313   3.264   6.041  10.130 -0.2522 -0.0972 -0.1240
  333loPI    C2 5314   2.985   6.123  10.405 -0.1164 -0.1129  0.0199
  333loPI    C3 5315   3.293   6.373  10.352 -0.0691 -0.1798 -0.0226
  333loPI   PO4 5316   3.071   5.996   9.915 -0.4349 -0.1233 -0.0641
  333loPI   GL1 5317   3.233   5.664   9.619  0.0598 -0.3864  0.2809
  333loPI   GL2 5318   3.466   5.815   9.688 -0.1087  0.2133  0.1165
  333loPI   C1A 5319   3.527   5.443   9.316 -0.1900  0.0224  0.1041
  333loPI   C2A 5320   3.582   4.966   9.163 -0.0258 -0.0119  0.1633
  333loPI   C3A 5321   3.917   4.848   8.939 -0.0426 -0.4585 -0.2689
  333loPI   C4A 5322   4.004   4.728   8.588 -0.0406  0.1588  0.0788
  333loPI   C5A 5323   3.919   4.708   8.205 -0.0835 -0.2908 -0.1441
  333loPI   C6A 5324   3.933   4.449   7.854 -0.2684 -0.1282  0.1589
  333loPI   C1B 5325   3.460   5.960   9.213 -0.0062  0.0373 -0.0219
  333loPI   C2B 5326   3.583   5.854   8.801 -0.2145  0.1263  0.1065
  333loPI   C3B 5327   3.597   5.921   8.444  0.0805  0.0464 -0.1072
  333loPI   C4B 5328   3.670   6.047   8.045  0.0405 -0.1847  0.1635
  334loPI    C1 5329  11.997  13.278  10.610  0.0632  0.1302 -0.0459
  334loPI    C2 5330  11.598  13.264  10.585  0.0655 -0.0147 -0.0116
  334loPI    C3 5331  11.805  12.932  10.671  0.1898  0.0715  0.0253
  334loPI   PO4 5332  12.043  13.369  10.392  0.3085 -0.1774  0.0168
  334loPI   GL1 5333  11.831  13.556  10.053 -0.0856  0.1400 -0.0141
  334loPI   GL2 5334  12.070  13.676  10.008 -0.0356  0.1160 -0.1807
  334loPI   C1A 5335  12.018  13.292   9.661 -0.2333  0.2770 -0.0226
  334loPI   C2A 5336  11.936  12.934   9.460 -0.1378  0.0278  0.1942
  334loPI   C3A 5337  11.824  12.836   8.998  0.0851  0.2401 -0.1996
  334loPI   C4A 5338  11.663  12.704   8.657  0.1757 -0.1924  0.2694
  334loPI   C5A 5339  11.847  12.576   8.215 -0.2192 -0.1628  0.0972
  334loPI   C6A 5340  11.876  12.600   7.817  0.1093  0.0837 -0.0721
  334loPI   C1B 5341  12.150  13.893   9.589 -0.3896 -0.2430 -0.0047
  334loPI   C2B 5342  12.246  13.872   9.135  0.0365 -0.1751 -0.0525
  334loPI   C3B 5343  12.247  13.659   8.737  0.0765 -0.0344 -0.1584
  334loPI   C4B 5344  12.460  13.601   8.374  0.0913 -0.2488 -0.1770
  335loPI    C1 5345   4.901  15.041   9.803  0.1617  0.0318 -0.0783
  335loPI    C2 5346   5.155  15.053  10.112 -0.0963  0.0558  0.1371
  335loPI    C3 5347   4.870  14.773  10.099 -0.0980  0.0655 -0.0723
  335loPI   PO4 5348   5.032  15.128   9.624 -0.2439  0.1141  0.0210
  335loPI   GL1 5349   5.036  15.281   9.218 -0.1470  0.0745 -0.0313
  335loPI   GL2 5350   5.161  15.558   9.280 -0.1342  0.0721  0.0756
  335loPI   C1A 5351   5.089  15.270   8.733 -0.2834 -0.5060  0.3486
  335loPI   C2A 5352   5.172  15.244   8.318 -0.1147  0.1073 -0.1918
  335loPI   C3A 5353   4.942  15.352   8.014  0.1006 -0.0219  0.2026
  335loPI   C4A 5354   4.602  15.235   7.726 -0.2157 -0.3010 -0.2394
  335loPI   C5A 5355   4.324  15.155   7.428  0.2416  0.0967  0.2276
  335loPI   C6A 5356   4.313  15.512   7.249 -0.0620 -0.1231 -0.1166
  335loPI   C1B 5357   4.997  15.709   8.963 -0.0884  0.2023  0.5046
  335loPI   C2B 5358   4.926  15.735   8.458 -0.0059 -0.2201 -0.1037
  335loPI   C3B 5359   4.935  15.869   8.041 -0.3384 -0.0992 -0.1199
  335loPI   C4B 5360   5.106  16.021   7.650  0.2085  0.3320 -0.1363
  336loPI    C1 5361   6.781   2.581  10.116  0.0517 -0.3254 -0.0336
  336loPI    C2 5362   6.769   2.315  10.415 -0.2336 -0.0301  0.2247
  336loPI    C3 5363   7.056   2.593  10.407 -0.3892  0.1387  0.3846
  336loPI   PO4 5364   6.750   2.398   9.907 -0.0268  0.0562  0.1649
  336loPI   GL1 5365   6.457   2.421   9.541  0.1079  0.2436 -0.2710
  336loPI   GL2 5366   6.597   2.480   9.344 -0.4921  0.3460  0.3455
  336loPI   C1A 5367   6.343   2.105   9.214  0.3931 -0.0969  0.1358
  336loPI   C2A 5368   6.426   1.844   8.955 -0.1265 -0.1949 -0.0954
  336loPI   C3A 5369   6.096   1.891   8.574 -0.0502  0.0785  0.0357
  336loPI   C4A 5370   5.976   1.999   8.155  0.0900  0.0568 -0.2593
  336loPI   C5A 5371   5.990   1.909   7.722  0.1447 -0.0258  0.1851
  336loPI   C6A 5372   5.661   1.792   7.479  0.3929 -0.1498  0.0533
  336loPI   C1B 5373   6.806   2.246   9.013 -0.4708  0.2275  0.0574
  336loPI   C2B 5374   7.074   1.998   8.790  0.0645 -0.3295 -0.1903
  336loPI   C3B 5375   7.091   1.672   8.460  0.0937  0.0159 -0.1775
  336loPI   C4B 5376   6.810   1.579   8.136  0.0354 -0.1136 -0.0348
  337loPI    C1 5377  18.099  12.450   9.640  0.0239  0.0212  0.0070
  337loPI    C2 5378  17.712  12.519   9.715 -0.0918 -0.1772 -0.3786
  337loPI    C3 5379  17.902  12.222   9.903 -0.0135  0.1702  0.1092
  337loPI   PO4 5380  18.242  12.849   9.681 -0.1201  0.2216 -0.2809
  337loPI   GL1 5381  18.604  12.977   9.470  0.0967  0.0889  0.0476
  337loPI   GL2 5382  18.903  13.101   9.356  0.2353 -0.0841  0.6359
  337loPI   C1A 5383  18.678  12.928   8.995 -0.2864  0.1190  0.1781
  337loPI   C2A 5384  18.671  12.904   8.530  0.2334 -0.0803 -0.2223
  337loPI   C3A 5385  18.667  13.000   8.102  0.0061 -0.1914 -0.1614
  337loPI   C4A 5386  18.490  12.824   7.726  0.2350 -0.1012 -0.2050
  337loPI   C5A 5387  18.240  12.664   7.406  0.0853 -0.2368  0.0242
  337loPI   C6A 5388  17.825  12.603   7.206 -0.0350 -0.1538  0.1678
  337loPI   C1B 5389  19.096  13.383   8.985  0.0848 -0.1813  0.1213
  337loPI   C2B 5390  18.873  13.309   8.665  0.1453  0.1197  0.0902
  337loPI   C3B 5391  18.562  13.458   8.322  0.3473  0.4653 -0.1838
  337loPI   C4B 5392  18.685  13.571   7.937  0.0486  0.2289  0.0593
  338loPI    C1 5393   6.939  10.421  10.055 -0.0391 -0.0131 -0.2959
  338loPI    C2 5394   7.245  10.591  10.248  0.0449 -0.3099 -0.1615
  338loPI    C3 5395   6.872  10.720  10.312  0.1222 -0.0695 -0.1866
  338loPI   PO4 5396   6.978  10.424   9.854  0.2609  0.2418 -0.0141
  338loPI   GL1 5397   7.164  10.184   9.659 -0.3111  0.1392 -0.2511
  338loPI   GL2 5398   7.008   9.807   9.578 -0.2236  0.1542  0.0374
  338loPI   C1A 5399   7.448   9.904   9.352 -0.1373 -0.0815  0.1700
  338loPI   C2A 5400   7.420   9.748   8.907 -0.0662  0.1028  0.1957
  338loPI   C3A 5401   7.627   9.742   8.499  0.3409  0.3044  0.0815
  338loPI   C4A 5402   7.690   9.600   8.085  0.0926  0.0489 -0.0380
  338loPI   C5A 5403   7.666   9.243   7.898  0.1830  0.0248 -0.0198
  338loPI   C6A 5404   7.644   8.917   7.859 -0.1154 -0.0270  0.2925
  338loPI   C1B 5405   7.250   9.414   9.312 -0.0518  0.1354 -0.1572
  338loPI   C2B 5406   7.450   9.150   8.984  0.0538 -0.0236  0.0126
  338loPI   C3B 5407   7.641   8.883   8.599  0.1508 -0.0166 -0.0839
  338loPI   C4B 5408   7.753   8.674   8.266 -0.0810 -0.0332 -0.2099
  339loPI    C1 5409  18.425  12.208   9.912 -0.0665 -0.0361 -0.3578
  339loPI    C2 5410  18.635  12.484   9.713  0.0254  0.0860 -0.0967
  339loPI    C3 5411  18.444  12.583  10.050 -0.0255 -0.1470 -0.0554
  339loPI   PO4 5412  18.418  12.005   9.698 -0.1019 -0.0762  0.0796
  339loPI   GL1 5413  18.136  12.057   9.329  0.3912  0.0240  0.2827
  339loPI   GL2 5414  17.874  12.214   9.158  0.0105  0.1167  0.1479
  339loPI   C1A 5415  18.427  12.084   8.866 -0.1610  0.1083  0.0318
  339loPI   C2A 5416  18.353  12.134   8.327  0.4014 -0.0521  0.2205
  339loPI   C3A 5417  18.167  11.971   7.933  0.0287  0.2370 -0.2281
  339loPI   C4A 5418  18.141  11.996   7.510  0.1105  0.1654  0.0097
  339loPI   C5A 5419  18.424  12.265   7.211 -0.0999  0.3510  0.2072
  339loPI   C6A 5420  18.420  12.599   6.959  0.1601  0.0835  0.1646
  339loPI   C1B 5421  17.853  12.190   8.716 -0.0189  0.3875 -0.0585
  339loPI   C2B 5422  17.762  12.261   8.322  0.3152 -0.2827 -0.1444
  339loPI   C3B 5423  17.757  12.196   7.889 -0.0104  0.1846 -0.0328
  339loPI   C4B 5424  17.823  12.320   7.591  0.0957 -0.2058  0.2627
  340loPI    C1 5425  10.009   2.158   9.972 -0.3480 -0.0819  0.1933
  340loPI    C2 5426   9.924   2.524  10.109 -0.0847  0.0070  0.1261
  340loPI    C3 5427   9.891   2.207  10.351  0.1078  0.1284  0.3151
  340loPI   PO4 5428   9.949   2.232   9.692  0.0857  0.0035  0.0277
  340loPI   GL1 5429   9.664   2.502   9.369 -0.2740 -0.0862 -0.0257
  340loPI   GL2 5430   9.467   2.313   9.141  0.2997  0.0669  0.1388
  340loPI   C1A 5431   9.931   2.443   8.955 -0.1955 -0.0936  0.2400
  340loPI   C2A 5432  10.135   2.670   8.617  0.2192  0.3082 -0.0246
  340loPI   C3A 5433  10.195   2.888   8.220 -0.1246 -0.0324  0.0698
  340loPI   C4A 5434  10.306   2.930   7.810  0.0259  0.0790  0.0595
  340loPI   C5A 5435  10.642   3.190   7.653 -0.0275  0.2182  0.2448
  340loPI   C6A 5436  10.798   3.139   7.266 -0.0421  0.0535 -0.1760
  340loPI   C1B 5437   9.551   2.262   8.694  0.2734 -0.0481  0.0113
  340loPI   C2B 5438   9.606   2.031   8.340  0.1079  0.1105  0.0320
  340loPI   C3B 5439   9.639   1.681   8.063  0.0413 -0.1627 -0.3170
  340loPI   C4B 5440   9.661   1.248   7.798 -0.0269  0.0937  0.1498
  341loPI    C1 5441   7.727  10.820  10.251 -0.0816 -0.1737 -0.0009
  341loPI    C2 5442   8.046  10.593  10.168  0.0555  0.0209 -0.0137
  341loPI    C3 5443   7.987  10.726  10.541  0.0060  0.0112 -0.0180
  341loPI   PO4 5444   7.756  10.958  10.025 -0.0450  0.2162  0.1595
  341loPI   GL1 5445   8.023  11.056   9.695 -0.0983  0.0590  0.0308
  341loPI   GL2 5446   7.866  11.210   9.489  0.0014  0.0324 -0.0926
  341loPI   C1A 5447   8.311  11.233   9.403 -0.0210 -0.0780 -0.0773
  341loPI   C2A 5448   8.376  11.502   9.033 -0.2962  0.2574 -0.0523
  341loPI   C3A 5449   8.207  11.475   8.667 -0.0170 -0.0009  0.0409
  341loPI   C4A 5450   8.273  11.590   8.219  0.1486  0.2191  0.1598
  341loPI   C5A 5451   8.238  11.733   7.876 -0.0008  0.4090  0.0575
  341loPI   C6A 5452   8.404  11.938   7.396 -0.1243  0.0301  0.1625
  341loPI   C1B 5453   7.935  11.255   9.067 -0.1065  0.3809  0.0991
  341loPI   C2B 5454   8.021  11.036   8.644 -0.0873  0.1175 -0.0021
  341loPI   C3B 5455   8.053  11.107   8.187  0.0076  0.0354 -0.0056
  341loPI   C4B 5456   8.029  11.247   7.786  0.2883 -0.0119 -0.5455
  342loPI    C1 5457   2.867   1.188  10.550 -0.0210 -0.3900 -0.1837
  342loPI    C2 5458   2.481   1.118  10.632 -0.0224 -0.2557 -0.0718
  342loPI    C3 5459   2.583   1.417  10.386  0.0162 -0.2078  0.0019
  342loPI   PO4 5460   2.938   0.982  10.481  0.1726  0.0500  0.1717
  342loPI   GL1 5461   3.317   0.919  10.128 -0.2474 -0.2215 -0.0671
  342loPI   GL2 5462   3.479   1.236   9.996 -0.2232 -0.0966 -0.2392
  342loPI   C1A 5463   3.074   0.998   9.697  0.0866 -0.0747 -0.1414
  342loPI   C2A 5464   2.983   1.335   9.380 -0.0716  0.0523 -0.0551
  342loPI   C3A 5465   2.858   1.275   8.904  0.0983  0.1934 -0.1572
  342loPI   C4A 5466   3.122   1.208   8.554 -0.0175 -0.0844 -0.3353
  342loPI   C5A 5467   3.402   0.963   8.278  0.4736 -0.0122  0.3643
  342loPI   C6A 5468   3.808   1.007   8.159  0.1254 -0.4092 -0.1811
  342loPI   C1B 5469   3.601   0.972   9.662  0.0554  0.0620 -0.0844
  342loPI   C2B 5470   3.378   1.011   9.331  0.3247 -0.2105  0.1264
  342loPI   C3B 5471   3.487   1.025   8.884  0.3764 -0.0874 -0.2796
  342loPI   C4B 5472   3.866   0.893   8.630 -0.0934  0.2166 -0.3348
  343loPI    C1 5473  12.718  16.025   9.866  0.1319 -0.0587  0.0476
  343loPI    C2 5474  12.789  16.151  10.239  0.1959  0.1292 -0.0267
  343loPI    C3 5475  12.934  15.799  10.115  0.3688  0.1708  0.0551
  343loPI   PO4 5476  12.806  16.360   9.696 -0.0388  0.1719 -0.0097
  343loPI   GL1 5477  13.138  16.328   9.440 -0.0536 -0.0551 -0.0798
  343loPI   GL2 5478  13.421  16.443   9.562 -0.0594  0.1398  0.0779
  343loPI   C1A 5479  13.099  16.441   9.035  0.0617  0.0417  0.0320
  343loPI   C2A 5480  12.904  16.365   8.639  0.1798 -0.0004  0.0764
  343loPI   C3A 5481  12.871  15.968   8.393 -0.0351  0.0185  0.0114
  343loPI   C4A 5482  12.914  15.825   8.032  0.0577 -0.0225  0.1255
  343loPI   C5A 5483  12.954  15.609   7.546 -0.1689 -0.3218  0.0137
  343loPI   C6A 5484  13.242  15.420   7.284  0.1049 -0.0570  0.2820
  343loPI   C1B 5485  13.652  16.383   9.198  0.1106  0.0565 -0.0024
  343loPI   C2B 5486  13.770  16.393   8.706 -0.1157 -0.1558 -0.3107
  343loPI   C3B 5487  13.752  16.246   8.311  0.3142  0.1396  0.0284
  343loPI   C4B 5488  13.650  16.099   8.014  0.1663 -0.2511  0.2013
  344loPI    C1 5489   8.964   4.380   9.612 -0.0006 -0.1510  0.2941
  344loPI    C2 5490   8.734   4.654   9.433  0.1191 -0.1770  0.0972
  344loPI    C3 5491   9.039   4.769   9.664  0.1941 -0.1436 -0.0178
  344loPI   PO4 5492   8.978   4.196   9.420  0.1392 -0.0410  0.1773
  344loPI   GL1 5493   8.777   3.889   9.176 -0.1087  0.2100 -0.2077
  344loPI   GL2 5494   8.573   3.820   9.084  0.1373 -0.2477 -0.0216
  344loPI   C1A 5495   9.029   3.944   8.849 -0.0920 -0.3546 -0.0885
  344loPI   C2A 5496   9.057   3.830   8.403 -0.1005 -0.0284  0.4055
  344loPI   C3A 5497   9.108   3.842   7.938  0.0504  0.1605  0.0350
  344loPI   C4A 5498   8.835   3.932   7.594  0.0064 -0.0890 -0.1443
  344loPI   C5A 5499   8.458   3.904   7.450  0.1913 -0.1594  0.2902
  344loPI   C6A 5500   8.167   4.041   7.823 -0.1284 -0.1383 -0.0669
  344loPI   C1B 5501   8.216   3.696   8.842 -0.1126  0.2664 -0.3601
  344loPI   C2B 5502   8.116   3.578   8.421  0.1182  0.3433 -0.2688
  344loPI   C3B 5503   7.839   3.400   8.044 -0.3566  0.0383 -0.2998
  344loPI   C4B 5504   7.546   3.081   7.911 -0.1666 -0.1338 -0.0531
  345loPI    C1 5505   1.248   2.144  10.529 -0.1157 -0.1912  0.2997
  345loPI    C2 5506   1.602   2.189  10.710  0.0346 -0.1161 -0.0059
  345loPI    C3 5507   1.314   1.971  10.883  0.2949 -0.3353  0.1586
  345loPI   PO4 5508   1.331   1.993  10.291  0.1716 -0.1799 -0.1084
  345loPI   GL1 5509   1.301   2.244   9.927  0.2208 -0.2504  0.1117
  345loPI   GL2 5510   1.030   2.423  10.104 -0.0384  0.2028 -0.1957
  345loPI   C1A 5511   1.445   2.367   9.543 -0.1394 -0.2293 -0.0680
  345loPI   C2A 5512   1.581   2.416   9.086 -0.0518 -0.1399  0.0561
  345loPI   C3A 5513   1.599   2.683   8.834  0.0169 -0.0070 -0.1247
  345loPI   C4A 5514   1.716   2.735   8.369 -0.0862 -0.1514  0.1937
  345loPI   C5A 5515   1.836   2.636   7.880  0.3148  0.0214 -0.0925
  345loPI   C6A 5516   2.218   2.727   7.573  0.0757 -0.3062  0.0156
  345loPI   C1B 5517   0.973   2.510   9.691 -0.1140 -0.1821 -0.2880
  345loPI   C2B 5518   0.625   2.447   9.412  0.0131 -0.3523  0.1756
  345loPI   C3B 5519   0.341   2.483   8.989 -0.0601  0.3983  0.0312
  345loPI   C4B 5520   0.339   2.416   8.558 -0.3743  0.0785 -0.0876
  346loPI    C1 5521   5.457  11.624   9.727 -0.0822  0.1435 -0.0839
  346loPI    C2 5522   5.132  11.575   9.499 -0.2593 -0.0926  0.2114
  346loPI    C3 5523   5.433  11.312   9.478 -0.1566  0.0356  0.0568
  346loPI   PO4 5524   5.499  11.877   9.697  0.0769  0.0277 -0.0607
  346loPI   GL1 5525   5.393  11.923   9.242 -0.1953  0.0665  0.3282
  346loPI   GL2 5526   5.258  12.064   9.035  0.0604  0.1294  0.0577
  346loPI   C1A 5527   5.579  11.650   8.956  0.0675  0.2366 -0.2235
  346loPI   C2A 5528   5.908  11.528   8.691  0.2573 -0.1038 -0.0555
  346loPI   C3A 5529   6.238  11.518   8.411 -0.2848  0.0314 -0.0256
  346loPI   C4A 5530   6.276  11.559   7.910  0.3536 -0.0562  0.1081
  346loPI   C5A 5531   6.367  11.545   7.516 -0.1349  0.1723  0.0287
  346loPI   C6A 5532   6.522  11.661   7.111  0.2447  0.1694  0.0383
  346loPI   C1B 5533   5.232  12.154   8.672 -0.1028 -0.1059  0.0369
  346loPI   C2B 5534   5.284  12.328   8.275 -0.1021 -0.3632  0.0476
  346loPI   C3B 5535   5.231  12.201   7.752 -0.0412  0.4665  0.3190
  346loPI   C4B 5536   5.251  12.087   7.362 -0.0308  0.2252  0.0997
  347loPI    C1 5537   4.486   6.852   9.303  0.2468 -0.1728  0.0423
  347loPI    C2 5538   4.230   6.545   9.307  0.1541 -0.0988 -0.1213
  347loPI    C3 5539   4.284   6.764   9.637 -0.2020  0.0550 -0.1608
  347loPI   PO4 5540   4.425   6.962   9.056  0.0339 -0.0483 -0.1581
  347loPI   GL1 5541   4.261   6.770   8.873 -0.3153  0.2823  0.2208
  347loPI   GL2 5542   4.507   6.486   8.900  0.4007 -0.0885  0.1699
  347loPI   C1A 5543   4.133   6.922   8.424 -0.0452  0.1443 -0.1199
  347loPI   C2A 5544   4.094   6.910   8.000 -0.1113  0.4143  0.2947
  347loPI   C3A 5545   4.096   6.931   7.526  0.1119 -0.3502 -0.0998
  347loPI   C4A 5546   3.854   6.945   7.219 -0.2294  0.0588  0.1293
  347loPI   C5A 5547   3.476   7.046   7.086 -0.1819  0.1284 -0.1093
  347loPI   C6A 5548   2.939   6.930   7.059 -0.3855 -0.1859  0.0297
  347loPI   C1B 5549   4.504   6.457   8.482  0.3359  0.0881  0.1247
  347loPI   C2B 5550   4.466   6.338   8.037 -0.1471  0.1520 -0.1016
  347loPI   C3B 5551   4.399   6.544   7.593 -0.1836  0.1232 -0.2455
  347loPI   C4B 5552   4.093   6.499   7.271  0.0472 -0.0695 -0.1103
  348loPI    C1 5553   7.626  12.036   9.775 -0.3662 -0.0141 -0.0042
  348loPI    C2 5554   7.549  11.828  10.108 -0.0181 -0.0124  0.0809
  348loPI    C3 5555   7.426  12.207  10.076  0.1328  0.0565  0.2987
  348loPI   PO4 5556   7.818  12.074   9.697  0.1207  0.1680  0.1090
  348loPI   GL1 5557   8.197  11.875   9.533 -0.3199  0.3077 -0.2138
  348loPI   GL2 5558   8.024  11.807   9.352 -0.0088  0.2149  0.1930
  348loPI   C1A 5559   8.476  12.089   9.313 -0.0531 -0.1343 -0.0779
  348loPI   C2A 5560   8.546  12.108   8.825  0.3683  0.0197  0.0256
  348loPI   C3A 5561   8.493  12.036   8.316  0.2911 -0.0743 -0.0215
  348loPI   C4A 5562   8.710  11.894   7.878  0.1574 -0.0116  0.0426
  348loPI   C5A 5563   8.796  11.522   7.657  0.2618  0.3608 -0.3297
  348loPI   C6A 5564   9.116  11.290   7.390  0.1575 -0.2073  0.2343
  348loPI   C1B 5565   8.082  12.040   9.038  0.1464 -0.3022 -0.1470
  348loPI   C2B 5566   8.021  12.027   8.557  0.1142 -0.0538 -0.3340
  348loPI   C3B 5567   8.023  12.125   8.063 -0.1084  0.1484 -0.2861
  348loPI   C4B 5568   7.963  12.256   7.699  0.2813 -0.0466  0.1758
  349loPI    C1 5569   4.960  12.522   9.600 -0.0933  0.1174  0.0936
  349loPI    C2 5570   5.050  12.132   9.594 -0.4319  0.0373  0.0279
  349loPI    C3 5571   4.886  12.294   9.921 -0.0625  0.1817  0.1467
  349loPI   PO4 5572   4.854  12.577   9.398 -0.3622  0.1742 -0.0666
  349loPI   GL1 5573   4.888  12.416   9.063 -0.0113  0.1234  0.4902
  349loPI   GL2 5574   5.161  12.638   9.005  0.2820  0.1612 -0.1648
  349loPI   C1A 5575   4.946  12.603   8.590 -0.2631  0.0763 -0.0007
  349loPI   C2A 5576   4.647  12.638   8.258 -0.2838 -0.0312 -0.4313
  349loPI   C3A 5577   4.738  12.593   7.820 -0.2794  0.0859  0.1521
  349loPI   C4A 5578   4.714  12.471   7.373 -0.1219  0.1099 -0.1054
  349loPI   C5A 5579   4.795  12.160   7.166 -0.2356  0.0528 -0.0232
  349loPI   C6A 5580   4.807  11.910   6.924  0.0706 -0.2403  0.0060
  349loPI   C1B 5581   5.545  12.485   8.957 -0.2770 -0.2973  0.2554
  349loPI   C2B 5582   5.652  12.549   8.530 -0.1288 -0.1869  0.0751
  349loPI   C3B 5583   5.829  12.388   8.198  0.2549 -0.0708 -0.1583
  349loPI   C4B 5584   5.752  12.457   7.800  0.1083 -0.0877 -0.0997
  350loPI    C1 5585   9.419   3.386   9.396 -0.1174 -0.1685 -0.0107
  350loPI    C2 5586   9.374   3.433   9.790  0.0712 -0.0933  0.0031
  350loPI    C3 5587   9.741   3.425   9.631 -0.0042 -0.1280 -0.1705
  350loPI   PO4 5588   9.226   3.193   9.301 -0.0082  0.2815  0.3401
  350loPI   GL1 5589   9.077   3.435   8.984  0.0591 -0.3246 -0.0569
  350loPI   GL2 5590   8.952   3.091   8.891 -0.0768  0.0166 -0.1799
  350loPI   C1A 5591   8.720   3.561   8.669 -0.0716 -0.0133 -0.4231
  350loPI   C2A 5592   8.554   3.786   8.225  0.1313 -0.1570 -0.1246
  350loPI   C3A 5593   8.325   3.563   7.873 -0.1385 -0.1366  0.1260
  350loPI   C4A 5594   8.060   3.534   7.483 -0.0126 -0.0579  0.2879
  350loPI   C5A 5595   7.952   3.233   7.141  0.1509 -0.0761 -0.1559
  350loPI   C6A 5596   7.989   2.973   7.054 -0.0676  0.1335  0.0599
  350loPI   C1B 5597   8.982   2.994   8.546 -0.1343  0.0102  0.0383
  350loPI   C2B 5598   8.884   2.912   8.043 -0.1065 -0.1982  0.1785
  350loPI   C3B 5599   8.810   2.754   7.646 -0.0321  0.0050  0.0908
  350loPI   C4B 5600   8.861   2.988   7.208 -0.1348  0.0776  0.1770
  351loPI    C1 5601   9.616   3.939   9.932 -0.2695 -0.3062 -0.2728
  351loPI    C2 5602   9.441   3.706  10.205  0.0238 -0.0572  0.1385
  351loPI    C3 5603   9.460   4.102  10.262  0.1408 -0.0079 -0.2177
  351loPI   PO4 5604   9.586   3.883   9.633 -0.2160 -0.0274  0.0078
  351loPI   GL1 5605   9.875   3.720   9.289 -0.2369 -0.1082  0.2952
  351loPI   GL2 5606  10.115   3.540   9.086 -0.0145  0.1050 -0.0732
  351loPI   C1A 5607   9.723   3.906   8.969 -0.0175 -0.1117  0.0181
  351loPI   C2A 5608   9.695   3.766   8.557 -0.1049 -0.0673 -0.2442
  351loPI   C3A 5609   9.615   3.902   8.079 -0.4569 -0.1327  0.1400
  351loPI   C4A 5610   9.539   4.170   7.790  0.4061  0.0660  0.0633
  351loPI   C5A 5611   9.538   4.150   7.409  0.1503 -0.3452  0.3995
  351loPI   C6A 5612   9.459   3.745   7.073  0.1784  0.1249 -0.1520
  351loPI   C1B 5613  10.210   3.665   8.663 -0.0195  0.0444 -0.0322
  351loPI   C2B 5614  10.134   3.890   8.295  0.3660  0.0752 -0.1780
  351loPI   C3B 5615  10.096   3.980   7.860 -0.4231  0.1036  0.4858
  351loPI   C4B 5616   9.977   4.331   7.510 -0.3415  0.0416  0.2137
  352loPI    C1 5617  12.601   8.705  10.264  0.3530  0.0969 -0.1848
  352loPI    C2 5618  12.970   8.807  10.381  0.2068  0.0809  0.3104
  352loPI    C3 5619  12.744   8.572  10.613 -0.0398 -0.0868 -0.0888
  352loPI   PO4 5620  12.577   8.595   9.996 -0.0668  0.3957 -0.1567
  352loPI   GL1 5621  12.887   8.500   9.841 -0.1595  0.0109  0.3006
  352loPI   GL2 5622  12.832   8.375   9.571 -0.2450  0.2484 -0.1228
  352loPI   C1A 5623  13.192   8.657   9.480 -0.1444  0.0693 -0.1336
  352loPI   C2A 5624  13.136   8.481   9.021 -0.2036  0.1414 -0.3333
  352loPI   C3A 5625  13.130   8.506   8.608  0.0265  0.1758  0.1694
  352loPI   C4A 5626  13.064   8.314   8.098  0.1107  0.1496  0.1245
  352loPI   C5A 5627  13.141   8.219   7.705 -0.5151  0.3358  0.0328
  352loPI   C6A 5628  13.297   8.349   7.251 -0.1615 -0.0668  0.1158
  352loPI   C1B 5629  12.653   8.443   9.169 -0.2150 -0.1525  0.0707
  352loPI   C2B 5630  12.663   8.487   8.739 -0.3776 -0.0345  0.0176
  352loPI   C3B 5631  12.706   8.498   8.355  0.2941 -0.2423 -0.0709
  352loPI   C4B 5632  12.431   8.340   7.855  0.1065 -0.0029 -0.1980
  353loPI    C1 5633  13.550  10.337  10.366 -0.0944  0.0753  0.2592
  353loPI    C2 5634  13.286  10.063  10.487  0.1211 -0.1576  0.2120
  353loPI    C3 5635  13.557  10.205  10.743  0.2073 -0.2202  0.1560
  353loPI   PO4 5636  13.574  10.322  10.182  0.0344  0.0135 -0.0558
  353loPI   GL1 5637  13.689  10.179   9.802 -0.4627  0.1990 -0.2457
  353loPI   GL2 5638  13.828  10.041   9.612  0.1284  0.2605 -0.0886
  353loPI   C1A 5639  13.401  10.431   9.596  0.3921  0.0604  0.0322
  353loPI   C2A 5640  13.260  10.580   9.247 -0.0996  0.0392 -0.0129
  353loPI   C3A 5641  13.386  10.681   8.871  0.1720 -0.0327  0.1350
  353loPI   C4A 5642  13.297  10.772   8.502  0.0436  0.1598  0.0815
  353loPI   C5A 5643  13.001  10.994   8.124 -0.0312  0.2752 -0.0378
  353loPI   C6A 5644  12.760  11.480   7.916 -0.4475 -0.2730 -0.1430
  353loPI   C1B 5645  13.921  10.005   9.243 -0.1623 -0.0904  0.0493
  353loPI   C2B 5646  13.998  10.099   8.739 -0.1817  0.2658  0.0275
  353loPI   C3B 5647  13.936  10.202   8.325  0.0150  0.0094  0.0894
  353loPI   C4B 5648  13.885  10.398   7.861 -0.0676  0.0008 -0.1437
  354loPI    C1 5649  11.540  17.025   9.717 -0.1111 -0.0318 -0.1019
  354loPI    C2 5650  11.642  16.754   9.994 -0.4631 -0.0369  0.0281
  354loPI    C3 5651  11.652  17.144  10.082 -0.2675 -0.0208 -0.0572
  354loPI   PO4 5652  11.663  16.914   9.486 -0.0677  0.1257  0.1383
  354loPI   GL1 5653  11.968  16.922   9.232  0.1235  0.0398 -0.0744
  354loPI   GL2 5654  11.765  16.887   8.937  0.0233 -0.0814  0.0887
  354loPI   C1A 5655  12.272  16.940   8.946 -0.1165 -0.0931  0.1298
  354loPI   C2A 5656  12.459  16.781   8.657 -0.2390  0.3080 -0.0237
  354loPI   C3A 5657  12.579  16.729   8.293  0.4898 -0.1885 -0.2355
  354loPI   C4A 5658  12.755  16.881   7.934 -0.1515 -0.1335  0.1898
  354loPI   C5A 5659  13.070  16.870   7.688 -0.1816 -0.0332 -0.1445
  354loPI   C6A 5660  13.355  17.159   7.493 -0.1557 -0.3493  0.1128
  354loPI   C1B 5661  11.364  16.922   8.733 -0.0041  0.1020 -0.2365
  354loPI   C2B 5662  11.241  16.710   8.358  0.1209 -0.0842  0.1456
  354loPI   C3B 5663  11.305  16.649   7.907  0.4277  0.2121 -0.4351
  354loPI   C4B 5664  11.759  16.372   7.787 -0.0762 -0.1832 -0.1996
  355loPI    C1 5665  15.640   7.129  10.116 -0.1173  0.0701  0.1398
  355loPI    C2 5666  15.731   6.864  10.402  0.0120  0.0367  0.0688
  355loPI    C3 5667  15.770   7.256  10.472 -0.0737  0.0334  0.1370
  355loPI   PO4 5668  15.692   6.975   9.882  0.0224  0.0755  0.1975
  355loPI   GL1 5669  15.781   6.780   9.562 -0.1496  0.1115 -0.2649
  355loPI   GL2 5670  15.882   7.084   9.356 -0.0516 -0.1339 -0.2047
  355loPI   C1A 5671  15.524   6.717   9.205  0.0933  0.2204  0.2600
  355loPI   C2A 5672  15.424   6.855   8.776 -0.4030 -0.0088 -0.2524
  355loPI   C3A 5673  15.574   6.849   8.309  0.1315 -0.3115  0.1373
  355loPI   C4A 5674  15.645   6.754   7.818 -0.0209 -0.0829 -0.1289
  355loPI   C5A 5675  15.462   6.527   7.482  0.0965 -0.1299 -0.2929
  355loPI   C6A 5676  15.088   6.618   7.204  0.2884 -0.1421 -0.1706
  355loPI   C1B 5677  16.030   6.999   8.964  0.0447  0.3362 -0.5394
  355loPI   C2B 5678  16.338   7.035   8.675 -0.0997  0.0263 -0.0403
  355loPI   C3B 5679  16.506   6.992   8.223 -0.1650  0.1227  0.1734
  355loPI   C4B 5680  16.631   6.824   7.788 -0.0051  0.0245  0.1282
  356loPI    C1 5681   0.904  15.493  10.353 -0.2206  0.0646 -0.2657
  356loPI    C2 5682   0.580  15.291  10.235 -0.1049 -0.2785 -0.0095
  356loPI    C3 5683   0.586  15.469  10.593  0.0124 -0.3291  0.0142
  356loPI   PO4 5684   1.075  15.434  10.119  0.1784  0.0164 -0.1607
  356loPI   GL1 5685   1.036  15.349   9.671 -0.0149 -0.2417 -0.2017
  356loPI   GL2 5686   0.695  15.260   9.747  0.0313 -0.2195  0.2395
  356loPI   C1A 5687   1.216  15.425   9.327  0.1026 -0.0390 -0.1036
  356loPI   C2A 5688   1.021  15.430   8.821 -0.1771 -0.5166 -0.1877
  356loPI   C3A 5689   0.849  15.678   8.366  0.0008 -0.0209  0.2593
  356loPI   C4A 5690   0.614  15.843   8.047 -0.1341 -0.0887 -0.1672
  356loPI   C5A 5691   0.188  15.955   7.974 -0.0440  0.0094 -0.1823
  356loPI   C6A 5692  -0.152  16.062   7.827  0.0313 -0.1652 -0.1882
  356loPI   C1B 5693   0.786  15.097   9.286 -0.0626 -0.0759  0.0101
  356loPI   C2B 5694   0.695  15.104   8.869 -0.1614 -0.2416 -0.2612
  356loPI   C3B 5695   0.749  15.215   8.498 -0.1050  0.1668 -0.0860
  356loPI   C4B 5696   0.643  15.115   8.076 -0.0512  0.0669  0.1866
  357loPI    C1 5697  14.614   7.254   9.893  0.0142  0.0590  0.1268
  357loPI    C2 5698  14.675   7.515  10.189 -0.2022  0.1013  0.1357
  357loPI    C3 5699  14.304   7.443  10.060 -0.1145  0.0400 -0.0870
  357loPI   PO4 5700  14.926   7.258   9.834  0.2359 -0.1306 -0.0795
  357loPI   GL1 5701  15.005   7.235   9.417  0.0651  0.2075  0.1480
  357loPI   GL2 5702  14.669   7.307   9.401  0.0511  0.1357 -0.0688
  357loPI   C1A 5703  15.165   7.246   9.049  0.0151 -0.3386 -0.0641
  357loPI   C2A 5704  14.996   7.386   8.646  0.1659  0.0372 -0.3458
  357loPI   C3A 5705  14.938   7.702   8.361 -0.0116  0.0004 -0.1075
  357loPI   C4A 5706  14.776   7.795   7.953 -0.0762 -0.2768  0.0241
  357loPI   C5A 5707  14.759   7.805   7.503 -0.3167 -0.3463 -0.0581
  357loPI   C6A 5708  15.138   7.797   7.268 -0.0075 -0.0061 -0.3361
  357loPI   C1B 5709  14.633   7.274   8.925  0.1169  0.1786 -0.1395
  357loPI   C2B 5710  14.581   7.211   8.468  0.0728 -0.0809 -0.0351
  357loPI   C3B 5711  14.340   7.517   8.241 -0.0231 -0.0280 -0.1767
  357loPI   C4B 5712  14.277   7.584   7.877 -0.1634  0.1981  0.1014
  358loPI    C1 5713  19.030  16.826  10.293 -0.0760  0.1716  0.0089
  358loPI    C2 5714  18.788  16.859   9.976 -0.1299 -0.1028  0.0196
  358loPI    C3 5715  18.639  16.757  10.333 -0.0145 -0.1718  0.0488
  358loPI   PO4 5716  19.224  16.684  10.193  0.1575 -0.0037  0.0683
  358loPI   GL1 5717  19.104  16.602   9.666 -0.0970 -0.1344 -0.1048
  358loPI   GL2 5718  19.413  16.660   9.721 -0.0860 -0.1086  0.2678
  358loPI   C1A 5719  19.304  16.699   9.204  0.0059 -0.0870 -0.1799
  358loPI   C2A 5720  19.300  16.743   8.694  0.1437 -0.0052 -0.4256
  358loPI   C3A 5721  19.151  16.886   8.316 -0.2211 -0.2911 -0.1883
  358loPI   C4A 5722  18.980  16.993   7.801  0.2026  0.0754  0.0153
  358loPI   C5A 5723  18.627  17.215   7.627  0.1574  0.1623  0.0266
  358loPI   C6A 5724  18.094  17.228   7.620 -0.2161 -0.0567 -0.1091
  358loPI   C1B 5725  19.744  16.614   9.514  0.0920 -0.1379  0.1938
  358loPI   C2B 5726  19.969  16.505   9.074 -0.0879  0.0299 -0.0240
  358loPI   C3B 5727  20.135  16.717   8.712  0.4585 -0.1374  0.0459
  358loPI   C4B 5728  20.169  16.693   8.282 -0.0641 -0.0009 -0.0596
  359loPI    C1 5729   4.732  11.204   9.445 -0.2978 -0.0473  0.0264
  359loPI    C2 5730   4.772  10.812   9.374  0.1901  0.0085 -0.0425
  359loPI    C3 5731   5.026  10.998   9.621 -0.0072  0.2928 -0.0478
  359loPI   PO4 5732   4.842  11.330   9.172  0.2769 -0.3328 -0.2711
  359loPI   GL1 5733   5.177  11.313   8.878 -0.2109 -0.2399  0.0716
  359loPI   GL2 5734   5.084  11.638   8.783  0.3224 -0.0918  0.0376
  359loPI   C1A 5735   5.427  11.416   8.417 -0.0011  0.1480 -0.1980
  359loPI   C2A 5736   5.806  11.510   8.131 -0.1301  0.0563  0.2417
  359loPI   C3A 5737   5.871  11.534   7.640  0.0563  0.2548  0.0482
  359loPI   C4A 5738   5.488  11.476   7.363  0.0025 -0.1596  0.0479
  359loPI   C5A 5739   5.466  11.351   6.904 -0.0970 -0.0389 -0.2787
  359loPI   C6A 5740   5.435  11.038   6.546  0.2844 -0.2696  0.1032
  359loPI   C1B 5741   5.021  11.760   8.292  0.1363  0.1813  0.0482
  359loPI   C2B 5742   4.871  11.546   7.980 -0.0828  0.1419  0.2267
  359loPI   C3B 5743   4.745  11.143   7.817  0.2391  0.1227 -0.2690
  359loPI   C4B 5744   4.535  11.354   7.601 -0.0139  0.2252  0.0097
  360loPI    C1 5745   6.715  11.182   9.984  0.3380 -0.1732  0.1155
  360loPI    C2 5746   6.441  10.999  10.210  0.0157  0.1182 -0.0298
  360loPI    C3 5747   6.668  11.287  10.367 -0.0571  0.1701 -0.0191
  360loPI   PO4 5748   6.787  10.911   9.816 -0.1240  0.1333  0.3976
  360loPI   GL1 5749   6.828  10.671   9.397 -0.0445  0.0595  0.4345
  360loPI   GL2 5750   7.107  10.637   9.406 -0.3657 -0.1575 -0.3200
  360loPI   C1A 5751   6.493  10.613   9.049 -0.0658 -0.0045 -0.0604
  360loPI   C2A 5752   6.350  10.547   8.569 -0.1312 -0.0382 -0.0899
  360loPI   C3A 5753   6.251  10.560   8.132  0.0489 -0.2469 -0.2562
  360loPI   C4A 5754   6.023  10.800   7.775 -0.1401  0.2218  0.2417
  360loPI   C5A 5755   5.609  11.066   7.598 -0.4553 -0.2880 -0.0284
  360loPI   C6A 5756   5.187  10.819   7.633  0.2507 -0.1056 -0.0412
  360loPI   C1B 5757   7.410  10.395   9.210 -0.3973 -0.0327  0.1158
  360loPI   C2B 5758   7.559  10.195   8.838 -0.2549  0.1312 -0.1032
  360loPI   C3B 5759   7.531  10.249   8.396 -0.0289  0.3089 -0.0486
  360loPI   C4B 5760   7.645  10.105   7.948  0.1285  0.2583  0.0629
  361loPI    C1 5761  18.944  15.733  10.375 -0.0871  0.0210  0.2764
  361loPI    C2 5762  19.155  15.568  10.672  0.0437 -0.0247  0.1592
  361loPI    C3 5763  19.344  15.726  10.356 -0.0961 -0.0285  0.0728
  361loPI   PO4 5764  18.755  15.591  10.285  0.0386  0.1872 -0.0753
  361loPI   GL1 5765  18.741  15.358   9.892 -0.1277  0.1458  0.2025
  361loPI   GL2 5766  18.996  15.602   9.771 -0.0915 -0.1312  0.1701
  361loPI   C1A 5767  18.786  15.237   9.489  0.2468 -0.0459 -0.1958
  361loPI   C2A 5768  18.910  15.237   9.048 -0.0995  0.1360 -0.1789
  361loPI   C3A 5769  19.238  14.947   8.876 -0.2999  0.0382  0.2325
  361loPI   C4A 5770  19.385  15.002   8.489  0.0074  0.2826 -0.0053
  361loPI   C5A 5771  19.380  15.047   7.859  0.4675 -0.2720  0.0794
  361loPI   C6A 5772  19.770  15.101   7.609  0.1553  0.2437 -0.2621
  361loPI   C1B 5773  19.125  15.573   9.408  0.0713  0.2062  0.0255
  361loPI   C2B 5774  19.086  15.809   8.991  0.0388 -0.3151  0.1465
  361loPI   C3B 5775  19.055  15.852   8.543 -0.1784  0.0505 -0.0782
  361loPI   C4B 5776  18.784  15.696   8.288  0.1380  0.1483 -0.0147
  362loPI    C1 5777   8.754   5.721  10.075 -0.0104 -0.1515  0.0532
  362loPI    C2 5778   9.040   5.468   9.958  0.0279 -0.1715  0.1874
  362loPI    C3 5779   8.925   5.475  10.341 -0.3298 -0.3425  0.0879
  362loPI   PO4 5780   8.852   5.969   9.923  0.0940 -0.1658  0.0065
  362loPI   GL1 5781   9.129   6.171   9.501 -0.3612  0.0437 -0.1456
  362loPI   GL2 5782   9.156   6.462   9.358 -0.1565 -0.2711 -0.4272
  362loPI   C1A 5783   9.044   6.175   8.990 -0.3247 -0.0333 -0.5266
  362loPI   C2A 5784   8.790   6.494   8.846 -0.1647  0.0712 -0.2481
  362loPI   C3A 5785   8.609   6.694   8.456 -0.2096 -0.2631  0.1490
  362loPI   C4A 5786   8.373   6.738   8.025  0.1204 -0.0278  0.0799
  362loPI   C5A 5787   8.158   6.446   7.747 -0.4243 -0.0074  0.0346
  362loPI   C6A 5788   8.058   6.118   7.397  0.1374  0.0010 -0.0039
  362loPI   C1B 5789   9.402   6.615   8.975 -0.2735  0.1454 -0.0548
  362loPI   C2B 5790   9.534   6.677   8.504  0.1639 -0.1559  0.0838
  362loPI   C3B 5791   9.485   6.974   8.149 -0.1065 -0.0327 -0.3710
  362loPI   C4B 5792   9.419   7.119   7.821 -0.2519  0.0781  0.0294
  363loPI    C1 5793   9.019  11.023  10.116 -0.0847  0.0084  0.2237
  363loPI    C2 5794   8.855  10.744  10.353  0.0014 -0.2917 -0.0626
  363loPI    C3 5795   8.766  10.753   9.963 -0.3069  0.3317  0.0094
  363loPI   PO4 5796   9.365  10.953  10.217 -0.2087  0.1739 -0.2985
  363loPI   GL1 5797   9.595  10.845   9.861 -0.0371  0.2473 -0.0889
  363loPI   GL2 5798   9.935  10.982   9.781  0.2174 -0.0670  0.1229
  363loPI   C1A 5799   9.273  10.903   9.499  0.1531  0.0695  0.0010
  363loPI   C2A 5800   8.994  10.785   9.046  0.1922  0.0651 -0.1515
  363loPI   C3A 5801   8.920  10.805   8.638 -0.4211 -0.4937  0.0463
  363loPI   C4A 5802   8.915  10.812   8.190  0.0523 -0.0050  0.1810
  363loPI   C5A 5803   8.775  10.433   7.812  0.1138 -0.3410  0.0393
  363loPI   C6A 5804   8.509  10.537   7.444  0.1785  0.0426 -0.1631
  363loPI   C1B 5805   9.770  10.632   9.446  0.1370 -0.0478  0.1782
  363loPI   C2B 5806   9.543  10.701   9.067 -0.0504  0.0181  0.1157
  363loPI   C3B 5807   9.378  10.725   8.598 -0.0011  0.1673  0.0648
  363loPI   C4B 5808   9.388  10.673   8.272 -0.1148  0.0483 -0.3087
  364loPI    C1 5809   3.948   0.234  10.775 -0.0754 -0.0539  0.2602
  364loPI    C2 5810   3.984   0.630  10.816 -0.0094 -0.0403  0.0771
  364loPI    C3 5811   3.954   0.398  11.140 -0.3022  0.1373  0.1805
  364loPI   PO4 5812   4.047   0.197  10.515 -0.3325  0.2221 -0.1338
  364loPI   GL1 5813   4.299   0.254  10.187 -0.0091 -0.2252  0.3799
  364loPI   GL2 5814   4.457   0.080   9.999  0.0550  0.0848  0.0549
  364loPI   C1A 5815   3.975   0.229   9.818 -0.2516  0.0749  0.0439
  364loPI   C2A 5816   3.810  -0.001   9.559 -0.3314 -0.0055  0.3730
  364loPI   C3A 5817   3.454  -0.345   9.366  0.5987  0.2512 -0.0358
  364loPI   C4A 5818   3.262  -0.307   8.956  0.3911  0.1450  0.3309
  364loPI   C5A 5819   3.004  -0.410   8.552 -0.0945  0.4428 -0.0265
  364loPI   C6A 5820   2.974  -0.434   8.173  0.3043 -0.0704 -0.2451
  364loPI   C1B 5821   4.350  -0.202   9.722  0.0646 -0.1755  0.3632
  364loPI   C2B 5822   4.401  -0.334   9.433  0.1646 -0.1504 -0.2262
  364loPI   C3B 5823   4.148  -0.289   9.067  0.3293  0.1185 -0.2783
  364loPI   C4B 5824   4.197  -0.188   8.697 -0.0005 -0.2945  0.2196
  365loPI    C1 5825  16.638  16.438   9.785  0.1669  0.2157 -0.3819
  365loPI    C2 5826  16.587  16.808   9.927 -0.1055 -0.0563  0.2686
  365loPI    C3 5827  16.940  16.625   9.968 -0.0458  0.0369  0.1737
  365loPI   PO4 5828  16.491  16.463   9.509 -0.3167 -0.1065  0.1140
  365loPI   GL1 5829  16.232  16.521   9.209  0.2229  0.0369 -0.1571
  365loPI   GL2 5830  16.271  16.685   8.853 -0.2571  0.0642  0.0929
  365loPI   C1A 5831  15.981  16.235   8.871  0.0434  0.1002 -0.1346
  365loPI   C2A 5832  15.789  16.125   8.434  0.1706  0.3445 -0.0016
  365loPI   C3A 5833  15.635  16.024   8.110 -0.0456 -0.1335 -0.2125
  365loPI   C4A 5834  15.589  16.162   7.689  0.4759 -0.0801  0.0365
  365loPI   C5A 5835  15.155  16.163   7.471 -0.0457  0.1008  0.0523
  365loPI   C6A 5836  14.877  16.251   7.236  0.1555  0.1300  0.2718
  365loPI   C1B 5837  16.428  16.746   8.458 -0.0235 -0.2463 -0.2049
  365loPI   C2B 5838  16.518  16.731   8.020  0.1478 -0.3014  0.1716
  365loPI   C3B 5839  16.555  16.546   7.592  0.1488  0.0805  0.1810
  365loPI   C4B 5840  16.722  16.391   7.272 -0.1015  0.0900  0.0374
  366loPI    C1 5841  12.679   2.050   9.502  0.2036 -0.2190  0.0567
  366loPI    C2 5842  12.333   2.018   9.700  0.2189  0.2324  0.1680
  366loPI    C3 5843  12.654   1.813   9.824  0.0200 -0.1170  0.1189
  366loPI   PO4 5844  12.576   2.071   9.293 -0.1016  0.1775 -0.4013
  366loPI   GL1 5845  12.644   1.826   8.869 -0.2794 -0.0111  0.0538
  366loPI   GL2 5846  12.489   1.510   8.866  0.1739  0.2587  0.0515
  366loPI   C1A 5847  12.813   1.902   8.509 -0.1302 -0.1265  0.0885
  366loPI   C2A 5848  13.085   2.158   8.342 -0.1084 -0.0829 -0.0095
  366loPI   C3A 5849  13.282   2.139   8.008  0.2224  0.0996  0.0133
  366loPI   C4A 5850  13.438   2.144   7.554 -0.1605 -0.2526 -0.2339
  366loPI   C5A 5851  13.384   2.323   7.191  0.2570 -0.0790  0.2165
  366loPI   C6A 5852  13.410   2.614   6.889  0.1568  0.0024 -0.1437
  366loPI   C1B 5853  12.527   1.526   8.401  0.0041  0.0580  0.1742
  366loPI   C2B 5854  12.420   1.554   7.901 -0.5595  0.0025  0.3001
  366loPI   C3B 5855  12.075   1.366   7.633  0.1820 -0.2045  0.3006
  366loPI   C4B 5856  11.772   1.499   7.304 -0.1535  0.1545 -0.3506
  367loPI    C1 5857   7.671   0.115   9.967  0.1726  0.0634  0.0024
  367loPI    C2 5858   7.677  -0.154  10.263  0.1536 -0.0355 -0.0866
  367loPI    C3 5859   7.636   0.235  10.347 -0.1991 -0.0927  0.0218
  367loPI   PO4 5860   7.909   0.120   9.835 -0.1018  0.3052 -0.0539
  367loPI   GL1 5861   7.956  -0.177   9.419 -0.0966  0.1069  0.2054
  367loPI   GL2 5862   8.268  -0.446   9.428  0.0871  0.0671  0.0566
  367loPI   C1A 5863   8.457  -0.025   9.436 -0.0152  0.2948  0.1374
  367loPI   C2A 5864   8.759   0.025   9.149 -0.2549  0.0573 -0.2844
  367loPI   C3A 5865   8.816   0.232   8.864 -0.0971 -0.0211 -0.1104
  367loPI   C4A 5866   9.108   0.446   8.544 -0.1567  0.0627 -0.1304
  367loPI   C5A 5867   9.034   0.479   8.159 -0.0247 -0.0512  0.1026
  367loPI   C6A 5868   9.002   0.200   7.792  0.2456  0.2241 -0.2232
  367loPI   C1B 5869   8.318  -0.231   9.042 -0.5207 -0.2423 -0.2057
  367loPI   C2B 5870   8.318   0.020   8.628 -0.1061  0.4048 -0.0463
  367loPI   C3B 5871   8.251   0.003   8.161  0.0198  0.0050  0.0955
  367loPI   C4B 5872   7.934   0.097   7.811 -0.0184 -0.1068  0.0933
  368loPI    C1 5873  11.749  17.479   9.552 -0.0486  0.1708 -0.0441
  368loPI    C2 5874  12.053  17.462   9.292 -0.0839  0.1059 -0.0816
  368loPI    C3 5875  12.090  17.673   9.630  0.0999 -0.1179  0.0401
  368loPI   PO4 5876  11.562  17.631   9.445  0.1641 -0.2374 -0.1082
  368loPI   GL1 5877  11.341  17.947   9.305 -0.2258  0.2865 -0.0389
  368loPI   GL2 5878  11.146  17.672   9.137 -0.0882  0.0739 -0.0739
  368loPI   C1A 5879  11.250  18.186   8.912  0.0420 -0.2153 -0.1209
  368loPI   C2A 5880  11.216  18.401   8.494  0.1249  0.1341  0.0274
  368loPI   C3A 5881  10.952  18.411   8.063  0.2009 -0.1247 -0.2359
  368loPI   C4A 5882  10.738  18.166   7.727 -0.2788 -0.2459 -0.1338
  368loPI   C5A 5883  10.702  18.131   7.340  0.1431  0.1263  0.2532
  368loPI   C6A 5884  10.787  18.087   6.907 -0.0657 -0.0522  0.0684
  368loPI   C1B 5885  11.147  17.343   8.848  0.0506  0.2240 -0.0910
  368loPI   C2B 5886  11.137  17.261   8.452  0.1642 -0.1660  0.0007
  368loPI   C3B 5887  11.447  17.102   8.139 -0.3034 -0.0325 -0.1697
  368loPI   C4B 5888  11.794  16.890   7.920  0.0621 -0.1554  0.0073
  369loPI    C1 5889   7.436  11.326   9.881 -0.0788  0.2186 -0.0048
  369loPI    C2 5890   7.552  11.368  10.262 -0.1521  0.1104  0.0299
  369loPI    C3 5891   7.207  11.184  10.177 -0.0099 -0.1010 -0.1007
  369loPI   PO4 5892   7.428  11.552   9.691  0.0195  0.3311 -0.0838
  369loPI   GL1 5893   7.550  11.684   9.328  0.3544 -0.1005  0.0248
  369loPI   GL2 5894   7.358  11.881   9.219  0.1428  0.3725  0.0526
  369loPI   C1A 5895   7.653  11.592   8.904 -0.2097 -0.4751 -0.1634
  369loPI   C2A 5896   7.779  11.476   8.432  0.2659 -0.1086 -0.1466
  369loPI   C3A 5897   7.799  11.556   8.136  0.1494 -0.0974  0.1816
  369loPI   C4A 5898   7.754  11.678   7.622 -0.2158  0.0691  0.0735
  369loPI   C5A 5899   7.839  11.614   7.255  0.1338 -0.1353  0.0008
  369loPI   C6A 5900   8.020  11.310   7.030 -0.1219  0.0106 -0.0939
  369loPI   C1B 5901   7.484  12.021   8.799  0.0188  0.2686 -0.0704
  369loPI   C2B 5902   7.438  12.012   8.296  0.1192 -0.1171 -0.0644
  369loPI   C3B 5903   7.487  12.045   7.908  0.0445 -0.1003 -0.0532
  369loPI   C4B 5904   7.310  11.864   7.542  0.1454  0.4285 -0.1391
  370loPI    C1 5905  14.071   6.616  10.116  0.2173  0.1652  0.0461
  370loPI    C2 5906  14.317   6.418  10.362  0.0751  0.0463  0.0941
  370loPI    C3 5907  14.045   6.672  10.511  0.1345  0.1397  0.0444
  370loPI   PO4 5908  14.304   6.669   9.851  0.1371 -0.2845  0.1803
  370loPI   GL1 5909  14.764   6.665   9.556 -0.2705 -0.0348 -0.1175
  370loPI   GL2 5910  14.479   6.846   9.422 -0.4277  0.0151 -0.0593
  370loPI   C1A 5911  14.959   6.775   9.212 -0.2491 -0.2834  0.1346
  370loPI   C2A 5912  14.943   6.882   8.780  0.3906  0.1006 -0.0868
  370loPI   C3A 5913  15.064   6.981   8.398  0.1388 -0.0289 -0.0671
  370loPI   C4A 5914  14.861   7.254   8.100 -0.0263 -0.0329  0.0661
  370loPI   C5A 5915  14.605   7.196   7.771 -0.1787 -0.2645 -0.1853
  370loPI   C6A 5916  14.582   7.336   7.414 -0.1780 -0.4229  0.3137
  370loPI   C1B 5917  14.400   6.825   8.912 -0.0344 -0.1121 -0.0386
  370loPI   C2B 5918  14.199   6.635   8.544  0.0010  0.2168  0.2833
  370loPI   C3B 5919  13.898   6.556   8.201 -0.0762  0.0616  0.1602
  370loPI   C4B 5920  13.633   6.566   7.873  0.2041 -0.3596  0.0850
  371loPI    C1 5921   0.740  14.474   9.999  0.1855  0.1149  0.1482
  371loPI    C2 5922   0.572  14.112   9.976  0.4186  0.0143  0.0033
  371loPI    C3 5923   0.361  14.420  10.118  0.1255 -0.1173 -0.1369
  371loPI   PO4 5924   1.024  14.476   9.821  0.0284 -0.0146  0.1733
  371loPI   GL1 5925   0.864  14.663   9.407 -0.0675  0.2518  0.0009
  371loPI   GL2 5926   1.199  14.740   9.405 -0.3151 -0.0115 -0.1064
  371loPI   C1A 5927   0.877  14.383   9.129 -0.0164  0.2250 -0.3134
  371loPI   C2A 5928   0.771  14.155   8.706 -0.1261 -0.2451 -0.3687
  371loPI   C3A 5929   0.762  14.270   8.132 -0.1949 -0.0836  0.0430
  371loPI   C4A 5930   0.643  14.106   7.790 -0.0797  0.4827 -0.0722
  371loPI   C5A 5931   0.400  13.927   7.616 -0.1277 -0.0501 -0.0546
  371loPI   C6A 5932  -0.129  13.892   7.657  0.2096 -0.0868 -0.0141
  371loPI   C1B 5933   1.131  14.885   9.009  0.2063  0.0829  0.3269
  371loPI   C2B 5934   1.054  14.631   8.670  0.1915  0.4565 -0.3415
  371loPI   C3B 5935   0.935  14.752   8.263  0.1104  0.0547 -0.0241
  371loPI   C4B 5936   0.828  14.689   7.885  0.0688  0.1654  0.0345
  372loPI    C1 5937   4.908   8.748   9.913  0.0882  0.2608 -0.2068
  372loPI    C2 5938   4.641   8.929  10.150  0.2892  0.1087  0.1431
  372loPI    C3 5939   4.986   9.111  10.062  0.2565  0.1239  0.0455
  372loPI   PO4 5940   4.829   8.646   9.704  0.0120 -0.0207 -0.1122
  372loPI   GL1 5941   4.879   8.599   9.282  0.2407 -0.2455 -0.2081
  372loPI   GL2 5942   5.013   8.345   9.110  0.0272  0.3980 -0.3633
  372loPI   C1A 5943   5.092   8.845   9.027  0.1545 -0.1327 -0.0920
  372loPI   C2A 5944   5.121   8.958   8.595  0.0709  0.3341  0.0135
  372loPI   C3A 5945   5.144   9.086   8.182  0.1736 -0.2643 -0.0849
  372loPI   C4A 5946   5.473   9.048   7.892  0.2528 -0.2010  0.1201
  372loPI   C5A 5947   5.433   9.016   7.548  0.0501  0.1766  0.1498
  372loPI   C6A 5948   5.306   9.008   7.065 -0.1442  0.1939  0.0579
  372loPI   C1B 5949   5.026   8.258   8.694  0.0764  0.0323  0.0636
  372loPI   C2B 5950   5.122   8.355   8.317 -0.0006 -0.1207 -0.0933
  372loPI   C3B 5951   5.294   8.557   7.825  0.3032  0.0133  0.0961
  372loPI   C4B 5952   5.165   8.636   7.395 -0.0117 -0.1510 -0.0916
  373loPI    C1 5953   5.180   6.763   9.548  0.4973 -0.1614  0.0083
  373loPI    C2 5954   5.450   7.054   9.595  0.1760  0.1353  0.0624
  373loPI    C3 5955   5.338   6.832   9.909  0.0803  0.2635  0.1194
  373loPI   PO4 5956   5.021   6.914   9.394  0.4337 -0.0562  0.0125
  373loPI   GL1 5957   5.145   7.165   8.993 -0.2366 -0.1470  0.1244
  373loPI   GL2 5958   4.858   6.999   8.851 -0.0014 -0.0178 -0.1878
  373loPI   C1A 5959   5.007   7.493   8.743 -0.2658 -0.2406 -0.1224
  373loPI   C2A 5960   5.020   7.845   8.422  0.2602 -0.2527  0.0615
  373loPI   C3A 5961   4.862   7.817   8.045  0.2409  0.0852 -0.1775
  373loPI   C4A 5962   4.995   7.613   7.666 -0.0824  0.0717 -0.0855
  373loPI   C5A 5963   5.352   7.492   7.497 -0.2657  0.0923  0.1958
  373loPI   C6A 5964   5.522   7.615   7.152 -0.1644 -0.3070  0.0129
  373loPI   C1B 5965   5.046   7.065   8.472  0.2841  0.0459 -0.1289
  373loPI   C2B 5966   5.018   7.208   8.005  0.1210 -0.0065  0.2943
  373loPI   C3B 5967   5.007   7.139   7.594  0.0735  0.2818  0.3099
  373loPI   C4B 5968   5.187   7.144   7.104 -0.2553 -0.0477 -0.1238
  374loPI    C1 5969   3.449   7.126  10.003 -0.0919 -0.0088 -0.0009
  374loPI    C2 5970   3.187   6.852   9.875 -0.1393  0.0459 -0.0214
  374loPI    C3 5971   3.522   6.737  10.061 -0.2141 -0.0212  0.0728
  374loPI   PO4 5972   3.417   7.297   9.743 -0.1007  0.5382  0.1414
  374loPI   GL1 5973   3.442   7.214   9.429 -0.1899  0.3851 -0.2790
  374loPI   GL2 5974   3.416   6.792   9.409  0.1227 -0.2330  0.1189
  374loPI   C1A 5975   3.323   7.263   9.000  0.1101  0.2103 -0.0199
  374loPI   C2A 5976   3.369   7.313   8.694  0.0224  0.0588  0.0058
  374loPI   C3A 5977   3.357   7.364   8.280  0.5467 -0.0730  0.0716
  374loPI   C4A 5978   3.389   7.429   7.820 -0.0774  0.4401 -0.0351
  374loPI   C5A 5979   3.722   7.357   7.499 -0.2001 -0.2471  0.2747
  374loPI   C6A 5980   4.120   7.475   7.320 -0.3556  0.1576  0.0009
  374loPI   C1B 5981   3.351   6.439   9.054 -0.0282 -0.2159  0.0497
  374loPI   C2B 5982   3.273   6.252   8.632 -0.0955  0.0164  0.0649
  374loPI   C3B 5983   3.362   6.367   8.317 -0.2731  0.1065  0.0838
  374loPI   C4B 5984   3.370   6.541   7.938  0.1437  0.0722  0.0323
  375loPI    C1 5985  13.027   2.991   9.661 -0.2711 -0.1625  0.1261
  375loPI    C2 5986  13.301   2.705   9.718  0.0794  0.1884  0.2534
  375loPI    C3 5987  13.018   2.769   9.994 -0.2717 -0.3139  0.0257
  375loPI   PO4 5988  12.937   2.933   9.441  0.0934 -0.2032 -0.2222
  375loPI   GL1 5989  12.932   3.133   9.056 -0.1496 -0.1900  0.2401
  375loPI   GL2 5990  12.823   2.872   8.912 -0.0070  0.4465  0.0425
  375loPI   C1A 5991  12.921   3.428   8.718 -0.0354  0.2054  0.0108
  375loPI   C2A 5992  12.729   3.665   8.513 -0.1583  0.1672 -0.0698
  375loPI   C3A 5993  12.683   4.149   8.506 -0.1129 -0.0035  0.0709
  375loPI   C4A 5994  12.489   4.464   8.201  0.2845  0.1184  0.0657
  375loPI   C5A 5995  12.617   4.421   7.828  0.0764  0.0840  0.0228
  375loPI   C6A 5996  12.863   4.362   7.469 -0.0899  0.1263  0.1069
  375loPI   C1B 5997  12.916   2.730   8.557 -0.3027  0.0290 -0.0348
  375loPI   C2B 5998  12.970   2.639   8.156  0.3938 -0.4125 -0.0792
  375loPI   C3B 5999  12.993   2.596   7.735  0.0060  0.0402 -0.1644
  375loPI   C4B 6000  13.018   2.632   7.229 -0.0675  0.2383  0.1368
  376loPI    C1 6001   1.961   9.648   9.605  0.2183 -0.0838 -0.0020
  376loPI    C2 6002   2.200   9.961   9.674  0.1246 -0.0167  0.0190
  376loPI    C3 6003   2.342   9.590   9.714  0.2154  0.0228  0.0667
  376loPI   PO4 6004   1.846   9.728   9.340 -0.2370 -0.1852 -0.2219
  376loPI   GL1 6005   1.826   9.603   8.875  0.0710  0.0381 -0.1196
  376loPI   GL2 6006   1.926   9.352   8.994  0.2715 -0.2230 -0.1550
  376loPI   C1A 6007   1.820   9.649   8.420 -0.0507 -0.1055 -0.0320
  376loPI   C2A 6008   1.974   9.521   7.957  0.1134 -0.0459  0.2953
  376loPI   C3A 6009   2.023   9.569   7.535 -0.2899 -0.3499  0.1589
  376loPI   C4A 6010   2.347   9.741   7.169  0.0366  0.0078 -0.3069
  376loPI   C5A 6011   2.733   9.737   7.134 -0.1291 -0.0628 -0.0708
  376loPI   C6A 6012   3.211   9.519   7.077 -0.0608 -0.0307  0.1360
  376loPI   C1B 6013   2.281   9.543   8.736  0.0905  0.2197  0.1096
  376loPI   C2B 6014   2.346   9.586   8.342  0.3073  0.2305 -0.2465
  376loPI   C3B 6015   2.385   9.704   7.987 -0.0779 -0.2549 -0.0807
  376loPI   C4B 6016   2.496   9.677   7.629 -0.0488 -0.1558 -0.0150
  377loPI    C1 6017  18.608   4.473   9.895  0.0637 -0.1315 -0.1813
  377loPI    C2 6018  18.889   4.692  10.077 -0.1226 -0.1487  0.1350
  377loPI    C3 6019  18.944   4.299  10.025 -0.1109 -0.1620  0.2455
  377loPI   PO4 6020  18.676   4.608   9.584 -0.1440 -0.0610 -0.0473
  377loPI   GL1 6021  18.397   4.642   9.209  0.0699  0.0405  0.0893
  377loPI   GL2 6022  18.561   4.338   9.153  0.1246 -0.1299  0.1867
  377loPI   C1A 6023  18.264   4.490   8.774  0.3259 -0.1833 -0.0236
  377loPI   C2A 6024  18.325   4.088   8.533  0.1375  0.2871 -0.0633
  377loPI   C3A 6025  18.359   3.999   8.131 -0.0581 -0.2577  0.1319
  377loPI   C4A 6026  18.575   3.976   7.767  0.0754  0.0068  0.0921
  377loPI   C5A 6027  18.799   3.567   7.454  0.0092  0.0800  0.0450
  377loPI   C6A 6028  19.086   3.556   7.120  0.1320 -0.2069  0.2618
  377loPI   C1B 6029  18.607   4.113   8.879 -0.1431 -0.1594 -0.4135
  377loPI   C2B 6030  18.770   4.069   8.386 -0.3123  0.2073 -0.0430
  377loPI   C3B 6031  18.905   3.702   8.148  0.0285 -0.3262 -0.0578
  377loPI   C4B 6032  19.209   3.315   7.835 -0.0054  0.1005 -0.2663
  378loPI    C1 6033  16.302  11.210  10.340  0.3972  0.0922 -0.0011
  378loPI    C2 6034  16.087  10.952  10.558  0.1451  0.2801 -0.0236
  378loPI    C3 6035  16.401  10.822  10.347 -0.0746 -0.0376 -0.1630
  378loPI   PO4 6036  16.066  11.430  10.158 -0.2322  0.1783  0.0681
  378loPI   GL1 6037  16.064  11.613   9.746  0.2505  0.0595 -0.0380
  378loPI   GL2 6038  16.208  11.461   9.510 -0.1009 -0.2681 -0.2729
  378loPI   C1A 6039  15.787  11.720   9.424 -0.0461 -0.4132  0.3969
  378loPI   C2A 6040  15.880  11.902   9.095  0.1863 -0.1310  0.1043
  378loPI   C3A 6041  15.841  11.979   8.622  0.0391  0.1789 -0.2949
  378loPI   C4A 6042  15.791  11.811   8.188 -0.2405  0.3274  0.2488
  378loPI   C5A 6043  15.673  12.054   7.732 -0.3209 -0.0121 -0.0994
  378loPI   C6A 6044  15.362  12.104   7.467  0.2044 -0.0128 -0.0150
  378loPI   C1B 6045  15.934  11.335   9.103  0.0588  0.2215 -0.1433
  378loPI   C2B 6046  15.923  11.390   8.588  0.4010  0.0321  0.3364
  378loPI   C3B 6047  16.159  11.442   8.218  0.0918  0.2933  0.0164
  378loPI   C4B 6048  16.170  11.663   7.740 -0.1234  0.0694  0.0177
  379loPI    C1 6049  11.819   2.745   9.484 -0.0874  0.1460  0.0304
  379loPI    C2 6050  11.710   3.126   9.541  0.0297  0.1815  0.0206
  379loPI    C3 6051  11.948   2.944   9.806 -0.0748  0.0958  0.0563
  379loPI   PO4 6052  11.668   2.666   9.315  0.2379  0.2114 -0.0726
  379loPI   GL1 6053  11.721   2.989   8.991 -0.1753 -0.0686  0.1410
  379loPI   GL2 6054  11.534   3.260   8.879 -0.0014 -0.2482  0.1594
  379loPI   C1A 6055  11.918   2.973   8.626 -0.0916  0.1047  0.1968
  379loPI   C2A 6056  11.950   3.069   8.289 -0.3400  0.1575 -0.0553
  379loPI   C3A 6057  12.026   2.968   7.882  0.1108  0.0441  0.0442
  379loPI   C4A 6058  12.219   2.803   7.542  0.0561  0.1867 -0.3606
  379loPI   C5A 6059  12.558   2.576   7.416  0.1276  0.2993  0.1055
  379loPI   C6A 6060  12.538   2.146   7.164  0.2562  0.0121  0.0621
  379loPI   C1B 6061  11.433   3.086   8.444 -0.0092 -0.0871  0.0974
  379loPI   C2B 6062  11.449   3.139   7.963  0.1666 -0.1035  0.1357
  379loPI   C3B 6063  11.465   3.301   7.625 -0.0017 -0.3329 -0.1834
  379loPI   C4B 6064  11.280   3.358   7.260 -0.1741  0.1093  0.1658
  380loPI    C1 6065   7.542  14.839   9.876  0.0803  0.0906  0.2083
  380loPI    C2 6066   7.348  15.160   9.737  0.0726 -0.0113 -0.0202
  380loPI    C3 6067   7.390  15.107  10.131 -0.1654  0.1285  0.0259
  380loPI   PO4 6068   7.695  14.796   9.646  0.2833  0.0472  0.1466
  380loPI   GL1 6069   7.517  14.892   9.269 -0.1372  0.3178 -0.0987
  380loPI   GL2 6070   7.872  14.929   9.220  0.1102 -0.5348  0.0858
  380loPI   C1A 6071   7.500  14.877   8.882  0.0421  0.3900 -0.3416
  380loPI   C2A 6072   7.691  14.843   8.527  0.1419  0.0173  0.3706
  380loPI   C3A 6073   7.731  14.654   8.108  0.1724  0.1483  0.2260
  380loPI   C4A 6074   7.560  14.785   7.718  0.1994  0.0975  0.0558
  380loPI   C5A 6075   7.358  14.920   7.360 -0.1058 -0.1167 -0.2618
  380loPI   C6A 6076   7.369  15.081   7.105 -0.1032  0.1752 -0.1824
  380loPI   C1B 6077   7.945  15.142   8.822 -0.0688  0.1650  0.3487
  380loPI   C2B 6078   8.196  15.470   8.600  0.1545  0.0101  0.1618
  380loPI   C3B 6079   8.082  15.759   8.165 -0.0165  0.2115 -0.0909
  380loPI   C4B 6080   8.156  15.832   7.760 -0.2455  0.0766  0.0634
  381loPI    C1 6081  11.576  11.339  10.563  0.0088  0.0898  0.1322
  381loPI    C2 6082  11.917  11.184  10.424 -0.1922 -0.1162 -0.1429
  381loPI    C3 6083  11.650  10.948  10.604 -0.3584 -0.0301 -0.2735
  381loPI   PO4 6084  11.518  11.614  10.344 -0.0168 -0.4248  0.0314
  381loPI   GL1 6085  11.494  11.878   9.972 -0.1026 -0.0839 -0.1196
  381loPI   GL2 6086  11.501  12.276  10.074 -0.0799 -0.0090  0.1168
  381loPI   C1A 6087  11.769  11.681   9.695 -0.1205 -0.2678  0.1437
  381loPI   C2A 6088  11.774  11.743   9.203  0.1036  0.0650 -0.0778
  381loPI   C3A 6089  11.814  11.806   8.791  0.2438  0.0568 -0.2462
  381loPI   C4A 6090  11.837  11.772   8.314 -0.3979  0.0476 -0.1392
  381loPI   C5A 6091  12.013  11.559   7.960  0.2158  0.1489  0.0630
  381loPI   C6A 6092  12.104  11.507   7.612 -0.2002  0.1062  0.0462
  381loPI   C1B 6093  11.762  12.177   9.715  0.1132 -0.0517 -0.2228
  381loPI   C2B 6094  12.164  12.505   9.650 -0.2104  0.0353  0.1728
  381loPI   C3B 6095  12.281  12.427   9.277 -0.1381  0.0520  0.4382
  381loPI   C4B 6096  12.498  12.232   8.924 -0.0037  0.0874 -0.0501
  382loPI    C1 6097   5.641   9.835   9.726  0.1943  0.0406 -0.1812
  382loPI    C2 6098   5.871   9.509   9.749 -0.1913 -0.2183  0.1438
  382loPI    C3 6099   5.798   9.726  10.077 -0.0625  0.1123 -0.0413
  382loPI   PO4 6100   5.526   9.740   9.402 -0.2185  0.0403 -0.1198
  382loPI   GL1 6101   5.787   9.609   9.036 -0.0430  0.0524 -0.1192
  382loPI   GL2 6102   6.120   9.761   8.933 -0.0171  0.0203 -0.0271
  382loPI   C1A 6103   5.644   9.800   8.631 -0.0166  0.3964  0.0140
  382loPI   C2A 6104   5.606   9.911   8.239 -0.0269  0.0421  0.2162
  382loPI   C3A 6105   5.510  10.056   7.838  0.1251 -0.2236 -0.4589
  382loPI   C4A 6106   5.289  10.023   7.450 -0.0149 -0.2073 -0.0577
  382loPI   C5A 6107   4.790   9.933   7.405  0.0563  0.0847  0.0946
  382loPI   C6A 6108   4.492   9.893   7.259 -0.2363  0.2548  0.2204
  382loPI   C1B 6109   6.103   9.775   8.498  0.1847  0.2451 -0.2428
  382loPI   C2B 6110   6.307   9.711   8.149 -0.2763 -0.0854 -0.0901
  382loPI   C3B 6111   6.285   9.682   7.750  0.0388 -0.2238 -0.1108
  382loPI   C4B 6112   6.373   9.861   7.355  0.0334 -0.5948 -0.0752
  383loPI    C1 6113   1.745  11.445   9.686  0.0685 -0.0478 -0.1860
  383loPI    C2 6114   1.498  11.387   9.378 -0.0115  0.1744 -0.1656
  383loPI    C3 6115   1.447  11.702   9.618  0.1329  0.0769 -0.0050
  383loPI   PO4 6116   1.955  11.337   9.607  0.0830 -0.0283 -0.1918
  383loPI   GL1 6117   2.292  11.228   9.355  0.0154  0.0882  0.0443
  383loPI   GL2 6118   2.061  11.461   9.151  0.1741  0.2784  0.1803
  383loPI   C1A 6119   2.236  11.063   8.947  0.1261  0.1866 -0.2235
  383loPI   C2A 6120   2.410  11.086   8.518 -0.1094  0.1556  0.0620
  383loPI   C3A 6121   2.698  11.278   8.147 -0.1102 -0.0115  0.1353
  383loPI   C4A 6122   2.768  11.063   7.662 -0.1772 -0.0277 -0.1422
  383loPI   C5A 6123   2.887  10.942   7.263  0.2110 -0.1879  0.1595
  383loPI   C6A 6124   3.049  10.884   6.892 -0.0910 -0.2219  0.0771
  383loPI   C1B 6125   1.972  11.674   8.746 -0.3208  0.1268  0.1529
  383loPI   C2B 6126   1.781  11.679   8.422 -0.0248  0.3914  0.3592
  383loPI   C3B 6127   1.682  12.007   8.100  0.1687 -0.2746  0.0301
  383loPI   C4B 6128   1.622  11.865   7.650  0.1165  0.3642  0.1053
  384loPI    C1 6129   9.117  12.790  10.252  0.1912  0.0221 -0.0122
  384loPI    C2 6130   8.999  13.075  10.508  0.0881  0.1117 -0.1582
  384loPI    C3 6131   9.200  12.756  10.642 -0.2885 -0.0268  0.0916
  384loPI   PO4 6132   9.211  12.972   9.942  0.1070  0.2217  0.3383
  384loPI   GL1 6133   8.959  13.104   9.529  0.1111 -0.2677 -0.0807
  384loPI   GL2 6134   9.114  13.462   9.493  0.1034 -0.3860 -0.0656
  384loPI   C1A 6135   8.904  13.044   9.104 -0.2293 -0.3036  0.0395
  384loPI   C2A 6136   8.971  12.985   8.687  0.1272  0.3343 -0.4456
  384loPI   C3A 6137   9.180  12.994   8.383 -0.1351 -0.4064  0.3154
  384loPI   C4A 6138   9.396  13.010   7.962 -0.0414  0.2209 -0.0388
  384loPI   C5A 6139   9.184  13.269   7.653 -0.1087  0.2687  0.0392
  384loPI   C6A 6140   8.700  13.259   7.571  0.0771  0.1484  0.2439
  384loPI   C1B 6141   9.330  13.647   9.135  0.0353  0.3277 -0.0892
  384loPI   C2B 6142   9.413  13.389   8.776  0.1599  0.0741  0.1800
  384loPI   C3B 6143   9.430  13.418   8.273  0.1518 -0.0433 -0.1800
  384loPI   C4B 6144   9.754  13.452   7.882  0.1288 -0.0472  0.4654
  385loPI    C1 6145   1.690   5.022  10.125  0.1365  0.0219 -0.0701
  385loPI    C2 6146   2.036   5.070   9.929  0.3049  0.4335  0.3091
  385loPI    C3 6147   2.027   4.866  10.273  0.0159 -0.2629 -0.0892
  385loPI   PO4 6148   1.501   5.044   9.846 -0.1189  0.0560  0.0862
  385loPI   GL1 6149   1.654   4.810   9.422  0.0907 -0.3876 -0.0520
  385loPI   GL2 6150   1.918   4.900   9.421  0.0375  0.0649 -0.1247
  385loPI   C1A 6151   1.848   4.657   9.002  0.2021 -0.1798 -0.1959
  385loPI   C2A 6152   1.749   4.575   8.637  0.1284 -0.1296  0.0592
  385loPI   C3A 6153   1.868   4.622   8.230 -0.1724  0.1600 -0.0874
  385loPI   C4A 6154   1.893   4.591   7.772 -0.0587  0.1008  0.3694
  385loPI   C5A 6155   2.062   4.286   7.483 -0.0307  0.1979 -0.0833
  385loPI   C6A 6156   2.435   4.180   7.457 -0.0615 -0.1088  0.0592
  385loPI   C1B 6157   2.261   4.910   8.933 -0.0958 -0.3220  0.0224
  385loPI   C2B 6158   2.506   4.875   8.692 -0.2215 -0.0592  0.0555
  385loPI   C3B 6159   2.904   5.046   8.500 -0.2240  0.0470  0.3754
  385loPI   C4B 6160   3.271   5.026   8.225 -0.1009 -0.2538  0.1162
  386loPI    C1 6161   1.474   3.534  10.386 -0.2129 -0.1357 -0.1372
  386loPI    C2 6162   1.168   3.791  10.403 -0.1092 -0.0101 -0.1604
  386loPI    C3 6163   1.192   3.492  10.667 -0.1151  0.1331  0.0043
  386loPI   PO4 6164   1.639   3.676  10.311  0.0079 -0.0932 -0.0565
  386loPI   GL1 6165   1.909   3.686   9.935  0.3319 -0.0092 -0.0642
  386loPI   GL2 6166   1.626   3.783   9.782 -0.1106  0.2045  0.2059
  386loPI   C1A 6167   2.040   3.392   9.698 -0.1362 -0.0500  0.1400
  386loPI   C2A 6168   2.129   3.263   9.244  0.1571  0.1491  0.0353
  386loPI   C3A 6169   2.101   3.173   8.778  0.2795 -0.1838  0.2954
  386loPI   C4A 6170   2.136   3.158   8.280  0.0476 -0.4530  0.0278
  386loPI   C5A 6171   2.320   3.126   7.866 -0.3583  0.1946  0.0815
  386loPI   C6A 6172   2.528   3.436   7.498 -0.0121 -0.1808 -0.2367
  386loPI   C1B 6173   1.712   3.581   9.393 -0.0005 -0.0726 -0.1664
  386loPI   C2B 6174   1.845   3.566   8.947  0.4383 -0.1079  0.0506
  386loPI   C3B 6175   1.787   3.553   8.509  0.1705 -0.1359 -0.0502
  386loPI   C4B 6176   1.590   3.596   7.988  0.0145  0.3755  0.2557
  387loPI    C1 6177  12.824   5.365   9.883  0.0027 -0.0890 -0.0382
  387loPI    C2 6178  13.013   5.062  10.063  0.1224 -0.0312 -0.0655
  387loPI    C3 6179  12.841   5.348  10.282  0.1895 -0.0090 -0.0416
  387loPI   PO4 6180  12.611   5.257   9.712  0.3009 -0.0811 -0.0636
  387loPI   GL1 6181  12.292   5.387   9.294 -0.0642  0.2587  0.1987
  387loPI   GL2 6182  12.670   5.511   9.301  0.1431 -0.0206 -0.0561
  387loPI   C1A 6183  12.368   5.326   8.864 -0.0899  0.2387 -0.5536
  387loPI   C2A 6184  12.611   5.124   8.491  0.1439  0.0511  0.2266
  387loPI   C3A 6185  12.551   5.002   8.082 -0.1842 -0.0429 -0.0877
  387loPI   C4A 6186  12.746   4.918   7.647  0.2088 -0.3169  0.4241
  387loPI   C5A 6187  13.043   4.873   7.334 -0.2445  0.1482 -0.4199
  387loPI   C6A 6188  13.391   4.634   7.157  0.0219 -0.0112  0.0471
  387loPI   C1B 6189  12.493   5.778   8.973 -0.1536 -0.0954 -0.1122
  387loPI   C2B 6190  12.476   6.001   8.478 -0.0031 -0.2373 -0.0590
  387loPI   C3B 6191  12.359   6.233   8.215 -0.0804  0.0881  0.2414
  387loPI   C4B 6192  12.508   6.151   7.845  0.1589  0.1143  0.0195
  388loPI    C1 6193   9.502  11.856  10.308 -0.0766  0.0033  0.1865
  388loPI    C2 6194   9.768  11.585  10.433 -0.1384 -0.0848  0.1285
  388loPI    C3 6195   9.749  11.943  10.611  0.1196 -0.0229  0.0361
  388loPI   PO4 6196   9.541  11.837  10.058  0.1988 -0.1131  0.0082
  388loPI   GL1 6197   9.434  11.632   9.804  0.2208  0.1202  0.0800
  388loPI   GL2 6198   9.498  11.313   9.888  0.0358 -0.2299 -0.0178
  388loPI   C1A 6199   9.351  11.705   9.342 -0.0811 -0.0531 -0.0932
  388loPI   C2A 6200   9.316  11.743   8.838  0.1683  0.1340  0.1855
  388loPI   C3A 6201   9.394  11.615   8.360 -0.0189 -0.0201  0.0958
  388loPI   C4A 6202   9.295  11.755   7.947 -0.0908  0.0941  0.4854
  388loPI   C5A 6203   9.317  11.796   7.530  0.1578 -0.2063 -0.0134
  388loPI   C6A 6204   9.475  12.093   7.279  0.5082 -0.2061  0.0776
  388loPI   C1B 6205   9.673  11.284   9.464 -0.0597 -0.0928  0.0979
  388loPI   C2B 6206   9.717  11.217   9.098 -0.2357 -0.2395  0.2092
  388loPI   C3B 6207   9.686  11.180   8.625 -0.1328  0.0498 -0.0181
  388loPI   C4B 6208   9.599  11.092   8.181  0.2934  0.0055  0.3330
  389loPI    C1 6209   4.535  13.322   9.407 -0.2055  0.0685 -0.2487
  389loPI    C2 6210   4.646  13.037   9.665  0.0332  0.2673 -0.1272
  389loPI    C3 6211   4.406  13.333   9.786  0.0866  0.3209 -0.1521
  389loPI   PO4 6212   4.476  13.285   9.205  0.1376  0.1520  0.4245
  389loPI   GL1 6213   4.429  13.361   8.879  0.0708 -0.0060  0.0694
  389loPI   GL2 6214   4.678  13.019   8.795 -0.0832  0.1033  0.3426
  389loPI   C1A 6215   4.345  13.389   8.463 -0.3402  0.1780 -0.1453
  389loPI   C2A 6216   4.322  13.364   8.041 -0.1045  0.3184 -0.0551
  389loPI   C3A 6217   4.618  13.392   7.665 -0.0968  0.1824  0.3336
  389loPI   C4A 6218   4.630  13.654   7.306  0.1057  0.3921  0.1817
  389loPI   C5A 6219   4.734  14.017   6.930 -0.1382  0.1721  0.2218
  389loPI   C6A 6220   4.650  13.963   6.537  0.1792  0.1587  0.0758
  389loPI   C1B 6221   4.853  13.099   8.441 -0.0033  0.0323  0.1078
  389loPI   C2B 6222   4.771  13.080   8.014 -0.0340 -0.1536 -0.0700
  389loPI   C3B 6223   4.958  13.044   7.537  0.0803  0.1444 -0.0065
  389loPI   C4B 6224   4.859  13.239   7.214  0.1348  0.1966  0.1320
  390loPI    C1 6225  16.944  10.871   9.734 -0.0794 -0.1117 -0.2073
  390loPI    C2 6226  16.607  10.711   9.877  0.0028 -0.0751  0.0328
  390loPI    C3 6227  16.799  10.992  10.086  0.0153  0.1314 -0.2496
  390loPI   PO4 6228  17.164  10.615   9.627  0.1624  0.2157  0.0823
  390loPI   GL1 6229  17.163  10.433   9.189  0.0337  0.0808 -0.2045
  390loPI   GL2 6230  17.138  10.232   9.255  0.1707  0.1059  0.1812
  390loPI   C1A 6231  17.151  10.466   8.714  0.1441  0.0730 -0.0354
  390loPI   C2A 6232  17.240  10.477   8.258 -0.1957  0.3552 -0.2199
  390loPI   C3A 6233  17.553  10.451   7.957 -0.1571 -0.3670  0.2259
  390loPI   C4A 6234  17.530  10.521   7.620  0.0083 -0.0280  0.1061
  390loPI   C5A 6235  17.865  10.754   7.408 -0.1583 -0.0683  0.6249
  390loPI   C6A 6236  18.064  10.733   7.150 -0.0520  0.0691  0.3552
  390loPI   C1B 6237  17.127  10.008   8.847  0.1876  0.0511  0.2488
  390loPI   C2B 6238  17.137  10.004   8.404  0.0024 -0.1192 -0.3232
  390loPI   C3B 6239  17.032  10.082   8.036  0.0752  0.2220  0.1815
  390loPI   C4B 6240  16.991   9.838   7.595  0.0411 -0.0624 -0.0163
  391loPI    C1 6241   3.697   3.554  10.673  0.0662 -0.1309 -0.0269
  391loPI    C2 6242   3.433   3.826  10.803  0.0974 -0.1182  0.0101
  391loPI    C3 6243   3.809   3.829  10.941  0.1250 -0.1180 -0.0645
  391loPI   PO4 6244   3.726   3.632  10.371 -0.6540 -0.0960  0.2063
  391loPI   GL1 6245   3.930   3.525  10.077 -0.1633 -0.2518  0.0441
  391loPI   GL2 6246   3.862   3.231   9.961 -0.1103 -0.2269  0.0858
  391loPI   C1A 6247   4.128   3.578   9.641  0.0328 -0.3970 -0.1342
  391loPI   C2A 6248   4.186   3.606   9.152 -0.2775  0.0597  0.0431
  391loPI   C3A 6249   4.199   3.667   8.741 -0.0231  0.0854  0.0046
  391loPI   C4A 6250   4.194   3.568   8.318  0.1869 -0.1488 -0.0961
  391loPI   C5A 6251   3.868   3.603   7.953 -0.0985  0.0446 -0.2445
  391loPI   C6A 6252   3.686   3.550   7.518  0.0744  0.2533 -0.0631
  391loPI   C1B 6253   3.822   3.107   9.549  0.1570  0.2764  0.5122
  391loPI   C2B 6254   3.970   2.896   9.302  0.4049  0.1047  0.1940
  391loPI   C3B 6255   3.878   2.733   8.941 -0.2801 -0.1142 -0.6210
  391loPI   C4B 6256   3.615   2.810   8.609 -0.0301 -0.0791 -0.0275
  392loPI    C1 6257   8.780  14.784  10.356 -0.0075 -0.0465  0.0230
  392loPI    C2 6258   8.770  14.426  10.178 -0.0204  0.0537 -0.1805
  392loPI    C3 6259   8.433  14.638  10.220  0.0085  0.0994 -0.1795
  392loPI   PO4 6260   8.949  14.904  10.275  0.1640 -0.2564  0.2293
  392loPI   GL1 6261   9.160  15.025   9.955  0.3827  0.1211  0.1840
  392loPI   GL2 6262   9.115  15.261   9.679  0.3607 -0.1406  0.0106
  392loPI   C1A 6263   9.333  14.723   9.585 -0.1901 -0.0365  0.0555
  392loPI   C2A 6264   9.593  14.391   9.479  0.0366 -0.1076 -0.1144
  392loPI   C3A 6265   9.863  14.071   9.134 -0.0428  0.0314  0.0372
  392loPI   C4A 6266   9.744  13.984   8.793 -0.1756 -0.1034 -0.0229
  392loPI   C5A 6267   9.712  13.754   8.453  0.1864 -0.0136 -0.1905
  392loPI   C6A 6268   9.631  13.887   8.053  0.3523 -0.2160 -0.1196
  392loPI   C1B 6269   9.078  15.254   9.220 -0.0354 -0.2591  0.2994
  392loPI   C2B 6270   8.884  15.157   8.792 -0.0437 -0.0510 -0.0129
  392loPI   C3B 6271   8.580  15.205   8.512  0.0042 -0.1522 -0.4627
  392loPI   C4B 6272   8.200  15.003   8.407  0.2242  0.0259  0.1712
  393loPI    C1 6273   5.161   7.679   9.321 -0.0387 -0.0277 -0.0813
  393loPI    C2 6274   5.050   7.381   9.563  0.2767 -0.2373 -0.1874
  393loPI    C3 6275   5.415   7.541   9.598  0.0120  0.3428  0.0630
  393loPI   PO4 6276   4.858   7.901   9.441 -0.1304 -0.0056  0.2140
  393loPI   GL1 6277   4.544   7.906   9.155 -0.0416 -0.3337 -0.1332
  393loPI   GL2 6278   4.722   7.880   8.917  0.4352 -0.0122 -0.3428
  393loPI   C1A 6279   4.343   7.708   8.785 -0.3507 -0.1619 -0.1507
  393loPI   C2A 6280   4.508   7.471   8.482  0.0515 -0.0025  0.1407
  393loPI   C3A 6281   4.522   7.113   8.170  0.0826  0.0245 -0.0262
  393loPI   C4A 6282   4.654   6.881   7.815 -0.0446 -0.2267 -0.0629
  393loPI   C5A 6283   4.598   6.958   7.338  0.5190 -0.0765  0.1193
  393loPI   C6A 6284   4.397   6.748   6.948  0.0986 -0.2040 -0.1331
  393loPI   C1B 6285   4.603   8.106   8.550  0.0921  0.0862 -0.0086
  393loPI   C2B 6286   4.589   8.275   8.069 -0.1765  0.0621  0.0783
  393loPI   C3B 6287   4.543   8.366   7.670 -0.2674  0.2469  0.0646
  393loPI   C4B 6288   4.728   8.447   7.335  0.1307  0.0720  0.0269
  394loPI    C1 6289  10.554  15.050  10.352 -0.1369 -0.0228  0.1783
  394loPI    C2 6290  10.423  14.678  10.418 -0.0844 -0.0696  0.0234
  394loPI    C3 6291  10.795  14.780  10.522  0.0427 -0.1806 -0.3085
  394loPI   PO4 6292  10.472  15.112  10.045 -0.2893  0.1611 -0.2054
  394loPI   GL1 6293  10.191  15.133   9.681  0.2584  0.3346  0.0031
  394loPI   GL2 6294  10.013  14.761   9.546  0.0907 -0.0456 -0.0105
  394loPI   C1A 6295  10.158  15.266   9.344  0.3911 -0.1737  0.2578
  394loPI   C2A 6296  10.008  15.071   9.029  0.0035  0.2018 -0.2912
  394loPI   C3A 6297   9.760  14.857   8.638 -0.0296 -0.3419  0.0873
  394loPI   C4A 6298   9.943  14.628   8.292 -0.1809 -0.0732  0.1950
  394loPI   C5A 6299  10.393  14.474   8.120 -0.1553  0.0659 -0.0760
  394loPI   C6A 6300  10.598  14.551   7.718 -0.1367 -0.1190  0.0529
  394loPI   C1B 6301   9.948  14.580   9.168  0.3799  0.1202  0.2096
  394loPI   C2B 6302  10.068  14.384   8.755  0.0622  0.2766  0.0649
  394loPI   C3B 6303  10.043  14.153   8.361  0.1320 -0.1746 -0.0647
  394loPI   C4B 6304  10.091  13.682   8.150  0.1157 -0.2286 -0.0175
  395loPI    C1 6305  14.112   7.870  10.300 -0.0371 -0.2050 -0.0543
  395loPI    C2 6306  13.837   7.626  10.457  0.0418 -0.1970  0.0982
  395loPI    C3 6307  14.050   7.866  10.695  0.0649 -0.0829 -0.0365
  395loPI   PO4 6308  13.997   8.004  10.147 -0.1075 -0.0247  0.1270
  395loPI   GL1 6309  13.888   7.948   9.797  0.0767 -0.1913  0.0301
  395loPI   GL2 6310  13.858   7.599   9.838  0.2409  0.0475  0.1871
  395loPI   C1A 6311  13.842   7.944   9.386 -0.1004 -0.3727 -0.0026
  395loPI   C2A 6312  13.989   8.087   8.912 -0.1952 -0.1852 -0.0994
  395loPI   C3A 6313  14.042   8.233   8.444 -0.1609  0.2116 -0.1583
  395loPI   C4A 6314  14.140   8.330   8.025  0.0670 -0.1356 -0.0014
  395loPI   C5A 6315  14.328   8.041   7.735 -0.3046 -0.0620 -0.1624
  395loPI   C6A 6316  14.339   7.765   7.332  0.0889  0.3373  0.0886
  395loPI   C1B 6317  13.815   7.462   9.332 -0.0020 -0.0196  0.1756
  395loPI   C2B 6318  13.707   7.624   8.956  0.0329  0.2282  0.1544
  395loPI   C3B 6319  13.797   7.765   8.528  0.1247 -0.3164  0.4107
  395loPI   C4B 6320  13.943   7.888   8.161  0.3808  0.0044  0.3042
  396loPI    C1 6321  17.971   5.890   9.744 -0.0364 -0.2248 -0.0077
  396loPI    C2 6322  18.061   6.168  10.018 -0.0912 -0.2412  0.0271
  396loPI    C3 6323  18.344   6.032   9.771 -0.1176  0.0214 -0.1507
  396loPI   PO4 6324  17.752   5.857   9.759 -0.1348 -0.0744 -0.1523
  396loPI   GL1 6325  17.551   6.030   9.305 -0.0896 -0.2790  0.0030
  396loPI   GL2 6326  17.410   5.930   9.442  0.2166  0.0460 -0.0034
  396loPI   C1A 6327  17.714   5.775   8.977  0.2420  0.0820  0.0042
  396loPI   C2A 6328  17.742   5.771   8.637 -0.0666 -0.1087 -0.0366
  396loPI   C3A 6329  17.872   5.735   8.164  0.1246 -0.4260  0.3297
  396loPI   C4A 6330  17.970   5.623   7.766  0.0420 -0.1680  0.2259
  396loPI   C5A 6331  17.905   5.319   7.532 -0.2430 -0.2506 -0.0614
  396loPI   C6A 6332  18.113   4.879   7.642  0.0581 -0.4025 -0.0536
  396loPI   C1B 6333  17.319   5.566   9.212  0.0328  0.0647 -0.2455
  396loPI   C2B 6334  17.358   5.470   8.767  0.2352  0.0412 -0.0829
  396loPI   C3B 6335  17.302   5.516   8.335 -0.0118  0.3848 -0.1309
  396loPI   C4B 6336  17.117   5.690   7.942  0.0087  0.1809  0.3454
  397loPI    C1 6337   4.659   6.342   9.530 -0.3163  0.0996  0.0785
  397loPI    C2 6338   4.988   6.355   9.756 -0.1427  0.1907 -0.1745
  397loPI    C3 6339   4.761   6.026   9.753 -0.0300  0.1102 -0.0332
  397loPI   PO4 6340   4.729   6.375   9.310 -0.0713 -0.0826 -0.2936
  397loPI   GL1 6341   5.045   6.552   9.061  0.2182  0.0659 -0.1992
  397loPI   GL2 6342   5.206   6.307   9.287 -0.1152  0.0073  0.0553
  397loPI   C1A 6343   4.949   6.582   8.665 -0.0231  0.0351 -0.0393
  397loPI   C2A 6344   4.876   6.618   8.214 -0.0550 -0.3053  0.3161
  397loPI   C3A 6345   4.901   6.390   7.812 -0.0212 -0.1655 -0.0327
  397loPI   C4A 6346   4.969   6.053   7.554  0.0390 -0.3216  0.0801
  397loPI   C5A 6347   5.248   5.804   7.575  0.2187 -0.3857 -0.0522
  397loPI   C6A 6348   5.527   5.323   7.602  0.1105  0.1541 -0.0297
  397loPI   C1B 6349   5.371   6.286   8.841 -0.0596 -0.2033  0.0780
  397loPI   C2B 6350   5.399   6.178   8.510 -0.1928 -0.1195  0.0148
  397loPI   C3B 6351   5.362   6.393   8.120  0.2550 -0.2953  0.0255
  397loPI   C4B 6352   5.198   6.749   7.838  0.0267  0.1882 -0.1360
  398loPI    C1 6353  10.147  12.027  10.307  0.3040  0.0158  0.0060
  398loPI    C2 6354  10.258  11.688  10.488 -0.2800 -0.1080  0.1524
  398loPI    C3 6355  10.342  12.041  10.657  0.1236 -0.1811  0.1162
  398loPI   PO4 6356  10.077  11.893  10.087 -0.0432 -0.1061 -0.0016
  398loPI   GL1 6357  10.268  11.980   9.739 -0.0787 -0.1614 -0.2111
  398loPI   GL2 6358  10.501  11.807   9.573  0.1888 -0.2331  0.0697
  398loPI   C1A 6359  10.354  12.327   9.534 -0.0133 -0.0543  0.1209
  398loPI   C2A 6360  10.420  12.508   9.117 -0.2428 -0.0094 -0.1813
  398loPI   C3A 6361  10.548  12.428   8.713 -0.0401  0.0009  0.0565
  398loPI   C4A 6362  10.575  12.345   8.200  0.0232  0.3294  0.0056
  398loPI   C5A 6363  10.830  12.139   8.001  0.0933 -0.0138  0.0189
  398loPI   C6A 6364  11.257  11.867   7.752  0.1922  0.1533  0.1455
  398loPI   C1B 6365  10.348  11.984   9.193 -0.0164  0.0388 -0.0484
  398loPI   C2B 6366  10.306  11.920   8.737 -0.3627  0.0674 -0.1263
  398loPI   C3B 6367  10.353  11.830   8.296  0.4197 -0.3536  0.0134
  398loPI   C4B 6368  10.316  11.695   7.880  0.0446  0.1467 -0.0271
  399loPI    C1 6369  15.491   1.157   9.901 -0.0340 -0.0674 -0.0625
  399loPI    C2 6370  15.312   0.801   9.931 -0.0754 -0.0524 -0.1264
  399loPI    C3 6371  15.423   0.998  10.261 -0.1074 -0.0966 -0.0890
  399loPI   PO4 6372  15.396   1.264   9.712  0.2464 -0.0424 -0.0179
  399loPI   GL1 6373  15.403   1.237   9.238  0.3124  0.0193 -0.2852
  399loPI   GL2 6374  15.201   1.211   8.999 -0.0833  0.0939 -0.2495
  399loPI   C1A 6375  15.755   1.106   9.026 -0.0319 -0.0620 -0.0387
  399loPI   C2A 6376  15.844   0.714   8.977 -0.1794 -0.0223  0.1012
  399loPI   C3A 6377  15.812   0.371   8.598  0.3445  0.0834  0.0953
  399loPI   C4A 6378  15.996   0.095   8.246 -0.0901 -0.0159  0.1750
  399loPI   C5A 6379  16.263  -0.206   8.129  0.1124  0.5305 -0.3210
  399loPI   C6A 6380  16.399  -0.157   7.832  0.1317  0.1136  0.0492
  399loPI   C1B 6381  15.437   1.339   8.666  0.1508 -0.2004  0.1259
  399loPI   C2B 6382  15.547   1.226   8.257 -0.0631 -0.0406  0.0587
  399loPI   C3B 6383  15.506   1.009   7.818 -0.0078 -0.0232  0.2863
  399loPI   C4B 6384  15.795   0.864   7.558 -0.0702  0.0457 -0.1556
  400loPI    C1 6385   3.012   3.458  10.688  0.1764 -0.0407 -0.0508
  400loPI    C2 6386   3.236   3.267  10.959  0.2010 -0.0757 -0.0957
  400loPI    C3 6387   2.839   3.221  10.960  0.1695  0.1780  0.1380
  400loPI   PO4 6388   3.154   3.471  10.501  0.0964 -0.2485 -0.3124
  400loPI   GL1 6389   3.356   3.359  10.101  0.3174  0.2075  0.4531
  400loPI   GL2 6390   3.162   3.595   9.972 -0.0404 -0.0230 -0.0888
  400loPI   C1A 6391   3.561   3.511   9.755  0.0580  0.3174 -0.0051
  400loPI   C2A 6392   3.727   3.531   9.338  0.0899  0.0983 -0.0198
  400loPI   C3A 6393   3.336   3.480   9.067 -0.2905 -0.1303 -0.1721
  400loPI   C4A 6394   3.413   3.318   8.680 -0.2363 -0.2495 -0.1505
  400loPI   C5A 6395   3.661   3.310   8.296  0.1653 -0.0569  0.1137
  400loPI   C6A 6396   3.566   3.117   7.877 -0.1955  0.1964 -0.0427
  400loPI   C1B 6397   3.055   3.497   9.569  0.1990  0.2530  0.0870
  400loPI   C2B 6398   2.925   3.197   9.214  0.1676  0.0262 -0.1990
  400loPI   C3B 6399   2.905   3.293   8.794 -0.1371 -0.0349 -0.0909
  400loPI   C4B 6400   3.059   3.332   8.257 -0.3604 -0.0985  0.3607
  401loPI    C1 6401  19.061  10.087   9.911 -0.0405  0.0994 -0.0463
  401loPI    C2 6402  19.163  10.467   9.984  0.0218  0.0633  0.0575
  401loPI    C3 6403  19.431  10.174  10.036  0.0060  0.0152 -0.1238
  401loPI   PO4 6404  19.037  10.157   9.628  0.0389 -0.1737  0.1948
  401loPI   GL1 6405  19.092  10.450   9.269 -0.4623 -0.1769  0.1412
  401loPI   GL2 6406  19.096  10.207   9.081 -0.3981  0.0634  0.0194
  401loPI   C1A 6407  19.257  10.653   8.767  0.2004  0.3539 -0.2295
  401loPI   C2A 6408  19.351  10.709   8.387 -0.1018  0.1906  0.2343
  401loPI   C3A 6409  19.442  10.415   8.089 -0.0335 -0.3143 -0.0326
  401loPI   C4A 6410  19.509  10.403   7.677 -0.1265  0.1020  0.0107
  401loPI   C5A 6411  19.681  10.460   7.299 -0.2387  0.0006  0.2448
  401loPI   C6A 6412  19.897  10.615   7.030  0.0873 -0.0402  0.0263
  401loPI   C1B 6413  19.209  10.156   8.617  0.0243 -0.0900  0.0707
  401loPI   C2B 6414  19.516   9.937   8.341  0.0009 -0.0415  0.4198
  401loPI   C3B 6415  19.550   9.863   7.919  0.2404  0.0554 -0.0120
  401loPI   C4B 6416  19.585   9.969   7.452  0.2086 -0.0414  0.3766
  402loPI    C1 6417   2.770  13.432   9.574 -0.3744  0.2251 -0.1352
  402loPI    C2 6418   2.656  13.484   9.954 -0.0278 -0.0477  0.0111
  402loPI    C3 6419   2.935  13.722   9.795  0.0199 -0.1018  0.0131
  402loPI   PO4 6420   2.810  13.153   9.529 -0.1810 -0.2560  0.0834
  402loPI   GL1 6421   2.964  13.114   9.197  0.1395 -0.3800  0.0468
  402loPI   GL2 6422   3.182  13.370   9.282 -0.1441 -0.1716  0.0557
  402loPI   C1A 6423   2.953  13.082   8.673 -0.0459 -0.1118 -0.0250
  402loPI   C2A 6424   2.626  12.884   8.397  0.0677  0.3222  0.2570
  402loPI   C3A 6425   2.444  12.983   7.966  0.1279 -0.1473 -0.3224
  402loPI   C4A 6426   2.242  13.089   7.609  0.0604  0.2104  0.0039
  402loPI   C5A 6427   2.020  13.317   7.260 -0.1137  0.1704  0.1080
  402loPI   C6A 6428   1.750  13.441   6.999 -0.4024  0.1558  0.0087
  402loPI   C1B 6429   3.132  13.480   8.847  0.1407 -0.1292  0.1416
  402loPI   C2B 6430   3.002  13.557   8.457 -0.2139 -0.0101  0.0454
  402loPI   C3B 6431   3.021  13.788   8.091 -0.1635  0.1983 -0.0117
  402loPI   C4B 6432   3.269  13.922   7.746 -0.2358  0.0404 -0.3702
  403loPI    C1 6433   4.966  15.718   9.845  0.0198  0.2592 -0.0145
  403loPI    C2 6434   5.193  15.580  10.144  0.0172 -0.1393 -0.1897
  403loPI    C3 6435   5.309  15.527   9.765 -0.3403 -0.3021 -0.2800
  403loPI   PO4 6436   4.731  15.601   9.833  0.2376  0.3820  0.2384
  403loPI   GL1 6437   4.423  15.650   9.612  0.1826  0.0673 -0.0124
  403loPI   GL2 6438   4.099  15.694   9.345 -0.2479  0.0403 -0.1525
  403loPI   C1A 6439   4.539  15.748   9.180  0.0780 -0.1134 -0.1555
  403loPI   C2A 6440   4.491  15.979   8.827  0.1512 -0.1131  0.1148
  403loPI   C3A 6441   4.554  16.129   8.365 -0.3784  0.0484  0.1385
  403loPI   C4A 6442   4.475  16.020   7.894  0.1818  0.6197 -0.2331
  403loPI   C5A 6443   4.668  15.718   7.623  0.2032 -0.2143 -0.0775
  403loPI   C6A 6444   4.837  15.503   7.365 -0.1056 -0.0548 -0.4512
  403loPI   C1B 6445   4.066  15.743   8.880 -0.0358  0.0802  0.2144
  403loPI   C2B 6446   4.058  15.878   8.440  0.0808  0.0540 -0.2146
  403loPI   C3B 6447   3.936  15.966   8.040 -0.0673  0.4753  0.1351
  403loPI   C4B 6448   3.827  16.067   7.644  0.2253 -0.1458 -0.3920
  404loPI    C1 6449   2.962  11.886  10.068 -0.0587 -0.0015 -0.1684
  404loPI    C2 6450   3.164  11.589  10.245  0.0387  0.1170 -0.0791
  404loPI    C3 6451   3.128  11.944  10.427 -0.0145  0.1836 -0.2176
  404loPI   PO4 6452   3.107  11.771   9.713  0.1077 -0.0171 -0.0632
  404loPI   GL1 6453   3.201  11.775   9.182 -0.2258  0.0026 -0.0225
  404loPI   GL2 6454   3.515  11.702   9.108 -0.0330  0.0072  0.1389
  404loPI   C1A 6455   2.871  11.865   8.877  0.2503 -0.1539  0.0294
  404loPI   C2A 6456   2.872  11.908   8.504 -0.1618 -0.0140 -0.0932
  404loPI   C3A 6457   2.583  11.734   8.103 -0.1299 -0.1210 -0.1728
  404loPI   C4A 6458   2.532  11.499   7.702 -0.1737 -0.3530 -0.0865
  404loPI   C5A 6459   2.444  11.242   7.328 -0.0042 -0.3182 -0.1155
  404loPI   C6A 6460   2.539  11.280   6.925 -0.0654  0.2748  0.2586
  404loPI   C1B 6461   3.437  11.781   8.725 -0.0384 -0.1090 -0.2248
  404loPI   C2B 6462   3.623  11.840   8.249  0.2193  0.0501 -0.0814
  404loPI   C3B 6463   3.383  12.008   7.920  0.0213  0.0493  0.2254
  404loPI   C4B 6464   3.241  12.234   7.563  0.1661  0.1810 -0.1474
  405loPI    C1 6465   2.441  11.521   9.695  0.2720  0.4894  0.0113
  405loPI    C2 6466   2.597  11.562  10.061  0.6325 -0.2857 -0.0347
  405loPI    C3 6467   2.369  11.245   9.975  0.1024  0.1605 -0.3472
  405loPI   PO4 6468   2.662  11.612   9.578  0.3115  0.0125 -0.2012
  405loPI   GL1 6469   2.770  11.478   9.267  0.2022  0.0001  0.1428
  405loPI   GL2 6470   2.893  11.349   9.121  0.2538 -0.5437  0.2176
  405loPI   C1A 6471   2.489  11.505   8.953 -0.3294  0.1284 -0.0801
  405loPI   C2A 6472   2.449  11.587   8.580  0.0981 -0.0897  0.0649
  405loPI   C3A 6473   2.221  11.425   8.244 -0.1430 -0.2924  0.0369
  405loPI   C4A 6474   2.036  11.555   7.887  0.1137  0.0749 -0.0115
  405loPI   C5A 6475   2.130  11.677   7.469 -0.1526 -0.3475  0.0797
  405loPI   C6A 6476   2.093  11.928   7.137 -0.0754 -0.1625 -0.1061
  405loPI   C1B 6477   3.026  11.443   8.673 -0.2580 -0.1006 -0.2274
  405loPI   C2B 6478   3.174  11.541   8.302  0.1760 -0.1146  0.1938
  405loPI   C3B 6479   3.042  11.687   7.829 -0.2541 -0.0065  0.3263
  405loPI   C4B 6480   3.041  11.440   7.524  0.0020 -0.1293  0.2504
  406loPI    C1 6481  13.801  11.941  10.282 -0.0469 -0.0903  0.0366
  406loPI    C2 6482  14.080  11.727  10.092  0.0548 -0.0278  0.1143
  406loPI    C3 6483  14.107  11.786  10.487 -0.0657 -0.0164  0.1213
  406loPI   PO4 6484  13.760  12.138  10.143 -0.0264 -0.0623  0.0706
  406loPI   GL1 6485  13.874  12.068   9.722 -0.0297 -0.3582  0.0415
  406loPI   GL2 6486  13.673  12.422   9.736 -0.5133  0.2022  0.1211
  406loPI   C1A 6487  13.847  11.817   9.326 -0.2150 -0.1849 -0.0501
  406loPI   C2A 6488  13.902  12.002   8.869 -0.2331 -0.3037  0.2207
  406loPI   C3A 6489  13.958  12.214   8.505 -0.1453  0.0041  0.1029
  406loPI   C4A 6490  13.753  12.161   8.109  0.3322 -0.1824 -0.0488
  406loPI   C5A 6491  13.426  12.108   7.713 -0.1075  0.2629 -0.1986
  406loPI   C6A 6492  13.097  11.987   7.421  0.1630  0.0509 -0.3232
  406loPI   C1B 6493  13.549  12.314   9.223 -0.1586 -0.0516 -0.0821
  406loPI   C2B 6494  13.452  12.276   8.813 -0.2449  0.0422  0.1058
  406loPI   C3B 6495  13.368  12.170   8.449  0.3004  0.0751 -0.0613
  406loPI   C4B 6496  13.074  12.037   8.025 -0.0319 -0.2414 -0.0171
  407loPI    C1 6497   7.578  10.171  10.084  0.0870 -0.0013  0.0509
  407loPI    C2 6498   7.671  10.305  10.449 -0.0904  0.0954  0.0614
  407loPI    C3 6499   7.329  10.106  10.390 -0.1502  0.2398 -0.0869
  407loPI   PO4 6500   7.590  10.388   9.896  0.0552  0.1870 -0.2187
  407loPI   GL1 6501   7.908  10.517   9.639 -0.0928 -0.0658  0.0643
  407loPI   GL2 6502   7.699  10.688   9.486  0.0040  0.0567 -0.0367
  407loPI   C1A 6503   7.899  10.269   9.267 -0.2988 -0.0137  0.0267
  407loPI   C2A 6504   8.118  10.208   8.827  0.0493  0.2118  0.0659
  407loPI   C3A 6505   8.049  10.136   8.375 -0.0378  0.2039 -0.1899
  407loPI   C4A 6506   8.087  10.249   7.987 -0.0215  0.0242 -0.0887
  407loPI   C5A 6507   7.916  10.297   7.571  0.3622 -0.0018 -0.1699
  407loPI   C6A 6508   7.938  10.295   7.145 -0.0423 -0.0527 -0.0387
  407loPI   C1B 6509   7.838  10.765   9.084 -0.0716  0.0066 -0.2150
  407loPI   C2B 6510   7.810  10.594   8.703  0.1893 -0.1469  0.0796
  407loPI   C3B 6511   7.869  10.627   8.286 -0.1461  0.0412  0.0921
  407loPI   C4B 6512   7.815  10.759   7.830 -0.1217  0.1962  0.0879
  408loPI    C1 6513  15.023  13.704  10.428 -0.0632  0.0777 -0.2524
  408loPI    C2 6514  14.655  13.562  10.496 -0.0051  0.0232 -0.0436
  408loPI    C3 6515  14.884  13.679  10.803  0.1102  0.1625 -0.1811
  408loPI   PO4 6516  15.124  13.447  10.254 -0.0978 -0.1461  0.0720
  408loPI   GL1 6517  15.221  13.180   9.932 -0.1035  0.1491  0.3378
  408loPI   GL2 6518  15.444  12.901   9.747 -0.1354 -0.1616  0.1618
  408loPI   C1A 6519  15.064  13.344   9.547  0.0445 -0.2819  0.1744
  408loPI   C2A 6520  14.988  13.568   9.288  0.2372  0.1734 -0.0801
  408loPI   C3A 6521  14.816  13.753   8.856 -0.0786  0.0138  0.2163
  408loPI   C4A 6522  14.762  13.906   8.435 -0.1869  0.3337  0.0338
  408loPI   C5A 6523  14.751  13.619   8.096  0.0551  0.1672  0.0767
  408loPI   C6A 6524  14.737  13.323   7.711  0.2361 -0.1673 -0.0813
  408loPI   C1B 6525  15.419  13.092   9.360  0.0548 -0.3076 -0.3043
  408loPI   C2B 6526  15.780  13.191   9.022 -0.1325  0.0713  0.1349
  408loPI   C3B 6527  15.855  13.623   8.832  0.4141  0.2515  0.1580
  408loPI   C4B 6528  15.712  14.053   8.690 -0.1569 -0.0608 -0.1152
  409loPI    C1 6529   3.888   9.703   9.707  0.0130  0.0505 -0.0759
  409loPI    C2 6530   4.277   9.733   9.797  0.0265  0.1520 -0.1652
  409loPI    C3 6531   4.005   9.920  10.022  0.0411  0.2056 -0.1921
  409loPI   PO4 6532   3.883   9.666   9.361 -0.0786  0.2590 -0.2005
  409loPI   GL1 6533   3.513   9.728   9.022  0.5355  0.1257 -0.1378
  409loPI   GL2 6534   3.301   9.479   9.006 -0.1686  0.5520 -0.1301
  409loPI   C1A 6535   3.884   9.918   8.715 -0.2030  0.3006  0.0534
  409loPI   C2A 6536   4.144  10.031   8.368  0.0194 -0.2282  0.1060
  409loPI   C3A 6537   4.398  10.150   8.001  0.1885  0.1175  0.1162
  409loPI   C4A 6538   4.384  10.261   7.575 -0.2665  0.1142  0.3069
  409loPI   C5A 6539   4.265  10.298   7.116 -0.5437  0.2087 -0.0487
  409loPI   C6A 6540   4.393  10.067   6.708 -0.0220 -0.0600 -0.2389
  409loPI   C1B 6541   3.306   9.577   8.545  0.1030 -0.2256 -0.3646
  409loPI   C2B 6542   3.289   9.557   8.073  0.1923  0.3243  0.0054
  409loPI   C3B 6543   3.773   9.359   7.915 -0.1265 -0.0593  0.0512
  409loPI   C4B 6544   4.087   9.145   7.557  0.1323 -0.2187 -0.0665
  410loPI    C1 6545  16.279  10.836   9.564  0.0650  0.3586  0.2232
  410loPI    C2 6546  16.298  11.082   9.879 -0.0227  0.5614  0.0727
  410loPI    C3 6547  16.537  11.141   9.564  0.3023  0.1608  0.2340
  410loPI   PO4 6548  16.028  10.798   9.588  0.3122 -0.1355 -0.1841
  410loPI   GL1 6549  15.732  10.907   9.338 -0.0532  0.2456  0.1254
  410loPI   GL2 6550  15.726  10.655   9.155  0.0570 -0.0535  0.0954
  410loPI   C1A 6551  15.604  11.021   8.878 -0.1354  0.2526  0.0556
  410loPI   C2A 6552  15.671  10.887   8.459  0.0555 -0.3442 -0.0200
  410loPI   C3A 6553  15.735  11.069   8.159  0.0392  0.1516  0.3467
  410loPI   C4A 6554  15.913  11.239   7.798  0.0762 -0.0543  0.1974
  410loPI   C5A 6555  16.307  11.199   7.585 -0.0952  0.3623 -0.1950
  410loPI   C6A 6556  16.621  10.932   7.528  0.0033 -0.1290  0.0324
  410loPI   C1B 6557  15.886  10.526   8.789  0.1812  0.0908  0.1885
  410loPI   C2B 6558  15.857  10.397   8.335  0.0382  0.1739  0.1322
  410loPI   C3B 6559  15.906  10.075   8.049 -0.1138  0.0665  0.3574
  410loPI   C4B 6560  16.034   9.885   7.607  0.3343  0.1536  0.1124
  411loPI    C1 6561   5.789   7.792   9.779 -0.0711  0.0165 -0.0863
  411loPI    C2 6562   5.918   7.598  10.104  0.0485 -0.4380 -0.3967
  411loPI    C3 6563   5.526   7.646  10.042  0.0297  0.0003  0.0063
  411loPI   PO4 6564   5.929   7.650   9.581  0.0540  0.1455 -0.0720
  411loPI   GL1 6565   6.083   7.884   9.294  0.0032 -0.1895 -0.0119
  411loPI   GL2 6566   6.136   7.523   9.100  0.0217  0.1716  0.0342
  411loPI   C1A 6567   5.911   8.186   8.991 -0.1742 -0.1515 -0.1019
  411loPI   C2A 6568   5.889   8.310   8.666 -0.1460  0.1734  0.1055
  411loPI   C3A 6569   6.053   8.264   8.352 -0.1061  0.1306 -0.0361
  411loPI   C4A 6570   6.305   8.332   7.910  0.2035 -0.0395  0.1676
  411loPI   C5A 6571   6.250   8.237   7.479 -0.0798  0.2864 -0.0717
  411loPI   C6A 6572   6.035   7.878   7.202  0.0365 -0.1217 -0.0757
  411loPI   C1B 6573   5.905   7.650   8.775 -0.2029  0.3944  0.2720
  411loPI   C2B 6574   5.924   7.653   8.326  0.0641  0.0125 -0.1169
  411loPI   C3B 6575   5.918   7.877   7.956  0.2403 -0.2534  0.0655
  411loPI   C4B 6576   5.663   7.868   7.579 -0.2441  0.2160  0.1386
  412loPI    C1 6577   1.133   1.208  10.355 -0.0381 -0.0842 -0.1391
  412loPI    C2 6578   0.800   1.408  10.260 -0.0724  0.0055  0.1591
  412loPI    C3 6579   0.903   1.362  10.644  0.3549  0.1352  0.0655
  412loPI   PO4 6580   1.106   1.035  10.211  0.0236 -0.0653  0.0199
  412loPI   GL1 6581   1.079   1.135   9.833 -0.1385 -0.0137  0.2012
  412loPI   GL2 6582   0.802   1.382   9.744 -0.0080 -0.0996  0.4769
  412loPI   C1A 6583   1.139   1.153   9.383  0.0081 -0.0777  0.3798
  412loPI   C2A 6584   1.227   1.212   8.950  0.1441  0.1577 -0.5119
  412loPI   C3A 6585   1.503   1.500   8.673  0.0821  0.2017  0.0117
  412loPI   C4A 6586   1.568   1.815   8.423  0.1147 -0.0445  0.0436
  412loPI   C5A 6587   1.687   2.106   8.216  0.1062  0.2768 -0.4422
  412loPI   C6A 6588   2.078   2.210   8.081  0.1915 -0.1603 -0.0710
  412loPI   C1B 6589   1.015   1.618   9.339 -0.0314 -0.1036 -0.0167
  412loPI   C2B 6590   1.120   1.736   8.953 -0.0284 -0.1114 -0.0984
  412loPI   C3B 6591   1.269   2.041   8.835 -0.0009 -0.3105  0.0823
  412loPI   C4B 6592   1.332   2.303   8.533  0.0022 -0.1923 -0.0150
  413loPI    C1 6593   4.735   0.453  10.414 -0.1069 -0.0200  0.1163
  413loPI    C2 6594   4.517   0.204  10.637 -0.0001 -0.2705 -0.0543
  413loPI    C3 6595   4.823   0.063  10.423  0.1380  0.0290 -0.0582
  413loPI   PO4 6596   4.670   0.596  10.240 -0.0863 -0.2557 -0.0055
  413loPI   GL1 6597   4.739   0.756   9.923  0.0169 -0.0603 -0.0394
  413loPI   GL2 6598   4.509   0.917   9.741 -0.1072 -0.0786  0.0852
  413loPI   C1A 6599   4.581   0.458   9.632  0.0142 -0.0612 -0.0423
  413loPI   C2A 6600   4.369   0.205   9.446  0.1193  0.0068 -0.2264
  413loPI   C3A 6601   4.127   0.213   9.166 -0.3363  0.2918  0.0638
  413loPI   C4A 6602   3.744   0.075   8.973 -0.0207 -0.1362  0.1238
  413loPI   C5A 6603   3.727   0.014   8.472 -0.2125 -0.1684  0.0403
  413loPI   C6A 6604   3.889   0.017   8.108  0.0050  0.0388 -0.0463
  413loPI   C1B 6605   4.767   0.910   9.356 -0.3611 -0.4139  0.3866
  413loPI   C2B 6606   4.865   1.089   8.945 -0.0805  0.0479 -0.1004
  413loPI   C3B 6607   4.888   1.038   8.439  0.0787 -0.1200  0.1739
  413loPI   C4B 6608   4.651   1.063   8.024 -0.2392  0.2485 -0.0575
  414loPI    C1 6609   6.853   9.930  10.078 -0.1343  0.0723 -0.2028
  414loPI    C2 6610   6.748   9.885  10.461  0.0589  0.0133 -0.1553
  414loPI    C3 6611   6.959   9.599  10.277  0.2078  0.1653 -0.2234
  414loPI   PO4 6612   6.671   9.980   9.980 -0.1219 -0.0751 -0.0630
  414loPI   GL1 6613   6.659  10.126   9.539  0.0860 -0.0908 -0.1677
  414loPI   GL2 6614   6.474  10.235   9.378  0.0948  0.0841 -0.2519
  414loPI   C1A 6615   6.982  10.214   9.192 -0.1690 -0.0108 -0.2469
  414loPI   C2A 6616   7.048  10.306   8.759  0.4631  0.1385 -0.3964
  414loPI   C3A 6617   6.874  10.571   8.412  0.2014 -0.0804  0.0684
  414loPI   C4A 6618   6.731  10.578   8.017 -0.1736  0.0995 -0.2842
  414loPI   C5A 6619   6.640  10.727   7.601  0.0266  0.0933 -0.0637
  414loPI   C6A 6620   6.640  11.125   7.371  0.2922  0.0557 -0.1667
  414loPI   C1B 6621   6.517  10.110   8.977 -0.1793  0.0325  0.0212
  414loPI   C2B 6622   6.546  10.128   8.658 -0.0910 -0.1883  0.3936
  414loPI   C3B 6623   6.738  10.048   8.240 -0.2055  0.1158 -0.0414
  414loPI   C4B 6624   7.122  10.194   8.021  0.0514  0.2208  0.0166
  415loPI    C1 6625   6.672   3.896   9.872  0.0387  0.2730  0.2817
  415loPI    C2 6626   6.927   4.163  10.025  0.3846  0.0595  0.0904
  415loPI    C3 6627   7.063   3.864   9.796 -0.0181 -0.1722  0.1432
  415loPI   PO4 6628   6.444   4.088   9.816 -0.0040  0.1214 -0.0342
  415loPI   GL1 6629   6.164   4.298   9.562 -0.0979 -0.0781 -0.1261
  415loPI   GL2 6630   6.256   3.988   9.400  0.0423  0.0645 -0.1164
  415loPI   C1A 6631   5.918   4.371   9.264  0.0275  0.3506 -0.4114
  415loPI   C2A 6632   5.791   4.385   8.771 -0.2429 -0.0441  0.0365
  415loPI   C3A 6633   5.692   4.657   8.452 -0.3110  0.0314  0.0050
  415loPI   C4A 6634   5.575   5.025   8.349  0.2104 -0.0297 -0.0356
  415loPI   C5A 6635   5.351   5.290   8.101 -0.0747 -0.0644  0.0753
  415loPI   C6A 6636   5.576   5.682   7.963  0.0995 -0.1691  0.0332
  415loPI   C1B 6637   6.388   4.120   8.996  0.2119 -0.1632 -0.1050
  415loPI   C2B 6638   6.500   3.976   8.521 -0.1349  0.0938 -0.1482
  415loPI   C3B 6639   6.765   3.852   8.142  0.4404  0.2149  0.1630
  415loPI   C4B 6640   6.531   3.867   7.732 -0.2386 -0.0208 -0.1103
  416loPI    C1 6641  18.226   9.062  10.070  0.0440  0.1690  0.1186
  416loPI    C2 6642  18.506   8.930  10.323  0.0073 -0.0525  0.0463
  416loPI    C3 6643  18.156   9.065  10.463  0.2336  0.4480  0.1535
  416loPI   PO4 6644  18.395   8.928   9.774 -0.1771  0.0843 -0.0146
  416loPI   GL1 6645  18.394   8.716   9.352  0.4416 -0.1373  0.0019
  416loPI   GL2 6646  18.213   8.576   9.168 -0.0011 -0.3081  0.1652
  416loPI   C1A 6647  18.503   8.852   8.859 -0.0936 -0.3588 -0.1955
  416loPI   C2A 6648  18.524   8.819   8.417 -0.0308  0.2468  0.3075
  416loPI   C3A 6649  18.405   8.746   7.939  0.0334  0.4807 -0.1785
  416loPI   C4A 6650  18.434   8.519   7.508  0.1398  0.0037 -0.1893
  416loPI   C5A 6651  18.373   8.345   7.152  0.1329 -0.0156  0.0167
  416loPI   C6A 6652  18.234   8.628   6.744  0.1901  0.0565 -0.1746
  416loPI   C1B 6653  18.136   8.577   8.757 -0.2196  0.2434  0.1167
  416loPI   C2B 6654  18.058   8.735   8.319  0.0087 -0.1053 -0.1029
  416loPI   C3B 6655  17.872   8.714   7.971 -0.0192 -0.0616 -0.4119
  416loPI   C4B 6656  17.945   8.721   7.660 -0.3002  0.0779  0.0553
  417loPI    C1 6657   2.654   4.043  10.831 -0.0380  0.2367  0.1632
  417loPI    C2 6658   2.320   4.157  10.644  0.1396  0.2187 -0.1726
  417loPI    C3 6659   2.502   4.407  10.898 -0.2853  0.1208  0.2414
  417loPI   PO4 6660   2.778   3.876  10.476  0.0648  0.1644  0.0011
  417loPI   GL1 6661   2.647   3.912  10.107  0.2332 -0.0795 -0.2357
  417loPI   GL2 6662   2.327   4.008   9.981 -0.0228 -0.0214  0.1194
  417loPI   C1A 6663   2.744   3.874   9.587 -0.0698 -0.1499 -0.0660
  417loPI   C2A 6664   2.951   3.785   9.163 -0.0666  0.0922 -0.0355
  417loPI   C3A 6665   3.140   3.774   8.732 -0.0232  0.1017  0.0674
  417loPI   C4A 6666   3.341   3.755   8.269  0.0249  0.0174 -0.0941
  417loPI   C5A 6667   3.402   3.752   7.877 -0.1027 -0.1298 -0.1129
  417loPI   C6A 6668   3.680   4.065   7.669 -0.2714  0.0330 -0.0334
  417loPI   C1B 6669   2.240   3.941   9.494  0.1304  0.2590 -0.3308
  417loPI   C2B 6670   2.143   3.927   9.080 -0.0796  0.2491  0.0540
  417loPI   C3B 6671   1.961   4.040   8.702  0.0633  0.2536  0.3872
  417loPI   C4B 6672   1.763   4.124   8.323 -0.0290  0.0911  0.0634
  418loPI    C1 6673   4.829   3.158  10.270 -0.0780  0.1390  0.2947
  418loPI    C2 6674   5.124   2.999  10.489  0.0767  0.3705  0.2574
  418loPI    C3 6675   5.189   3.331  10.275 -0.1144  0.2303 -0.0255
  418loPI   PO4 6676   4.599   3.082  10.377  0.1405 -0.0020  0.1041
  418loPI   GL1 6677   4.353   2.927  10.122 -0.0460 -0.0478 -0.1047
  418loPI   GL2 6678   4.056   2.765  10.078 -0.2208  0.0986  0.1234
  418loPI   C1A 6679   4.339   3.119   9.773 -0.2069  0.0522 -0.0660
  418loPI   C2A 6680   4.420   3.133   9.316 -0.1052  0.3366 -0.1620
  418loPI   C3A 6681   4.332   2.985   8.933  0.0829 -0.3106 -0.3380
  418loPI   C4A 6682   4.078   2.891   8.500 -0.0510  0.2323 -0.3622
  418loPI   C5A 6683   3.875   2.742   8.141 -0.3160  0.0726  0.0829
  418loPI   C6A 6684   3.604   2.618   7.917 -0.1258 -0.1551 -0.1098
  418loPI   C1B 6685   4.223   2.601   9.744 -0.1864 -0.1034 -0.0621
  418loPI   C2B 6686   4.330   2.525   9.180 -0.0971  0.0926 -0.1741
  418loPI   C3B 6687   4.316   2.529   8.706 -0.2375 -0.1196  0.0396
  418loPI   C4B 6688   4.291   2.387   8.272 -0.0740  0.1850 -0.1038
  419loPI    C1 6689   9.987  14.687  10.026  0.0957  0.1037 -0.1854
  419loPI    C2 6690  10.039  14.980  10.292  0.1652  0.1573 -0.2577
  419loPI    C3 6691   9.820  14.660  10.389 -0.0183  0.2918 -0.2221
  419loPI   PO4 6692  10.373  14.653   9.864  0.0765 -0.0876 -0.0454
  419loPI   GL1 6693  10.461  14.376   9.633  0.2434 -0.1457 -0.3458
  419loPI   GL2 6694  10.786  14.174   9.564 -0.0069  0.1573 -0.0445
  419loPI   C1A 6695  10.391  14.191   9.283 -0.2456  0.1897  0.0331
  419loPI   C2A 6696  10.594  14.214   8.862  0.0741  0.1452 -0.1373
  419loPI   C3A 6697  10.882  14.187   8.485 -0.1674 -0.2701 -0.0694
  419loPI   C4A 6698  11.302  14.097   8.374 -0.1883  0.0675  0.2311
  419loPI   C5A 6699  11.182  14.002   7.961  0.2767  0.0483  0.0024
  419loPI   C6A 6700  10.940  14.228   7.572  0.0806  0.2975  0.0380
  419loPI   C1B 6701  11.142  13.889   9.562 -0.1537 -0.1970  0.2779
  419loPI   C2B 6702  11.343  13.725   9.175 -0.0027 -0.0930  0.1985
  419loPI   C3B 6703  11.766  13.579   9.114 -0.0064 -0.0909  0.4504
  419loPI   C4B 6704  12.055  13.313   9.158 -0.0755 -0.1663  0.1051
  420loPI    C1 6705   2.192   0.288  10.021  0.1037 -0.0035  0.0977
  420loPI    C2 6706   1.852   0.446  10.161  0.0026  0.0502 -0.2025
  420loPI    C3 6707   1.884   0.050  10.113  0.0397  0.0310 -0.0253
  420loPI   PO4 6708   2.395   0.446  10.091  0.0286 -0.3065 -0.2454
  420loPI   GL1 6709   2.556   0.596   9.774 -0.0243 -0.0523  0.1492
  420loPI   GL2 6710   2.840   0.541   9.890 -0.1128 -0.0309  0.1433
  420loPI   C1A 6711   2.172   0.602   9.437  0.4805  0.2123  0.0247
  420loPI   C2A 6712   2.041   0.650   8.989  0.4700  0.0985 -0.0453
  420loPI   C3A 6713   2.112   0.668   8.617  0.1036 -0.3903  0.0213
  420loPI   C4A 6714   1.841   0.661   8.254  0.2376 -0.0172  0.3301
  420loPI   C5A 6715   1.566   0.773   7.930 -0.2875 -0.1156  0.0072
  420loPI   C6A 6716   1.260   0.476   7.728  0.1175 -0.0333  0.0097
  420loPI   C1B 6717   3.016   0.500   9.534 -0.1979  0.2063 -0.0783
  420loPI   C2B 6718   3.065   0.683   9.107  0.2595 -0.2410 -0.1522
  420loPI   C3B 6719   3.144   0.767   8.732  0.2230  0.0720  0.1052
  420loPI   C4B 6720   3.091   0.607   8.438 -0.0599 -0.0453  0.1187
  421loPI    C1 6721  14.338   4.502   9.688  0.2687  0.0939  0.2408
  421loPI    C2 6722  14.511   4.291   9.980  0.0736 -0.4198 -0.0033
  421loPI    C3 6723  14.119   4.249   9.907 -0.0596  0.3345  0.1988
  421loPI   PO4 6724  14.494   4.668   9.557  0.1619  0.2551 -0.2309
  421loPI   GL1 6725  14.615   4.754   9.333  0.3376 -0.2021 -0.2780
  421loPI   GL2 6726  14.862   4.585   9.178  0.2854 -0.3138 -0.2047
  421loPI   C1A 6727  14.481   4.789   8.840  0.1181 -0.4380 -0.1918
  421loPI   C2A 6728  14.321   4.697   8.488 -0.0804  0.0695 -0.3025
  421loPI   C3A 6729  14.433   4.503   8.218  0.3304 -0.0243  0.0574
  421loPI   C4A 6730  14.295   4.246   7.921 -0.1687  0.0033 -0.2677
  421loPI   C5A 6731  13.999   4.306   7.631  0.1257 -0.0468 -0.0407
  421loPI   C6A 6732  13.783   4.080   7.376  0.2501 -0.0854  0.3395
  421loPI   C1B 6733  14.863   4.538   8.795 -0.0354 -0.0821 -0.3431
  421loPI   C2B 6734  14.828   4.784   8.422  0.2091  0.3215  0.3973
  421loPI   C3B 6735  14.822   4.782   7.973 -0.1880 -0.1250  0.2266
  421loPI   C4B 6736  14.499   4.581   7.592 -0.1102  0.2628  0.0579
  422loPI    C1 6737   5.540  17.442   9.976 -0.1939 -0.1078  0.3238
  422loPI    C2 6738   5.777  17.365  10.289 -0.0698  0.2958  0.3342
  422loPI    C3 6739   5.849  17.683  10.057 -0.1078 -0.0450 -0.1605
  422loPI   PO4 6740   5.326  17.437  10.046 -0.1500  0.6540  0.0367
  422loPI   GL1 6741   4.892  17.515   9.883  0.2954  0.1053 -0.1547
  422loPI   GL2 6742   4.981  17.880   9.977  0.0919 -0.2063  0.0173
  422loPI   C1A 6743   4.695  17.447   9.488  0.1731  0.1631  0.0213
  422loPI   C2A 6744   4.541  17.545   9.161  0.0779 -0.1161  0.1488
  422loPI   C3A 6745   4.543  17.599   8.798  0.0992 -0.1928 -0.4749
  422loPI   C4A 6746   4.703  17.725   8.400 -0.0805  0.0236 -0.2523
  422loPI   C5A 6747   4.828  17.974   8.092 -0.0763 -0.2379  0.2897
  422loPI   C6A 6748   5.185  18.200   8.072  0.0566  0.2469  0.1185
  422loPI   C1B 6749   4.748  17.937   9.535  0.0348 -0.0893  0.0271
  422loPI   C2B 6750   4.643  18.067   9.201  0.1917 -0.0825  0.0774
  422loPI   C3B 6751   4.617  18.076   8.805 -0.1496 -0.0039 -0.0837
  422loPI   C4B 6752   4.889  18.250   8.518  0.3308  0.0520  0.0988
  423loPI    C1 6753   3.651  17.735  10.518  0.0886  0.4465  0.2573
  423loPI    C2 6754   3.475  17.547  10.825  0.0589  0.0064 -0.0204
  423loPI    C3 6755   3.861  17.652  10.849  0.0594 -0.0332  0.1627
  423loPI   PO4 6756   3.604  17.546  10.313  0.2705 -0.0157  0.0874
  423loPI   GL1 6757   3.813  17.336  10.036 -0.1036  0.2434  0.0992
  423loPI   GL2 6758   3.675  17.068   9.958  0.1354  0.1515 -0.1540
  423loPI   C1A 6759   4.120  17.373   9.634  0.1066  0.0186  0.1983
  423loPI   C2A 6760   4.107  17.246   9.263 -0.1415 -0.1128  0.1014
  423loPI   C3A 6761   4.015  17.322   8.763 -0.0299 -0.0472  0.1297
  423loPI   C4A 6762   4.072  17.502   8.332 -0.3788  0.0528 -0.1209
  423loPI   C5A 6763   4.179  17.829   8.075 -0.0598  0.2205 -0.1669
  423loPI   C6A 6764   4.170  18.334   8.023 -0.0461  0.1616  0.3982
  423loPI   C1B 6765   3.720  17.092   9.541 -0.2821  0.1829  0.0639
  423loPI   C2B 6766   3.659  17.040   9.049 -0.0223  0.1470  0.1768
  423loPI   C3B 6767   3.591  17.142   8.611  0.2789  0.0566 -0.1101
  423loPI   C4B 6768   3.726  17.158   8.273  0.1420  0.1256  0.0960
  424loPI    C1 6769  18.346  11.179  10.030 -0.0900 -0.0724  0.0678
  424loPI    C2 6770  18.452  10.977   9.702 -0.0024  0.0418  0.0251
  424loPI    C3 6771  18.729  11.080   9.972 -0.0551  0.0564  0.0739
  424loPI   PO4 6772  18.133  11.308   9.895 -0.1019  0.3172 -0.0245
  424loPI   GL1 6773  18.154  11.354   9.396 -0.1241  0.0447 -0.3448
  424loPI   GL2 6774  18.473  11.188   9.269  0.2732  0.1871  0.1540
  424loPI   C1A 6775  18.029  11.692   9.039  0.0412 -0.0307 -0.1173
  424loPI   C2A 6776  18.060  11.761   8.561  0.1105 -0.1771  0.1862
  424loPI   C3A 6777  18.330  11.599   8.252 -0.2508  0.0976  0.2662
  424loPI   C4A 6778  18.468  11.356   7.983 -0.0349  0.0524 -0.0640
  424loPI   C5A 6779  18.895  11.300   7.736  0.1397 -0.1346 -0.0688
  424loPI   C6A 6780  19.111  11.366   7.345  0.4955  0.0668  0.1412
  424loPI   C1B 6781  18.497  10.923   8.964 -0.0950 -0.3000  0.1336
  424loPI   C2B 6782  18.798  10.998   8.682 -0.1235  0.0552  0.0715
  424loPI   C3B 6783  19.302  11.143   8.649  0.1780 -0.0048  0.0828
  424loPI   C4B 6784  19.472  11.397   8.239 -0.1122 -0.3062 -0.0529
  425loPI    C1 6785   8.125   2.643   9.862 -0.0867 -0.0711  0.1083
  425loPI    C2 6786   8.371   2.624  10.176  0.0035 -0.0955  0.0363
  425loPI    C3 6787   7.994   2.747  10.226  0.0141 -0.1099  0.1559
  425loPI   PO4 6788   8.293   2.549   9.677 -0.0308  0.0692  0.0617
  425loPI   GL1 6789   8.431   2.666   9.346 -0.0364  0.3455  0.2706
  425loPI   GL2 6790   8.738   2.860   9.331 -0.1332 -0.1059  0.3604
  425loPI   C1A 6791   8.126   2.618   8.957  0.1361 -0.0283  0.0240
  425loPI   C2A 6792   8.179   2.664   8.571 -0.3722  0.1524 -0.0780
  425loPI   C3A 6793   8.211   2.749   8.092 -0.2790  0.1056 -0.2497
  425loPI   C4A 6794   8.382   2.997   7.786  0.4826  0.1711 -0.1620
  425loPI   C5A 6795   8.375   2.818   7.323 -0.0623  0.0866  0.0860
  425loPI   C6A 6796   8.415   2.822   6.779  0.3530 -0.1487  0.1947
  425loPI   C1B 6797   8.604   2.747   8.853  0.0206  0.0307  0.0272
  425loPI   C2B 6798   8.639   2.646   8.344  0.3484  0.0470  0.3088
  425loPI   C3B 6799   8.703   2.444   8.024 -0.1531 -0.0162  0.0806
  425loPI   C4B 6800   9.017   2.298   7.679  0.1029  0.2638 -0.2928
  426loPI    C1 6801   1.246  16.739  10.395  0.0457  0.0821  0.0924
  426loPI    C2 6802   1.409  17.103  10.363  0.1280  0.0374 -0.0028
  426loPI    C3 6803   1.589  16.822  10.584  0.0233  0.0774  0.1353
  426loPI   PO4 6804   1.238  16.700  10.025 -0.2988  0.2506  0.1454
  426loPI   GL1 6805   1.010  16.759   9.596  0.0074 -0.2202  0.0334
  426loPI   GL2 6806   1.050  16.410   9.636  0.1530  0.0716 -0.0531
  426loPI   C1A 6807   1.329  16.918   9.322  0.0795  0.1076 -0.0421
  426loPI   C2A 6808   1.638  16.957   8.946  0.1660 -0.0525  0.0018
  426loPI   C3A 6809   1.400  16.963   8.618 -0.1421  0.1914  0.2901
  426loPI   C4A 6810   1.387  16.959   8.210  0.1211 -0.3430  0.1496
  426loPI   C5A 6811   1.380  16.787   7.712 -0.2159 -0.1987 -0.3800
  426loPI   C6A 6812   1.448  16.697   7.263  0.1241  0.1515 -0.2390
  426loPI   C1B 6813   1.257  16.320   9.226  0.1085 -0.0079  0.1015
  426loPI   C2B 6814   1.362  16.431   8.864 -0.4091  0.0058  0.0172
  426loPI   C3B 6815   1.418  16.449   8.415 -0.1548 -0.1861  0.1232
  426loPI   C4B 6816   1.255  16.356   7.993 -0.2989 -0.0876 -0.1902
  427loPI    C1 6817   5.790  14.086   9.786  0.0593 -0.0347  0.1578
  427loPI    C2 6818   5.727  14.415   9.568  0.1340 -0.0244  0.1515
  427loPI    C3 6819   5.660  14.421   9.962  0.4274  0.0888  0.2020
  427loPI   PO4 6820   5.773  13.936   9.467 -0.1063  0.0791 -0.1779
  427loPI   GL1 6821   5.906  14.201   9.104  0.2538 -0.0230 -0.0160
  427loPI   GL2 6822   5.952  14.550   9.046  0.4880  0.1446  0.1656
  427loPI   C1A 6823   6.117  14.025   8.864  0.0967 -0.2133  0.1652
  427loPI   C2A 6824   6.339  13.958   8.497  0.0957 -0.1102 -0.0466
  427loPI   C3A 6825   6.434  13.998   8.117  0.2152  0.0909  0.3859
  427loPI   C4A 6826   6.213  13.995   7.700  0.3758 -0.0856 -0.0028
  427loPI   C5A 6827   6.138  14.375   7.508  0.2171  0.1168  0.2007
  427loPI   C6A 6828   5.844  14.653   7.225  0.2618  0.0873  0.1817
  427loPI   C1B 6829   5.972  14.499   8.624 -0.0738 -0.0862  0.1046
  427loPI   C2B 6830   5.896  14.213   8.234  0.1487 -0.1551 -0.0436
  427loPI   C3B 6831   5.852  13.899   8.010 -0.1292 -0.1073 -0.3071
  427loPI   C4B 6832   5.715  14.016   7.592  0.0486  0.0023 -0.0956
  428loPI    C1 6833  11.565   5.463  10.488 -0.3218  0.0404 -0.2158
  428loPI    C2 6834  11.433   5.584  10.845  0.0144 -0.3533  0.0508
  428loPI    C3 6835  11.420   5.196  10.748  0.0823 -0.2709 -0.2999
  428loPI   PO4 6836  11.513   5.635  10.267  0.1843  0.0962 -0.1499
  428loPI   GL1 6837  11.497   5.761   9.806 -0.0769  0.1830  0.0306
  428loPI   GL2 6838  11.270   5.477   9.745 -0.0672 -0.0991  0.0646
  428loPI   C1A 6839  11.537   5.764   9.278 -0.1112 -0.1988 -0.0035
  428loPI   C2A 6840  11.546   5.952   8.916  0.1910  0.0130  0.2227
  428loPI   C3A 6841  11.474   6.079   8.460  0.0322  0.1371 -0.1388
  428loPI   C4A 6842  11.668   6.196   8.088 -0.0900  0.1822 -0.2721
  428loPI   C5A 6843  11.653   6.030   7.727  0.0988  0.3335  0.2523
  428loPI   C6A 6844  11.625   5.797   7.347  0.0752  0.0424  0.0523
  428loPI   C1B 6845  11.097   5.736   9.486  0.0835  0.2389 -0.2081
  428loPI   C2B 6846  11.114   5.695   9.076  0.3045 -0.2847 -0.1196
  428loPI   C3B 6847  11.094   5.779   8.587  0.0697 -0.0366 -0.1707
  428loPI   C4B 6848  10.980   5.977   8.224  0.3568  0.0907  0.0358
  429loPI    C1 6849   5.802   1.419   9.976 -0.1616 -0.2050  0.0901
  429loPI    C2 6850   5.977   1.065   9.910  0.0311 -0.1255  0.1669
  429loPI    C3 6851   6.060   1.270  10.243 -0.0153  0.0313  0.0829
  429loPI   PO4 6852   5.678   1.563   9.724 -0.1279  0.3613  0.1626
  429loPI   GL1 6853   5.329   1.481   9.506  0.0127  0.0730  0.0501
  429loPI   GL2 6854   5.520   1.519   9.252 -0.1352  0.0108  0.1830
  429loPI   C1A 6855   5.291   0.912   9.348  0.0696 -0.0967  0.1595
  429loPI   C2A 6856   5.257   0.702   8.988  0.2238  0.1727 -0.0144
  429loPI   C3A 6857   5.256   0.683   8.461  0.2634  0.0872  0.1985
  429loPI   C4A 6858   5.156   0.603   8.024  0.0735  0.4968 -0.2480
  429loPI   C5A 6859   5.045   0.655   7.630 -0.1958  0.0165 -0.1139
  429loPI   C6A 6860   5.011   0.660   7.145 -0.0564  0.1602  0.1445
  429loPI   C1B 6861   5.386   1.249   8.963  0.1740 -0.1405 -0.0308
  429loPI   C2B 6862   5.385   1.185   8.531  0.0588 -0.1876  0.0184
  429loPI   C3B 6863   5.537   1.270   8.103  0.0240  0.0366 -0.1043
  429loPI   C4B 6864   5.632   1.291   7.655  0.0268 -0.0227  0.0124
  430loPI    C1 6865  16.332   9.248   9.877  0.1625 -0.1280  0.0417
  430loPI    C2 6866  16.422   8.882  10.011  0.2658 -0.1164  0.0052
  430loPI    C3 6867  16.507   9.203  10.234 -0.1657 -0.1339  0.2055
  430loPI   PO4 6868  16.185   9.167   9.673 -0.0367  0.1430  0.3104
  430loPI   GL1 6869  16.262   9.208   9.218 -0.1122 -0.2600 -0.3269
  430loPI   GL2 6870  16.527   9.439   9.353 -0.1514  0.0191 -0.0899
  430loPI   C1A 6871  16.237   9.049   8.815 -0.0138  0.2662  0.3019
  430loPI   C2A 6872  16.314   8.888   8.484 -0.0695 -0.0962  0.0681
  430loPI   C3A 6873  16.777   8.720   8.240 -0.1171 -0.0185 -0.1711
  430loPI   C4A 6874  17.029   8.891   7.951 -0.0165 -0.1577  0.2937
  430loPI   C5A 6875  16.941   8.737   7.473 -0.2031  0.0390 -0.0211
  430loPI   C6A 6876  17.065   8.743   7.099 -0.2392 -0.0177  0.0415
  430loPI   C1B 6877  16.602   9.471   8.904 -0.2148 -0.2404  0.0607
  430loPI   C2B 6878  16.711   9.756   8.659 -0.1836 -0.2947 -0.0470
  430loPI   C3B 6879  16.515   9.915   8.246  0.1153  0.2527  0.1956
  430loPI   C4B 6880  16.509   9.958   7.774 -0.1315 -0.0482 -0.1062
  431loPI    C1 6881   7.353   5.480   9.886 -0.1017  0.1662 -0.0806
  431loPI    C2 6882   7.108   5.524  10.199 -0.1367 -0.0817 -0.0713
  431loPI    C3 6883   7.467   5.699  10.201 -0.3040  0.2704 -0.0785
  431loPI   PO4 6884   7.389   5.299   9.856  0.1459 -0.1228 -0.2886
  431loPI   GL1 6885   7.313   5.184   9.480 -0.2177  0.0118  0.1466
  431loPI   GL2 6886   7.241   5.409   9.353  0.0357  0.0618  0.0999
  431loPI   C1A 6887   6.969   5.110   8.997 -0.1433  0.0660  0.1288
  431loPI   C2A 6888   6.672   5.050   8.710 -0.3206 -0.1714 -0.4305
  431loPI   C3A 6889   6.539   5.118   8.344 -0.1255  0.0964 -0.1629
  431loPI   C4A 6890   6.272   5.039   8.106 -0.2166  0.0969 -0.2573
  431loPI   C5A 6891   5.932   4.890   8.080 -0.2972 -0.0453  0.0884
  431loPI   C6A 6892   5.734   4.621   7.981 -0.0729 -0.1308  0.2580
  431loPI   C1B 6893   7.129   5.726   9.050 -0.2290  0.0150  0.3037
  431loPI   C2B 6894   7.248   5.817   8.720 -0.0657 -0.0502  0.2147
  431loPI   C3B 6895   7.631   6.104   8.461 -0.0058 -0.2737 -0.0459
  431loPI   C4B 6896   7.716   6.484   8.719 -0.1334  0.0988 -0.1071
  432loPI    C1 6897  17.037  18.080  10.227  0.2141 -0.2470  0.2953
  432loPI    C2 6898  17.326  17.830  10.110  0.3462  0.0860 -0.1154
  432loPI    C3 6899  17.404  18.220  10.151  0.0599  0.1152  0.1952
  432loPI   PO4 6900  16.863  17.990  10.178 -0.0909 -0.0486 -0.3097
  432loPI   GL1 6901  16.702  17.766   9.809  0.2048 -0.0342  0.0724
  432loPI   GL2 6902  16.986  17.701   9.784  0.0261 -0.1011 -0.0338
  432loPI   C1A 6903  16.659  17.733   9.354  0.2573 -0.3113  0.2370
  432loPI   C2A 6904  16.722  17.674   8.922  0.1192 -0.3169  0.0650
  432loPI   C3A 6905  16.553  17.730   8.476 -0.0688  0.1565  0.0993
  432loPI   C4A 6906  16.618  17.740   8.051  0.2314 -0.0076 -0.0299
  432loPI   C5A 6907  16.476  17.623   7.613 -0.0025  0.0760 -0.2025
  432loPI   C6A 6908  16.270  17.469   7.349  0.2436  0.2815  0.1413
  432loPI   C1B 6909  17.217  17.832   9.400  0.0794  0.0885  0.0665
  432loPI   C2B 6910  17.450  17.824   8.977 -0.2471 -0.1020 -0.1993
  432loPI   C3B 6911  17.577  17.842   8.496 -0.1619 -0.0530  0.0360
  432loPI   C4B 6912  17.482  17.641   8.066 -0.0740  0.0317 -0.1834
  433loPI    C1 6913  11.814   6.110  10.274  0.1897  0.1212 -0.0091
  433loPI    C2 6914  11.661   6.446  10.428  0.0472  0.1165 -0.1382
  433loPI    C3 6915  11.553   6.090  10.576  0.1955  0.1263 -0.0037
  433loPI   PO4 6916  11.749   6.157   9.995 -0.0390 -0.5512  0.0699
  433loPI   GL1 6917  11.491   6.219   9.683  0.1101  0.0442  0.1940
  433loPI   GL2 6918  11.187   6.197   9.622  0.2802  0.0639 -0.0990
  433loPI   C1A 6919  11.694   6.285   9.286  0.0129  0.3274 -0.1194
  433loPI   C2A 6920  11.839   6.493   8.937  0.1457  0.0393 -0.0666
  433loPI   C3A 6921  12.221   6.559   8.684  0.0797  0.0120  0.1720
  433loPI   C4A 6922  12.386   6.702   8.259 -0.0637 -0.2213 -0.2445
  433loPI   C5A 6923  12.319   6.635   7.905  0.0315 -0.0798  0.1625
  433loPI   C6A 6924  12.057   6.339   7.791  0.0309 -0.1971 -0.0299
  433loPI   C1B 6925  11.175   6.232   9.184 -0.1199 -0.2357 -0.0266
  433loPI   C2B 6926  11.367   6.433   8.775  0.3778  0.2812  0.0725
  433loPI   C3B 6927  11.753   6.573   8.502 -0.3048  0.1872  0.0129
  433loPI   C4B 6928  11.850   6.643   8.119 -0.1537 -0.1808 -0.0704
  434loPI    C1 6929   6.461   3.059   9.995  0.0220 -0.2916  0.1749
  434loPI    C2 6930   6.091   3.178   9.901  0.1004 -0.0823  0.1263
  434loPI    C3 6931   6.221   3.208  10.278  0.1307  0.0164  0.1082
  434loPI   PO4 6932   6.466   2.862   9.834  0.1434  0.1351 -0.2131
  434loPI   GL1 6933   6.385   2.926   9.408 -0.2569  0.1415  0.1021
  434loPI   GL2 6934   6.211   2.971   9.134  0.0778 -0.2558 -0.2816
  434loPI   C1A 6935   6.229   3.435   9.266  0.3457  0.0863  0.1472
  434loPI   C2A 6936   6.388   3.626   8.933 -0.0169  0.0259 -0.0512
  434loPI   C3A 6937   6.718   3.593   8.766 -0.1009  0.2004 -0.1455
  434loPI   C4A 6938   6.921   3.426   8.402  0.1392  0.0901 -0.1300
  434loPI   C5A 6939   6.940   3.250   8.003 -0.1031 -0.2234  0.1537
  434loPI   C6A 6940   7.129   3.139   7.673 -0.1557  0.1351  0.0854
  434loPI   C1B 6941   6.086   2.939   8.642  0.2333 -0.0186  0.1020
  434loPI   C2B 6942   5.999   2.957   8.115 -0.2360 -0.2352 -0.2699
  434loPI   C3B 6943   5.939   3.095   7.693 -0.0423 -0.4050 -0.0509
  434loPI   C4B 6944   5.539   3.208   7.542 -0.0813  0.0959  0.1521
  435loPI    C1 6945   8.333  14.408   9.806 -0.1031  0.0855  0.0646
  435loPI    C2 6946   8.166  14.058   9.707 -0.1423  0.0915  0.1093
  435loPI    C3 6947   7.982  14.400   9.613 -0.0744  0.1016  0.0114
  435loPI   PO4 6948   8.615  14.283   9.744 -0.2953  0.1791  0.3067
  435loPI   GL1 6949   8.935  13.935   9.532  0.2441  0.3089  0.1785
  435loPI   GL2 6950   8.595  13.775   9.572  0.2335  0.2286 -0.2479
  435loPI   C1A 6951   8.926  13.881   9.062 -0.2769  0.2369 -0.0694
  435loPI   C2A 6952   9.137  13.819   8.716  0.1121  0.1951 -0.2886
  435loPI   C3A 6953   9.111  13.911   8.264 -0.0173 -0.0395 -0.2994
  435loPI   C4A 6954   9.100  14.033   7.892  0.3485  0.0486  0.0321
  435loPI   C5A 6955   9.167  13.703   7.470  0.1853  0.3700 -0.0277
  435loPI   C6A 6956   9.207  13.690   6.988  0.2302 -0.0140 -0.2207
  435loPI   C1B 6957   8.586  13.506   9.242  0.1214  0.1351  0.1962
  435loPI   C2B 6958   8.747  13.442   8.834  0.1486  0.1965  0.2114
  435loPI   C3B 6959   8.925  13.439   8.420 -0.2625  0.1717  0.0830
  435loPI   C4B 6960   8.883  13.239   8.017  0.0043 -0.0794 -0.1170
  436loPI    C1 6961   1.098   4.914  10.151  0.1612  0.0526  0.1826
  436loPI    C2 6962   0.718   4.809  10.083  0.1623  0.0570  0.1694
  436loPI    C3 6963   0.826   5.193  10.062  0.2045  0.0365 -0.0045
  436loPI   PO4 6964   1.217   4.637  10.033 -0.0673 -0.2561 -0.3568
  436loPI   GL1 6965   1.334   4.490   9.575  0.0453  0.0408  0.1685
  436loPI   GL2 6966   1.210   4.211   9.446 -0.1410 -0.1184  0.0177
  436loPI   C1A 6967   1.393   4.508   9.050 -0.0067 -0.0100 -0.1901
  436loPI   C2A 6968   1.270   4.445   8.606 -0.0153  0.0754  0.1285
  436loPI   C3A 6969   1.268   4.387   8.124 -0.0572 -0.0985  0.1866
  436loPI   C4A 6970   1.437   4.650   7.806  0.0609 -0.0450 -0.1934
  436loPI   C5A 6971   1.199   4.733   7.460  0.2086  0.1806  0.1189
  436loPI   C6A 6972   0.783   4.651   7.418 -0.2480 -0.0641 -0.4325
  436loPI   C1B 6973   0.967   4.218   9.025 -0.0092  0.0552 -0.0938
  436loPI   C2B 6974   0.860   4.130   8.560  0.2671  0.3887  0.0607
  436loPI   C3B 6975   0.778   4.266   8.125  0.0430  0.0631  0.0915
  436loPI   C4B 6976   0.960   4.318   7.758  0.0735 -0.1389 -0.1122
  437loPI    C1 6977   3.896   7.296  10.043 -0.2260  0.1560 -0.0566
  437loPI    C2 6978   3.875   6.996  10.306 -0.0686  0.2435  0.0572
  437loPI    C3 6979   4.051   7.340  10.409  0.0534  0.2552 -0.1842
  437loPI   PO4 6980   4.004   7.119   9.818  0.3790 -0.0580  0.1614
  437loPI   GL1 6981   3.929   6.969   9.411  0.0539 -0.0984 -0.1082
  437loPI   GL2 6982   3.918   7.235   9.281  0.0994 -0.1470 -0.0406
  437loPI   C1A 6983   3.712   6.868   9.054  0.0120  0.3352  0.2709
  437loPI   C2A 6984   3.612   6.892   8.653  0.1702 -0.1325  0.1081
  437loPI   C3A 6985   3.633   6.924   8.277 -0.3421 -0.1209  0.1576
  437loPI   C4A 6986   3.648   7.012   7.887  0.2120 -0.1616 -0.0361
  437loPI   C5A 6987   3.389   6.924   7.553  0.0326 -0.0909 -0.0728
  437loPI   C6A 6988   3.139   6.604   7.445 -0.2977  0.1403  0.0800
  437loPI   C1B 6989   3.947   7.304   8.704 -0.0144  0.1240  0.2832
  437loPI   C2B 6990   3.987   7.417   8.296  0.0527  0.2361  0.3012
  437loPI   C3B 6991   4.120   7.415   7.821 -0.3680  0.2098  0.0828
  437loPI   C4B 6992   4.506   7.344   7.639  0.0901  0.1190 -0.2112
  438loPI    C1 6993  17.840  17.083  10.164 -0.2075 -0.0681  0.1813
  438loPI    C2 6994  18.146  16.843  10.257 -0.0259  0.0385 -0.1299
  438loPI    C3 6995  17.806  16.822  10.466  0.2043 -0.0543  0.2444
  438loPI   PO4 6996  18.009  17.332  10.104  0.1418 -0.0286  0.2876
  438loPI   GL1 6997  17.939  17.499   9.657 -0.1648  0.0455 -0.0959
  438loPI   GL2 6998  18.334  17.543   9.631  0.2065 -0.0578  0.1386
  438loPI   C1A 6999  17.827  17.512   9.247  0.0105 -0.1645  0.0704
  438loPI   C2A 7000  17.858  17.518   8.855 -0.2548 -0.3876 -0.3540
  438loPI   C3A 7001  17.848  17.348   8.322  0.5393 -0.0824 -0.0021
  438loPI   C4A 7002  17.983  17.597   7.893  0.0104  0.0166 -0.2202
  438loPI   C5A 7003  17.725  17.608   7.476 -0.1061  0.0671 -0.2358
  438loPI   C6A 7004  17.329  17.710   7.445  0.1019 -0.1088  0.1914
  438loPI   C1B 7005  18.323  17.654   9.115  0.0886 -0.1471  0.0167
  438loPI   C2B 7006  18.278  17.656   8.643 -0.2133  0.0787  0.1355
  438loPI   C3B 7007  18.317  17.746   8.250 -0.1004  0.0517  0.1336
  438loPI   C4B 7008  18.482  17.684   7.915  0.2234  0.0113 -0.0999
  439loPI    C1 7009  11.394  14.108  10.496 -0.0499  0.0790 -0.1320
  439loPI    C2 7010  11.230  13.743  10.489  0.2668 -0.0691 -0.0492
  439loPI    C3 7011  11.367  13.895  10.833 -0.0745  0.2287 -0.0386
  439loPI   PO4 7012  11.588  14.082  10.236  0.3653 -0.0016  0.1520
  439loPI   GL1 7013  11.617  13.975   9.893  0.2611 -0.1288  0.2141
  439loPI   GL2 7014  11.488  14.197   9.720  0.0931  0.0367 -0.2004
  439loPI   C1A 7015  11.549  13.651   9.613  0.2392 -0.3009  0.1508
  439loPI   C2A 7016  11.527  13.243   9.621  0.4134 -0.4144 -0.3887
  439loPI   C3A 7017  11.429  13.090   9.289 -0.0857  0.3751 -0.2624
  439loPI   C4A 7018  11.513  13.236   8.941  0.0382 -0.1930  0.2112
  439loPI   C5A 7019  11.833  13.165   8.621 -0.0603  0.1288 -0.0603
  439loPI   C6A 7020  12.346  13.180   8.641 -0.3572 -0.0765 -0.0631
  439loPI   C1B 7021  11.321  14.317   9.370  0.0114 -0.0504  0.2299
  439loPI   C2B 7022  11.175  14.129   8.924  0.0424 -0.1948  0.0285
  439loPI   C3B 7023  11.270  13.725   8.677  0.1441 -0.1967  0.4705
  439loPI   C4B 7024  11.449  13.331   8.377 -0.3124 -0.0647 -0.1902
  440loPI    C1 7025  18.233  15.430  10.085 -0.1830  0.0318 -0.0455
  440loPI    C2 7026  18.076  15.119  10.283  0.0329  0.0957  0.2320
  440loPI    C3 7027  18.184  15.449  10.481  0.0112  0.2639 -0.0307
  440loPI   PO4 7028  18.174  15.512   9.859  0.0063  0.3248  0.1502
  440loPI   GL1 7029  18.243  15.439   9.466  0.1505  0.1710  0.0227
  440loPI   GL2 7030  18.425  15.657   9.461 -0.3350 -0.0473 -0.0145
  440loPI   C1A 7031  18.055  15.486   9.090 -0.1055  0.1533  0.1949
  440loPI   C2A 7032  18.152  15.654   8.704 -0.1722 -0.0532 -0.1896
  440loPI   C3A 7033  18.308  15.547   8.323 -0.2671  0.0492  0.0656
  440loPI   C4A 7034  18.319  15.907   8.111  0.0152 -0.1584 -0.1453
  440loPI   C5A 7035  18.491  16.109   7.773  0.0569 -0.0562 -0.1466
  440loPI   C6A 7036  18.646  16.398   7.548 -0.1899  0.1715 -0.1295
  440loPI   C1B 7037  18.567  15.565   9.081  0.0836  0.1820 -0.0356
  440loPI   C2B 7038  18.643  15.402   8.686  0.2779 -0.3625  0.0573
  440loPI   C3B 7039  18.980  15.279   8.445  0.1324  0.1217 -0.0006
  440loPI   C4B 7040  19.056  15.387   7.974  0.0331  0.1003  0.1045
  441loPI    C1 7041  12.361   9.173  10.143  0.2831  0.1830 -0.0669
  441loPI    C2 7042  12.254   9.558  10.118  0.1948  0.1592 -0.0581
  441loPI    C3 7043  12.168   9.347  10.447 -0.0334  0.0477 -0.1867
  441loPI   PO4 7044  12.269   9.083   9.921 -0.0280 -0.0668  0.1135
  441loPI   GL1 7045  12.214   9.022   9.571  0.2855  0.1238  0.3371
  441loPI   GL2 7046  12.492   8.743   9.570  0.0898 -0.1763  0.3147
  441loPI   C1A 7047  12.198   8.886   9.106 -0.2223  0.0443 -0.3671
  441loPI   C2A 7048  12.263   9.087   8.699  0.0214  0.3134  0.1485
  441loPI   C3A 7049  12.299   9.256   8.268  0.2408 -0.1293  0.0991
  441loPI   C4A 7050  12.265   9.185   7.850  0.0707 -0.2704  0.1583
  441loPI   C5A 7051  12.221   9.376   7.513  0.2153  0.3563  0.2792
  441loPI   C6A 7052  12.273   9.497   7.170 -0.1757  0.1391 -0.0609
  441loPI   C1B 7053  12.677   9.003   9.210 -0.0989  0.3493  0.0482
  441loPI   C2B 7054  12.894   8.921   8.902  0.3531 -0.1190  0.2429
  441loPI   C3B 7055  12.830   8.983   8.458  0.0479  0.1755 -0.0648
  441loPI   C4B 7056  12.964   9.012   8.016 -0.0800 -0.0690 -0.1597
  442loPI    C1 7057  15.428   8.191  10.268 -0.1173 -0.1341 -0.0845
  442loPI    C2 7058  15.702   7.989  10.477  0.0470 -0.0890 -0.2536
  442loPI    C3 7059  15.374   8.127  10.659  0.2501  0.0645  0.0032
  442loPI   PO4 7060  15.509   8.372  10.055  0.0496  0.0061  0.5121
  442loPI   GL1 7061  15.495   8.475   9.638  0.1657 -0.1291  0.1606
  442loPI   GL2 7062  15.302   8.711   9.604  0.1600  0.0715 -0.0804
  442loPI   C1A 7063  15.442   8.271   9.269 -0.2470 -0.1656  0.2357
  442loPI   C2A 7064  15.626   8.330   8.905  0.1288  0.0299 -0.0833
  442loPI   C3A 7065  15.844   8.188   8.501 -0.1021 -0.1101 -0.0238
  442loPI   C4A 7066  15.710   8.165   8.097 -0.3996 -0.2694 -0.2314
  442loPI   C5A 7067  15.418   8.458   7.919  0.2076  0.1689  0.1514
  442loPI   C6A 7068  15.068   8.678   8.023 -0.4181  0.1584  0.1886
  442loPI   C1B 7069  15.394   8.781   9.199  0.3029  0.1021  0.0612
  442loPI   C2B 7070  15.436   9.060   8.824  0.1101  0.0140  0.1441
  442loPI   C3B 7071  15.748   9.310   8.521 -0.0627 -0.2181 -0.0533
  442loPI   C4B 7072  15.997   9.214   8.233 -0.4691 -0.0109 -0.3327
  443loPI    C1 7073   5.333   6.133  10.249  0.1206  0.0023  0.0770
  443loPI    C2 7074   5.511   6.378   9.988 -0.0784 -0.0253 -0.0873
  443loPI    C3 7075   5.396   6.516  10.346  0.2934 -0.0139  0.0318
  443loPI   PO4 7076   5.201   5.993  10.053  0.0411  0.2041 -0.4149
  443loPI   GL1 7077   5.100   5.714   9.719  0.0698 -0.2003  0.0790
  443loPI   GL2 7078   5.272   5.686   9.413 -0.0069  0.1727 -0.2625
  443loPI   C1A 7079   5.033   5.279   9.539  0.0584 -0.0011 -0.0836
  443loPI   C2A 7080   4.853   5.190   9.196  0.0070  0.0198  0.0022
  443loPI   C3A 7081   4.800   4.942   8.858 -0.0781 -0.0065  0.4118
  443loPI   C4A 7082   4.562   4.899   8.419 -0.4005  0.2721  0.0723
  443loPI   C5A 7083   4.440   4.782   7.995 -0.2475 -0.2102  0.0551
  443loPI   C6A 7084   4.270   4.676   7.592  0.1287 -0.0713  0.3600
  443loPI   C1B 7085   5.584   5.903   9.188  0.2769  0.0485 -0.0826
  443loPI   C2B 7086   5.841   6.025   8.905 -0.0815 -0.2448 -0.0441
  443loPI   C3B 7087   6.015   5.720   8.712 -0.0824  0.1582 -0.3491
  443loPI   C4B 7088   6.322   5.651   8.386 -0.2996  0.0584  0.2688
  444loPI    C1 7089  14.674   0.005   9.756  0.2436  0.3267 -0.0637
  444loPI    C2 7090  14.310   0.116   9.881  0.1312 -0.0078 -0.0837
  444loPI    C3 7091  14.637   0.264  10.060 -0.0178  0.0568  0.1403
  444loPI   PO4 7092  14.594   0.116   9.459  0.1275  0.2481  0.1602
  444loPI   GL1 7093  14.659  -0.020   9.126  0.3951 -0.4384  0.2162
  444loPI   GL2 7094  14.354  -0.079   9.043  0.2116  0.0854 -0.2287
  444loPI   C1A 7095  14.835  -0.112   8.815  0.0811 -0.1728  0.2841
  444loPI   C2A 7096  14.933  -0.545   8.645  0.0382 -0.0700 -0.1389
  444loPI   C3A 7097  14.884  -0.891   8.397  0.3302 -0.1213 -0.0882
  444loPI   C4A 7098  14.899  -1.215   8.069  0.0996  0.0173  0.0242
  444loPI   C5A 7099  15.102  -1.589   7.818  0.2042 -0.2158 -0.1925
  444loPI   C6A 7100  14.806  -1.854   7.719  0.2562  0.1670 -0.0801
  444loPI   C1B 7101  14.312  -0.103   8.554  0.5906 -0.0267 -0.1666
  444loPI   C2B 7102  14.264  -0.193   8.165 -0.0045  0.0415 -0.1371
  444loPI   C3B 7103  14.548  -0.170   7.897  0.1034  0.1805  0.0107
  444loPI   C4B 7104  14.705  -0.360   7.629  0.1193 -0.1475 -0.1251
  445loPI    C1 7105  18.780  16.226  10.240  0.0149 -0.1165 -0.0770
  445loPI    C2 7106  18.955  16.414  10.547 -0.0888 -0.0867 -0.0355
  445loPI    C3 7107  18.693  16.120  10.616 -0.1793 -0.0201 -0.0930
  445loPI   PO4 7108  18.911  16.304  10.089  0.2427  0.4316 -0.1470
  445loPI   GL1 7109  18.939  16.145   9.644 -0.0521 -0.0363 -0.0411
  445loPI   GL2 7110  18.847  16.014   9.488 -0.3362  0.3559 -0.3310
  445loPI   C1A 7111  19.160  16.252   9.254  0.2941  0.0033  0.0174
  445loPI   C2A 7112  19.070  16.255   8.804  0.2264 -0.1423  0.0304
  445loPI   C3A 7113  19.169  16.307   8.340 -0.1408 -0.6201 -0.0989
  445loPI   C4A 7114  19.252  16.483   7.915 -0.0876 -0.0089  0.0340
  445loPI   C5A 7115  19.103  16.592   7.497 -0.1800 -0.3083 -0.1359
  445loPI   C6A 7116  18.755  16.834   7.348 -0.1818 -0.3485  0.0185
  445loPI   C1B 7117  18.678  16.038   9.173  0.2730 -0.0898 -0.0992
  445loPI   C2B 7118  18.600  15.924   8.760 -0.1325  0.2317  0.5783
  445loPI   C3B 7119  18.594  16.168   8.364  0.1005 -0.1521 -0.0485
  445loPI   C4B 7120  18.784  16.500   8.082  0.0641  0.1256 -0.0672
  446loPI    C1 7121  12.310  15.071  10.049 -0.0347  0.0674  0.0533
  446loPI    C2 7122  11.941  14.918  10.071 -0.0706  0.1470  0.0121
  446loPI    C3 7123  12.084  15.140  10.371 -0.0133  0.0223  0.0782
  446loPI   PO4 7124  12.297  15.098   9.806 -0.1193 -0.0966  0.0285
  446loPI   GL1 7125  12.521  15.063   9.369  0.0417 -0.1715 -0.0889
  446loPI   GL2 7126  12.570  15.412   9.253  0.1708  0.0440  0.3131
  446loPI   C1A 7127  12.487  14.730   9.092 -0.1990 -0.5374 -0.0616
  446loPI   C2A 7128  12.563  14.646   8.645 -0.0118 -0.0161  0.0563
  446loPI   C3A 7129  12.648  14.512   8.249 -0.1753 -0.1171  0.2712
  446loPI   C4A 7130  12.725  14.406   7.705  0.1587 -0.0124 -0.1158
  446loPI   C5A 7131  12.677  14.587   7.294  0.0971 -0.3093  0.2019
  446loPI   C6A 7132  13.033  14.890   7.143  0.0504 -0.2115 -0.3452
  446loPI   C1B 7133  12.450  15.192   8.820 -0.0467 -0.3778  0.0262
  446loPI   C2B 7134  12.287  15.198   8.390 -0.1229  0.1411 -0.2135
  446loPI   C3B 7135  12.107  15.219   8.054 -0.0651 -0.0086 -0.0820
  446loPI   C4B 7136  11.908  15.617   7.999  0.1102  0.1366  0.1253
  447loPI    C1 7137  17.697   0.107  10.244 -0.1222 -0.0020 -0.0447
  447loPI    C2 7138  17.363  -0.062  10.386  0.0418 -0.0909  0.2424
  447loPI    C3 7139  17.654   0.048  10.637  0.0802  0.3141  0.0285
  447loPI   PO4 7140  17.867  -0.010  10.077 -0.0779 -0.1345  0.0622
  447loPI   GL1 7141  17.845  -0.246   9.671 -0.2105  0.2939 -0.0302
  447loPI   GL2 7142  18.128  -0.133   9.561  0.2524  0.1209 -0.1822
  447loPI   C1A 7143  17.639  -0.297   9.256  0.4205  0.1387 -0.2191
  447loPI   C2A 7144  17.592  -0.128   8.784 -0.1029  0.0930 -0.4084
  447loPI   C3A 7145  17.685  -0.255   8.361  0.2379 -0.0431 -0.2005
  447loPI   C4A 7146  17.486  -0.166   7.968 -0.1522  0.0812 -0.1040
  447loPI   C5A 7147  17.287   0.099   7.712  0.0606  0.0390 -0.0751
  447loPI   C6A 7148  17.047   0.388   7.431 -0.0961 -0.0189  0.0557
  447loPI   C1B 7149  18.076  -0.170   9.110 -0.0617 -0.0044  0.0715
  447loPI   C2B 7150  18.102  -0.229   8.614  0.2046 -0.0352  0.3158
  447loPI   C3B 7151  18.139  -0.563   8.196 -0.2213 -0.1311 -0.0530
  447loPI   C4B 7152  18.047  -0.583   7.770 -0.1722  0.1975 -0.3085
  448loPI    C1 7153  11.945  10.396  10.291 -0.1094  0.1463 -0.0769
  448loPI    C2 7154  11.598  10.395  10.092 -0.0726  0.2089 -0.1417
  448loPI    C3 7155  11.783  10.741  10.172  0.0236  0.1699 -0.1929
  448loPI   PO4 7156  12.049  10.101  10.197 -0.0534  0.3020 -0.0440
  448loPI   GL1 7157  11.944   9.985   9.830  0.0845 -0.1791  0.0045
  448loPI   GL2 7158  12.030   9.789   9.600  0.0389 -0.1270 -0.2815
  448loPI   C1A 7159  11.761  10.195   9.482 -0.2348  0.0325  0.0033
  448loPI   C2A 7160  11.810  10.226   9.050 -0.2301  0.3235  0.0004
  448loPI   C3A 7161  12.039  10.157   8.618 -0.1709  0.1102 -0.2582
  448loPI   C4A 7162  12.035  10.230   8.208  0.0239  0.1146  0.0903
  448loPI   C5A 7163  11.860   9.974   7.921  0.1416  0.3091  0.1875
  448loPI   C6A 7164  11.796   9.631   7.594  0.0737 -0.2637 -0.0726
  448loPI   C1B 7165  12.243   9.841   9.323 -0.1609  0.1016 -0.1475
  448loPI   C2B 7166  12.314   9.921   9.010  0.0564  0.2183  0.1456
  448loPI   C3B 7167  12.516  10.008   8.630 -0.1690 -0.2931  0.3343
  448loPI   C4B 7168  12.537  10.108   8.206 -0.3979 -0.1542  0.0563
  449loPI    C1 7169  15.952  12.890  10.007 -0.0007 -0.1048 -0.1339
  449loPI    C2 7170  15.621  12.738  10.174  0.0614 -0.1267 -0.0293
  449loPI    C3 7171  15.980  12.646  10.323  0.1023  0.0946  0.0131
  449loPI   PO4 7172  15.807  13.260   9.921  0.1578  0.0263  0.2032
  449loPI   GL1 7173  15.686  13.471   9.570 -0.1992 -0.2791  0.1590
  449loPI   GL2 7174  15.964  13.584   9.370 -0.1382  0.2526 -0.0267
  449loPI   C1A 7175  15.449  13.625   9.352 -0.0958  0.3115 -0.4041
  449loPI   C2A 7176  15.344  13.548   8.965  0.0775  0.0322 -0.0642
  449loPI   C3A 7177  15.301  13.605   8.570 -0.1383 -0.0231 -0.0717
  449loPI   C4A 7178  15.609  13.743   8.259  0.0893 -0.0702 -0.3135
  449loPI   C5A 7179  15.602  13.651   7.873  0.0011 -0.2812 -0.2693
  449loPI   C6A 7180  15.800  13.587   7.498 -0.0189  0.2208 -0.1211
  449loPI   C1B 7181  15.869  13.967   9.170 -0.1351  0.0019 -0.0755
  449loPI   C2B 7182  16.062  14.333   8.951  0.2404 -0.2514 -0.3780
  449loPI   C3B 7183  16.117  14.474   8.481 -0.0294 -0.1838  0.0489
  449loPI   C4B 7184  16.258  14.302   8.001 -0.3068  0.3073  0.0996
  450loPI    C1 7185  18.085  16.156  10.103 -0.1490 -0.0094 -0.2272
  450loPI    C2 7186  18.320  15.913  10.316  0.1479  0.1605 -0.3536
  450loPI    C3 7187  17.924  15.853  10.308  0.1751 -0.0815 -0.0734
  450loPI   PO4 7188  18.303  16.409  10.086  0.0504  0.0582  0.0957
  450loPI   GL1 7189  18.462  16.423   9.688  0.1941  0.2399  0.1881
  450loPI   GL2 7190  18.354  16.115   9.603 -0.1374  0.0060  0.1204
  450loPI   C1A 7191  18.671  16.592   9.353  0.2006  0.1173  0.0967
  450loPI   C2A 7192  18.858  16.776   9.101 -0.0015 -0.2449  0.2660
  450loPI   C3A 7193  18.782  16.818   8.674 -0.0915 -0.0218 -0.1424
  450loPI   C4A 7194  18.672  17.000   8.238  0.0537 -0.0434  0.0968
  450loPI   C5A 7195  18.504  16.806   7.822  0.1604 -0.0837 -0.1833
  450loPI   C6A 7196  18.016  16.704   7.659  0.0751 -0.0021  0.0229
  450loPI   C1B 7197  18.174  16.407   9.297  0.0093  0.1669  0.0577
  450loPI   C2B 7198  18.346  16.574   8.845 -0.1555  0.2150 -0.2446
  450loPI   C3B 7199  18.370  16.675   8.426  0.2604 -0.1051  0.1850
  450loPI   C4B 7200  18.246  16.426   8.095  0.0373  0.1062  0.0257
  451loPI    C1 7201   1.305   8.667   9.431 -0.2062  0.1372 -0.1552
  451loPI    C2 7202   1.109   8.615   9.776 -0.0528 -0.0215 -0.0904
  451loPI    C3 7203   1.150   8.309   9.522 -0.0114  0.0484 -0.1681
  451loPI   PO4 7204   1.110   8.901   9.322  0.1382 -0.2430  0.3558
  451loPI   GL1 7205   1.137   8.911   8.893  0.0164  0.0273 -0.2561
  451loPI   GL2 7206   1.253   9.250   8.984  0.0530 -0.1379 -0.0205
  451loPI   C1A 7207   1.329   9.163   8.509  0.0037  0.1900 -0.1843
  451loPI   C2A 7208   1.530   9.421   8.118  0.0020 -0.0399  0.0155
  451loPI   C3A 7209   1.471   9.688   7.713 -0.0885 -0.1632 -0.1355
  451loPI   C4A 7210   1.653   9.939   7.317 -0.0132 -0.2194 -0.0686
  451loPI   C5A 7211   1.573  10.191   7.047  0.0288 -0.4253  0.2311
  451loPI   C6A 7212   1.558  10.580   6.899 -0.2135  0.1144  0.0638
  451loPI   C1B 7213   1.007   9.406   8.732 -0.0222 -0.1410 -0.0916
  451loPI   C2B 7214   0.981   9.373   8.300 -0.0055 -0.2558  0.3962
  451loPI   C3B 7215   1.072   9.270   7.868 -0.1922  0.1523  0.1175
  451loPI   C4B 7216   1.238   9.217   7.475 -0.0437 -0.2530 -0.0096
  452loPI    C1 7217  17.431   6.902   9.977  0.0956  0.1633 -0.0700
  452loPI    C2 7218  17.500   6.565  10.181  0.2085  0.1885 -0.0661
  452loPI    C3 7219  17.264   6.847  10.337  0.1945  0.1545 -0.0251
  452loPI   PO4 7220  17.412   6.774   9.746 -0.2200 -0.0706  0.0981
  452loPI   GL1 7221  17.249   6.712   9.388 -0.1806  0.1069  0.1537
  452loPI   GL2 7222  17.228   6.431   9.357  0.0311  0.0528  0.5370
  452loPI   C1A 7223  17.319   6.885   9.055  0.1469 -0.0026 -0.1368
  452loPI   C2A 7224  17.246   6.791   8.550 -0.0397 -0.1680 -0.3842
  452loPI   C3A 7225  17.483   6.618   8.196  0.2378  0.1306 -0.0445
  452loPI   C4A 7226  17.547   6.459   7.870  0.1198 -0.0248  0.1744
  452loPI   C5A 7227  17.801   6.616   7.586 -0.1934 -0.0705 -0.0577
  452loPI   C6A 7228  17.868   6.440   7.214 -0.1493  0.0581 -0.0449
  452loPI   C1B 7229  17.133   6.431   8.911 -0.1586  0.1242  0.1240
  452loPI   C2B 7230  16.994   6.287   8.516  0.0875 -0.2757  0.0192
  452loPI   C3B 7231  16.982   6.334   8.090  0.0634 -0.0684 -0.0826
  452loPI   C4B 7232  17.020   6.211   7.697  0.1907 -0.1465  0.1595
  453loPI    C1 7233  11.401  15.387  10.082 -0.2614 -0.1451 -0.0208
  453loPI    C2 7234  11.520  15.059  10.276  0.1817  0.0027 -0.0306
  453loPI    C3 7235  11.361  15.364  10.479  0.0584 -0.0925  0.0175
  453loPI   PO4 7236  11.339  15.289   9.818  0.2831  0.2645  0.1512
  453loPI   GL1 7237  11.012  15.036   9.601  0.0066 -0.0955 -0.2589
  453loPI   GL2 7238  10.812  14.894   9.710  0.0221 -0.1302  0.3047
  453loPI   C1A 7239  11.031  15.016   9.186  0.2807 -0.0885 -0.0352
  453loPI   C2A 7240  10.996  15.040   8.849 -0.2871  0.1311 -0.4477
  453loPI   C3A 7241  11.011  15.065   8.479  0.0936  0.3136  0.2052
  453loPI   C4A 7242  10.826  15.113   8.193  0.1813  0.2397  0.1486
  453loPI   C5A 7243  10.436  14.942   8.078  0.1378  0.2628  0.0636
  453loPI   C6A 7244  10.106  15.278   8.017  0.1149  0.1108 -0.0052
  453loPI   C1B 7245  10.928  14.585   9.427 -0.1151 -0.0937 -0.4071
  453loPI   C2B 7246  10.941  14.530   9.086 -0.0183 -0.0490  0.1722
  453loPI   C3B 7247  11.133  14.559   8.660  0.4303  0.0138  0.2157
  453loPI   C4B 7248  11.324  14.664   8.325 -0.0907 -0.0032 -0.2506
  454loPI    C1 7249   9.381   1.225   9.794  0.2390  0.2713 -0.1282
  454loPI    C2 7250   9.284   1.611   9.751  0.1758  0.3047  0.2754
  454loPI    C3 7251   9.371   1.466  10.114  0.0252 -0.1020  0.1539
  454loPI   PO4 7252   9.547   1.194   9.573 -0.1294 -0.2917 -0.0096
  454loPI   GL1 7253   9.527   1.369   9.261  0.1486  0.0769 -0.1009
  454loPI   GL2 7254   9.302   1.666   9.236  0.1759  0.0574 -0.1433
  454loPI   C1A 7255   9.402   1.285   8.889  0.1039  0.2552  0.0622
  454loPI   C2A 7256   9.515   1.350   8.447 -0.0509 -0.1003  0.0109
  454loPI   C3A 7257   9.262   1.316   8.092  0.2268  0.2442  0.0628
  454loPI   C4A 7258   9.194   1.260   7.627 -0.1691  0.2852 -0.1914
  454loPI   C5A 7259   9.010   0.948   7.341 -0.1968 -0.0036  0.0121
  454loPI   C6A 7260   8.910   0.452   7.286 -0.0137 -0.0437  0.1652
  454loPI   C1B 7261   9.338   1.818   8.796 -0.1061 -0.0869 -0.1411
  454loPI   C2B 7262   9.146   1.715   8.335 -0.2783 -0.2385  0.1503
  454loPI   C3B 7263   9.195   1.783   7.823 -0.1682 -0.1982  0.2696
  454loPI   C4B 7264   9.282   1.933   7.522 -0.0674  0.1504  0.2677
  455loPI    C1 7265   1.836  15.140  10.180 -0.0113 -0.0098  0.0653
  455loPI    C2 7266   2.077  15.451  10.254  0.1342 -0.0953 -0.0440
  455loPI    C3 7267   1.879  15.276  10.554 -0.0060  0.1481  0.0083
  455loPI   PO4 7268   1.962  14.973  10.041 -0.1518  0.1738  0.0774
  455loPI   GL1 7269   1.834  14.746   9.577 -0.1126  0.1082 -0.0611
  455loPI   GL2 7270   2.081  14.907   9.561 -0.0027 -0.0560 -0.0853
  455loPI   C1A 7271   1.588  14.965   9.275  0.0094 -0.0923  0.4434
  455loPI   C2A 7272   1.540  15.191   8.925 -0.1742 -0.0364 -0.0597
  455loPI   C3A 7273   1.359  15.184   8.562 -0.2712 -0.0344  0.0307
  455loPI   C4A 7274   1.135  15.297   8.182  0.1382 -0.0196  0.2633
  455loPI   C5A 7275   0.862  15.445   7.790 -0.1855 -0.1703 -0.3397
  455loPI   C6A 7276   0.921  15.763   7.459  0.2281 -0.0379  0.2005
  455loPI   C1B 7277   2.076  15.082   9.158  0.1050  0.0984 -0.1095
  455loPI   C2B 7278   2.170  15.285   8.858 -0.2041 -0.0162  0.2586
  455loPI   C3B 7279   2.506  15.511   8.703 -0.0777 -0.1416 -0.3302
  455loPI   C4B 7280   2.729  15.520   8.338 -0.0945 -0.0098  0.1975
  456loPI    C1 7281  14.606  11.379  10.613  0.0706  0.0961  0.1258
  456loPI    C2 7282  14.225  11.305  10.711  0.0381  0.0565 -0.0284
  456loPI    C3 7283  14.519  11.214  10.967 -0.0319 -0.2197 -0.0432
  456loPI   PO4 7284  14.499  11.543  10.317  0.3928 -0.1814 -0.1956
  456loPI   GL1 7285  14.398  11.415   9.851  0.3106  0.2989 -0.2370
  456loPI   GL2 7286  14.529  11.802   9.896  0.0310  0.0511 -0.0386
  456loPI   C1A 7287  14.252  11.578   9.479 -0.1646 -0.0166  0.0704
  456loPI   C2A 7288  14.299  11.523   9.101  0.2412 -0.3506  0.1142
  456loPI   C3A 7289  14.719  11.454   8.937  0.1737 -0.0589  0.0976
  456loPI   C4A 7290  15.059  11.719   8.724 -0.0965  0.4164  0.2678
  456loPI   C5A 7291  15.258  11.856   8.283  0.2341 -0.1345  0.2210
  456loPI   C6A 7292  15.107  11.919   7.914  0.1902 -0.0713 -0.3988
  456loPI   C1B 7293  14.407  12.011   9.553  0.1331 -0.1774 -0.1630
  456loPI   C2B 7294  14.391  11.999   9.187 -0.1983 -0.0362  0.0492
  456loPI   C3B 7295  14.592  11.880   8.675 -0.2156 -0.5786  0.2149
  456loPI   C4B 7296  14.739  11.894   8.281 -0.2973 -0.1426 -0.3757
  457loPI    C1 7297   8.126  10.051  10.238  0.2307 -0.0606  0.1343
  457loPI    C2 7298   7.852   9.769  10.169 -0.0266  0.2310 -0.0602
  457loPI    C3 7299   7.924   9.889  10.543  0.1851 -0.1849  0.0388
  457loPI   PO4 7300   8.144  10.162   9.966 -0.3087 -0.4699 -0.2705
  457loPI   GL1 7301   8.372  10.238   9.645  0.2473  0.0284  0.0095
  457loPI   GL2 7302   8.390  10.554   9.754  0.2359  0.3022  0.1729
  457loPI   C1A 7303   8.373  10.094   9.288  0.1263 -0.0645 -0.1600
  457loPI   C2A 7304   8.441   9.795   9.099 -0.0697 -0.1182  0.2042
  457loPI   C3A 7305   8.340   9.739   8.689  0.0412 -0.1914  0.2693
  457loPI   C4A 7306   8.275   9.725   8.243  0.3604  0.1272  0.0387
  457loPI   C5A 7307   8.167   9.648   7.945  0.2426  0.0665  0.1420
  457loPI   C6A 7308   7.901   9.750   7.670  0.0413  0.1979 -0.0533
  457loPI   C1B 7309   8.255  10.730   9.361  0.1204 -0.0543 -0.1684
  457loPI   C2B 7310   8.331  10.712   8.890  0.1844 -0.1886  0.1005
  457loPI   C3B 7311   8.355  10.649   8.464 -0.2388  0.0669 -0.2674
  457loPI   C4B 7312   8.357  10.712   7.953  0.0461 -0.1918 -0.3310
  458loPI    C1 7313   0.017  17.786  10.198  0.0832  0.0196 -0.0297
  458loPI    C2 7314  -0.359  17.674  10.278  0.1162 -0.1745 -0.1387
  458loPI    C3 7315  -0.211  18.009  10.440  0.0165 -0.2896  0.1998
  458loPI   PO4 7316   0.017  17.812   9.990  0.5079 -0.1452  0.4149
  458loPI   GL1 7317   0.035  18.019   9.645 -0.4543 -0.0728  0.0659
  458loPI   GL2 7318   0.257  18.216   9.678  0.1222 -0.0682  0.1764
  458loPI   C1A 7319   0.268  18.024   9.265  0.2668 -0.1296  0.6277
  458loPI   C2A 7320   0.571  18.077   8.921 -0.0152 -0.2112 -0.0018
  458loPI   C3A 7321   0.726  18.186   8.424  0.1258  0.2265  0.1820
  458loPI   C4A 7322   1.150  18.263   8.285 -0.0232 -0.1004 -0.2648
  458loPI   C5A 7323   1.467  18.111   8.010  0.3607  0.0937  0.1318
  458loPI   C6A 7324   1.699  18.041   7.641  0.3116  0.0595  0.0657
  458loPI   C1B 7325   0.377  18.523   9.411 -0.0366 -0.0795 -0.3338
  458loPI   C2B 7326   0.489  18.627   9.028 -0.1896  0.0398 -0.1764
  458loPI   C3B 7327   0.463  18.497   8.644 -0.2142 -0.0251 -0.2438
  458loPI   C4B 7328   0.385  18.735   8.344 -0.0162  0.0463  0.1252
  459loPI    C1 7329  13.493  11.503  10.528  0.3877 -0.1560  0.0616
  459loPI    C2 7330  13.712  11.423  10.853  0.2156 -0.0299  0.2111
  459loPI    C3 7331  13.632  11.802  10.754  0.4010 -0.0613 -0.0709
  459loPI   PO4 7332  13.645  11.425  10.356  0.4206 -0.1994 -0.4167
  459loPI   GL1 7333  13.593  11.230   9.989 -0.3189  0.1366  0.1868
  459loPI   GL2 7334  13.824  11.245   9.718 -0.1604 -0.2544 -0.3583
  459loPI   C1A 7335  13.548  11.615   9.725 -0.1268 -0.1343 -0.0992
  459loPI   C2A 7336  13.408  11.934   9.488 -0.2810  0.1402 -0.1801
  459loPI   C3A 7337  13.379  11.798   9.100  0.0007  0.3086 -0.2360
  459loPI   C4A 7338  13.497  11.768   8.660 -0.2469 -0.1302  0.0931
  459loPI   C5A 7339  13.529  11.692   8.218  0.0034  0.2220 -0.1343
  459loPI   C6A 7340  13.817  11.746   7.877 -0.0680  0.1606 -0.2646
  459loPI   C1B 7341  13.609  11.379   9.285  0.1857 -0.2100 -0.0624
  459loPI   C2B 7342  13.822  11.504   8.873 -0.4608  0.0631  0.0265
  459loPI   C3B 7343  13.919  11.506   8.498 -0.0832  0.0754  0.0235
  459loPI   C4B 7344  13.965  11.330   8.105 -0.2343  0.1643 -0.0607
  460loPI    C1 7345   2.915   5.438  10.029 -0.2872  0.2574  0.2747
  460loPI    C2 7346   2.922   5.052  10.136  0.1263  0.1358 -0.1591
  460loPI    C3 7347   2.956   5.337  10.414 -0.2429 -0.1333  0.1720
  460loPI   PO4 7348   2.786   5.454   9.872 -0.0678 -0.1767 -0.2063
  460loPI   GL1 7349   2.831   5.682   9.379 -0.0611  0.0444 -0.3321
  460loPI   GL2 7350   2.561   5.656   9.429 -0.0393 -0.2875 -0.2279
  460loPI   C1A 7351   3.095   5.517   9.095 -0.1816 -0.0143  0.1980
  460loPI   C2A 7352   3.299   5.440   8.602  0.3751 -0.1168 -0.1126
  460loPI   C3A 7353   3.370   5.554   8.193  0.0518  0.3109  0.0286
  460loPI   C4A 7354   3.110   5.451   7.826  0.1024  0.2364 -0.1302
  460loPI   C5A 7355   2.829   5.275   7.555 -0.3024 -0.0830 -0.0652
  460loPI   C6A 7356   2.702   4.881   7.378 -0.1914  0.1632 -0.1480
  460loPI   C1B 7357   2.445   5.825   9.041  0.1653  0.0761  0.0771
  460loPI   C2B 7358   2.537   6.043   8.643  0.2125  0.2513 -0.0974
  460loPI   C3B 7359   2.633   6.102   8.179  0.3733 -0.0272  0.0270
  460loPI   C4B 7360   2.751   5.901   7.779  0.0371 -0.2903 -0.0709
  461loPI    C1 7361  17.510  16.274  10.004  0.1133 -0.0238 -0.0759
  461loPI    C2 7362  17.681  16.361  10.355  0.0937  0.0501 -0.0846
  461loPI    C3 7363  17.791  16.557  10.024  0.1658 -0.0713 -0.1336
  461loPI   PO4 7364  17.564  16.029   9.973 -0.0610 -0.1806 -0.2353
  461loPI   GL1 7365  17.874  15.912   9.615  0.0044  0.2750 -0.0113
  461loPI   GL2 7366  17.873  16.231   9.656  0.0337  0.1843  0.0286
  461loPI   C1A 7367  18.049  15.962   9.178  0.1327 -0.1184  0.1613
  461loPI   C2A 7368  18.145  16.159   8.830 -0.1713  0.2226  0.0480
  461loPI   C3A 7369  18.017  16.258   8.475  0.0760  0.0557 -0.0405
  461loPI   C4A 7370  17.604  16.502   8.229 -0.0770  0.0043  0.0655
  461loPI   C5A 7371  17.497  16.773   7.798 -0.0873  0.0407  0.1337
  461loPI   C6A 7372  17.707  16.987   7.394 -0.0149  0.2448 -0.2105
  461loPI   C1B 7373  17.695  16.299   9.199 -0.2266  0.0513 -0.0929
  461loPI   C2B 7374  17.850  16.603   8.932  0.0096 -0.0085 -0.2527
  461loPI   C3B 7375  17.952  16.772   8.579  0.0564  0.2110 -0.2530
  461loPI   C4B 7376  17.946  16.883   8.134  0.0269  0.1420 -0.1761
  462loPI    C1 7377   3.130  17.099  10.046 -0.0265  0.1726  0.0158
  462loPI    C2 7378   2.993  16.904  10.367 -0.1387  0.0023 -0.1337
  462loPI    C3 7379   3.375  17.022  10.353 -0.0827 -0.1616 -0.0195
  462loPI   PO4 7380   3.016  16.983   9.845  0.0174  0.0859 -0.1244
  462loPI   GL1 7381   3.318  16.853   9.493 -0.1186  0.2332  0.1577
  462loPI   GL2 7382   3.278  17.246   9.423  0.0088  0.0753 -0.3026
  462loPI   C1A 7383   3.180  16.830   9.176  0.1848 -0.1956  0.0748
  462loPI   C2A 7384   3.178  16.954   8.788  0.1553  0.0397 -0.0205
  462loPI   C3A 7385   3.171  16.898   8.363  0.2438 -0.1799 -0.1403
  462loPI   C4A 7386   3.242  16.984   7.975 -0.0676 -0.2479  0.3684
  462loPI   C5A 7387   3.614  17.048   7.710  0.0305 -0.0393 -0.0967
  462loPI   C6A 7388   3.619  17.285   7.346  0.1813  0.2031 -0.3367
  462loPI   C1B 7389   3.254  17.342   9.046  0.0972 -0.0061 -0.0605
  462loPI   C2B 7390   3.189  17.419   8.635 -0.1825  0.3151 -0.0189
  462loPI   C3B 7391   3.188  17.385   8.261 -0.2244 -0.1155  0.0037
  462loPI   C4B 7392   3.249  17.436   7.835 -0.0702 -0.0204 -0.1143
  463loPI    C1 7393   0.354   0.981  10.085 -0.0139  0.0991  0.1629
  463loPI    C2 7394   0.522   1.066  10.438  0.0699 -0.0233  0.1531
  463loPI    C3 7395   0.702   0.812  10.186 -0.1874 -0.2496  0.1924
  463loPI   PO4 7396   0.244   1.226   9.995 -0.0577  0.0474  0.1395
  463loPI   GL1 7397   0.296   1.518   9.607  0.1809  0.0589  0.3570
  463loPI   GL2 7398  -0.001   1.341   9.535 -0.1126  0.2958 -0.1962
  463loPI   C1A 7399   0.546   1.572   9.342 -0.1768 -0.0280  0.0115
  463loPI   C2A 7400   0.672   1.427   8.890 -0.2138 -0.2237  0.3127
  463loPI   C3A 7401   0.951   1.396   8.517 -0.1720 -0.2103  0.0764
  463loPI   C4A 7402   1.110   1.522   8.104  0.0704  0.0289  0.0552
  463loPI   C5A 7403   1.442   1.663   7.923  0.0651 -0.1693 -0.3095
  463loPI   C6A 7404   1.820   1.720   7.730  0.0637 -0.0842 -0.0648
  463loPI   C1B 7405  -0.125   1.381   9.112  0.1833 -0.0552 -0.2486
  463loPI   C2B 7406  -0.111   1.488   8.655  0.0169 -0.1858 -0.0881
  463loPI   C3B 7407  -0.096   1.569   8.268  0.1715 -0.0414  0.0754
  463loPI   C4B 7408   0.122   1.410   7.966 -0.0714 -0.1816 -0.1707
  464loPI    C1 7409   7.379  15.837   9.725  0.1547  0.1676 -0.0032
  464loPI    C2 7410   7.560  15.651  10.028  0.0567 -0.0030 -0.0483
  464loPI    C3 7411   7.450  16.033  10.066 -0.0003 -0.0380  0.1499
  464loPI   PO4 7412   7.395  15.627   9.558 -0.0007  0.3006  0.0070
  464loPI   GL1 7413   7.491  15.692   9.155  0.1524 -0.0441  0.2795
  464loPI   GL2 7414   7.518  15.395   9.085 -0.1099 -0.4852 -0.2434
  464loPI   C1A 7415   7.460  15.959   8.786  0.1877 -0.0438  0.0774
  464loPI   C2A 7416   7.359  15.925   8.392 -0.2596  0.0313  0.2170
  464loPI   C3A 7417   7.716  16.047   7.996  0.0592 -0.0011  0.1401
  464loPI   C4A 7418   7.870  16.137   7.530  0.1509 -0.0413  0.2074
  464loPI   C5A 7419   8.065  16.418   7.133  0.0970 -0.2729  0.2300
  464loPI   C6A 7420   8.192  16.693   6.837 -0.0392  0.0293  0.1808
  464loPI   C1B 7421   7.603  15.372   8.639  0.3366  0.0544  0.0239
  464loPI   C2B 7422   7.591  15.398   8.235 -0.1543  0.1129  0.1664
  464loPI   C3B 7423   7.691  15.582   7.761  0.1946 -0.0470  0.0689
  464loPI   C4B 7424   7.477  15.460   7.391  0.1970  0.1849  0.0874
  465loPI    C1 7425  10.651   5.406  10.138  0.0422 -0.0368  0.0035
  465loPI    C2 7426  10.287   5.570  10.171  0.0361 -0.0337 -0.0763
  465loPI    C3 7427  10.370   5.228  10.361  0.1014  0.1478  0.2304
  465loPI   PO4 7428  10.675   5.378   9.853 -0.2351 -0.1261 -0.0223
  465loPI   GL1 7429  10.694   5.446   9.504 -0.1714 -0.3308 -0.0386
  465loPI   GL2 7430  10.881   5.168   9.424 -0.1680 -0.2600 -0.0633
  465loPI   C1A 7431  10.587   5.582   9.055 -0.1043  0.1164 -0.1629
  465loPI   C2A 7432  10.428   5.916   8.713 -0.2659  0.2286  0.0809
  465loPI   C3A 7433  10.440   6.183   8.423 -0.0144  0.1230  0.0401
  465loPI   C4A 7434  10.497   6.161   7.887 -0.1408 -0.1900  0.0955
  465loPI   C5A 7435  10.267   6.130   7.525 -0.0138  0.1173  0.1204
  465loPI   C6A 7436  10.291   5.914   7.195 -0.3058 -0.2615  0.2057
  465loPI   C1B 7437  10.913   5.122   9.090 -0.0796  0.0636  0.0988
  465loPI   C2B 7438  10.844   5.355   8.679  0.2336  0.4770  0.0633
  465loPI   C3B 7439  10.735   5.583   8.220  0.4132  0.1581  0.0269
  465loPI   C4B 7440  10.544   5.675   7.863  0.0229 -0.0643 -0.0300
  466loPI    C1 7441  12.351  11.222  10.656 -0.2179  0.0566 -0.0341
  466loPI    C2 7442  12.221  11.595  10.720 -0.1545  0.0609  0.0710
  466loPI    C3 7443  12.366  11.379  11.024 -0.1212 -0.0227 -0.0040
  466loPI   PO4 7444  12.564  11.225  10.375 -0.0820  0.1119  0.1966
  466loPI   GL1 7445  12.655  11.360   9.958  0.1671  0.3807  0.1749
  466loPI   GL2 7446  12.370  11.472   9.892  0.0725  0.1572 -0.0005
  466loPI   C1A 7447  12.489  11.075   9.657  0.0237  0.4054 -0.1154
  466loPI   C2A 7448  12.254  10.851   9.257  0.4619  0.1928  0.2387
  466loPI   C3A 7449  12.133  10.853   8.864 -0.1308 -0.0172  0.2265
  466loPI   C4A 7450  11.864  10.752   8.455 -0.0424 -0.4413 -0.1936
  466loPI   C5A 7451  11.691  10.643   8.109 -0.0615 -0.0229  0.3035
  466loPI   C6A 7452  11.544  10.655   7.622  0.3033 -0.1854 -0.1012
  466loPI   C1B 7453  12.233  11.499   9.484 -0.0522 -0.2505 -0.0939
  466loPI   C2B 7454  12.192  11.352   9.097 -0.2086  0.0480 -0.2962
  466loPI   C3B 7455  12.130  11.386   8.602 -0.3698  0.1093 -0.2424
  466loPI   C4B 7456  12.052  11.130   8.235 -0.1379  0.1334  0.1442
  467loPI    C1 7457   0.142  12.540   9.892 -0.3378 -0.0785 -0.0257
  467loPI    C2 7458  -0.006  12.718  10.219 -0.0580 -0.1368  0.1359
  467loPI    C3 7459   0.276  12.437  10.254 -0.2005 -0.3201 -0.1430
  467loPI   PO4 7460  -0.035  12.567   9.656  0.0620 -0.1140  0.1406
  467loPI   GL1 7461  -0.155  12.591   9.279  0.0930 -0.1183  0.1170
  467loPI   GL2 7462  -0.038  12.308   9.223 -0.1469  0.1291 -0.2440
  467loPI   C1A 7463  -0.032  12.844   8.911  0.0097  0.2444  0.1677
  467loPI   C2A 7464   0.017  12.820   8.557  0.1135 -0.0120 -0.0778
  467loPI   C3A 7465  -0.025  12.631   8.141 -0.0544 -0.0878 -0.0467
  467loPI   C4A 7466  -0.077  12.814   7.738  0.0635 -0.3261  0.1405
  467loPI   C5A 7467  -0.290  12.761   7.320  0.1432 -0.3278 -0.2843
  467loPI   C6A 7468  -0.196  12.926   6.952  0.0855  0.4095 -0.1022
  467loPI   C1B 7469  -0.374  12.390   8.884  0.0350  0.1339 -0.1830
  467loPI   C2B 7470  -0.419  12.395   8.516 -0.1047 -0.0752  0.4134
  467loPI   C3B 7471  -0.509  12.492   8.121 -0.0727 -0.2162  0.4435
  467loPI   C4B 7472  -0.526  12.288   7.671  0.1457  0.1194 -0.0037
  468loPI    C1 7473   0.482  10.661   9.937 -0.1563 -0.2273 -0.0418
  468loPI    C2 7474   0.569  11.002  10.127  0.1290 -0.1784 -0.2547
  468loPI    C3 7475   0.686  10.652  10.281 -0.2810 -0.1949  0.0336
  468loPI   PO4 7476   0.571  10.819   9.639  0.0520 -0.0998 -0.3177
  468loPI   GL1 7477   0.257  10.987   9.334  0.4412  0.2694  0.3196
  468loPI   GL2 7478   0.433  10.863   9.079 -0.2564 -0.1756  0.2539
  468loPI   C1A 7479  -0.188  10.884   9.120 -0.0815 -0.1211 -0.2206
  468loPI   C2A 7480  -0.392  10.450   8.883 -0.1941  0.0007  0.0513
  468loPI   C3A 7481  -0.319  10.469   8.473 -0.2916  0.0627  0.0994
  468loPI   C4A 7482  -0.209  10.465   8.054  0.2579 -0.0008  0.2756
  468loPI   C5A 7483  -0.141  10.852   7.646 -0.2299  0.5248 -0.1811
  468loPI   C6A 7484   0.271  10.996   7.482  0.1785  0.0463 -0.1019
  468loPI   C1B 7485   0.604  10.934   8.736  0.0438  0.1368  0.1215
  468loPI   C2B 7486   0.786  11.317   8.422  0.0792  0.0065  0.1411
  468loPI   C3B 7487   0.820  11.594   8.120  0.0773  0.1020 -0.0331
  468loPI   C4B 7488   0.492  11.465   7.719 -0.0397  0.1202 -0.0572
  469loPI    C1 7489   6.147   8.133   9.797 -0.0589 -0.1196 -0.0083
  469loPI    C2 7490   6.311   8.377  10.067 -0.0103 -0.0245 -0.1229
  469loPI    C3 7491   5.934   8.253  10.113 -0.0154  0.0238 -0.0325
  469loPI   PO4 7492   6.183   8.283   9.566  0.1315 -0.0475 -0.1200
  469loPI   GL1 7493   6.263   8.483   9.303  0.3009 -0.1650  0.2547
  469loPI   GL2 7494   6.390   8.818   9.197  0.0213 -0.1228 -0.0022
  469loPI   C1A 7495   6.443   8.398   8.904 -0.0720  0.1603 -0.2496
  469loPI   C2A 7496   6.592   8.532   8.443 -0.2039  0.2858  0.3346
  469loPI   C3A 7497   6.751   8.569   7.956 -0.4269 -0.1936  0.1738
  469loPI   C4A 7498   6.796   8.683   7.419  0.0718 -0.3148  0.3105
  469loPI   C5A 7499   6.573   9.024   7.181 -0.3481 -0.5051 -0.0694
  469loPI   C6A 7500   6.646   9.465   7.180  0.2141  0.0299 -0.1934
  469loPI   C1B 7501   6.445   8.959   8.775  0.0149  0.0888 -0.2279
  469loPI   C2B 7502   6.720   9.061   8.483  0.0975  0.4011 -0.0523
  469loPI   C3B 7503   6.759   9.059   8.046 -0.1895  0.3347  0.0560
  469loPI   C4B 7504   6.722   9.221   7.633  0.2721  0.0044  0.0922
  470loPI    C1 7505  17.186  11.354  10.082  0.2555  0.1950  0.2495
  470loPI    C2 7506  17.348  10.993  10.023  0.1461  0.1900 -0.0343
  470loPI    C3 7507  17.204  11.091  10.383  0.0755 -0.0908  0.0160
  470loPI   PO4 7508  17.005  11.358   9.811 -0.0204 -0.2238  0.0494
  470loPI   GL1 7509  17.000  11.208   9.360 -0.2944 -0.1213 -0.0762
  470loPI   GL2 7510  17.237  11.491   9.362  0.0399  0.0657 -0.2076
  470loPI   C1A 7511  17.044  11.344   8.958  0.0247  0.0502 -0.1580
  470loPI   C2A 7512  17.086  11.376   8.514 -0.2401  0.1355  0.2300
  470loPI   C3A 7513  17.143  11.453   8.081  0.0906  0.0408  0.1022
  470loPI   C4A 7514  17.153  11.408   7.630  0.2310  0.2426 -0.1136
  470loPI   C5A 7515  16.998  11.288   7.304  0.1549 -0.1389 -0.0118
  470loPI   C6A 7516  16.587  11.249   7.123  0.0074  0.1083 -0.1035
  470loPI   C1B 7517  17.447  11.804   9.158 -0.1077 -0.0497 -0.2404
  470loPI   C2B 7518  17.451  11.888   8.750  0.0686  0.2195 -0.2285
  470loPI   C3B 7519  17.376  11.949   8.314  0.2106 -0.3502 -0.1402
  470loPI   C4B 7520  17.274  11.968   7.801 -0.2283  0.1144 -0.0872
  471loPI    C1 7521  15.039   4.845   9.743 -0.0633 -0.2169 -0.1316
  471loPI    C2 7522  14.757   5.127   9.721  0.0944 -0.0466 -0.0060
  471loPI    C3 7523  14.711   4.817   9.969 -0.0157 -0.0588 -0.0413
  471loPI   PO4 7524  15.076   4.800   9.579 -0.0836 -0.0119  0.0902
  471loPI   GL1 7525  15.203   4.989   9.250  0.2452  0.2446  0.1914
  471loPI   GL2 7526  15.050   5.201   9.276  0.1989 -0.2255  0.2181
  471loPI   C1A 7527  15.120   5.047   8.774 -0.1980  0.0275 -0.4203
  471loPI   C2A 7528  15.118   5.171   8.318  0.1804 -0.0299 -0.3429
  471loPI   C3A 7529  15.009   5.263   7.897  0.1221  0.2742 -0.1741
  471loPI   C4A 7530  14.669   5.228   7.685  0.1908  0.4746 -0.0543
  471loPI   C5A 7531  14.340   5.045   7.389  0.1340 -0.1072 -0.2621
  471loPI   C6A 7532  13.975   5.101   7.063 -0.0984  0.2755  0.0155
  471loPI   C1B 7533  14.988   5.523   9.013 -0.2574  0.0086 -0.1821
  471loPI   C2B 7534  15.001   5.638   8.613 -0.1781  0.4932  0.2055
  471loPI   C3B 7535  14.981   5.673   8.152  0.1586  0.2889 -0.2906
  471loPI   C4B 7536  14.850   5.708   7.654 -0.1744  0.0464 -0.1026
  472loPI    C1 7537  16.691   3.230   9.905  0.0061 -0.0820 -0.0938
  472loPI    C2 7538  16.748   3.242   9.509  0.0309  0.0684 -0.0861
  472loPI    C3 7539  16.831   2.908   9.713  0.4742  0.1401 -0.1389
  472loPI   PO4 7540  16.530   3.408  10.054  0.1511 -0.0919  0.0078
  472loPI   GL1 7541  16.696   3.745   9.696  0.0312  0.0714  0.1022
  472loPI   GL2 7542  17.064   3.589   9.758 -0.2982 -0.2527  0.4137
  472loPI   C1A 7543  16.715   3.671   9.231  0.0975 -0.0226  0.1545
  472loPI   C2A 7544  16.805   3.529   8.993 -0.1460 -0.0150 -0.1095
  472loPI   C3A 7545  17.037   3.483   8.530  0.0076 -0.2793 -0.0647
  472loPI   C4A 7546  17.244   3.410   8.084 -0.0501  0.1358 -0.1558
  472loPI   C5A 7547  17.198   3.385   7.595 -0.0564  0.0777  0.0220
  472loPI   C6A 7548  17.328   3.469   7.058 -0.1001  0.3071 -0.2401
  472loPI   C1B 7549  17.189   3.611   9.328 -0.2045 -0.3528  0.0234
  472loPI   C2B 7550  17.119   3.869   9.008  0.0827 -0.4439 -0.2328
  472loPI   C3B 7551  17.256   3.936   8.641 -0.1732  0.3663 -0.0992
  472loPI   C4B 7552  17.160   3.967   8.213  0.0182  0.0249 -0.1665
  473loPI    C1 7553  13.398   9.346  10.230 -0.0673 -0.0927 -0.1484
  473loPI    C2 7554  13.503   8.996  10.392 -0.0358  0.0147  0.0667
  473loPI    C3 7555  13.784   9.264  10.297 -0.0415 -0.1084 -0.3123
  473loPI   PO4 7556  13.191   9.241  10.119  0.2189  0.1248 -0.3848
  473loPI   GL1 7557  13.101   9.456   9.724  0.0229  0.1111  0.1703
  473loPI   GL2 7558  13.387   9.147   9.694 -0.1422 -0.0286 -0.3022
  473loPI   C1A 7559  13.092   9.354   9.288  0.0327 -0.0445  0.1205
  473loPI   C2A 7560  13.203   9.354   8.877  0.4275 -0.0941 -0.1436
  473loPI   C3A 7561  13.304   9.345   8.408 -0.2099 -0.0846  0.2299
  473loPI   C4A 7562  13.297   9.391   7.954  0.1202  0.2556  0.1219
  473loPI   C5A 7563  13.258   9.164   7.651 -0.1843 -0.0400  0.1428
  473loPI   C6A 7564  13.030   8.852   7.481  0.0626 -0.0100 -0.1439
  473loPI   C1B 7565  13.516   9.088   9.178  0.3198  0.0715  0.0516
  473loPI   C2B 7566  13.460   8.952   8.706  0.0234  0.2949  0.1743
  473loPI   C3B 7567  13.459   8.861   8.334 -0.2296  0.2366 -0.1229
  473loPI   C4B 7568  13.411   8.754   7.874 -0.0832  0.1710  0.2870
  474loPI    C1 7569  13.296  14.444  10.197  0.1936 -0.0658 -0.0869
  474loPI    C2 7570  13.594  14.178  10.177  0.1508 -0.1248  0.0505
  474loPI    C3 7571  13.439  14.278  10.532  0.0461 -0.0504 -0.0158
  474loPI   PO4 7572  13.113  14.389  10.017  0.1921  0.2302 -0.0081
  474loPI   GL1 7573  12.961  14.345   9.642 -0.1125 -0.3140 -0.0691
  474loPI   GL2 7574  12.735  14.467   9.550 -0.3244  0.1444  0.0889
  474loPI   C1A 7575  12.979  14.480   9.072  0.1344  0.0483 -0.0694
  474loPI   C2A 7576  13.306  14.538   8.767 -0.0417  0.1200 -0.2497
  474loPI   C3A 7577  13.542  14.650   8.437 -0.3969 -0.0646 -0.2829
  474loPI   C4A 7578  13.491  14.427   7.986 -0.1252 -0.0086 -0.0479
  474loPI   C5A 7579  13.706  14.600   7.553  0.1663  0.2948  0.2500
  474loPI   C6A 7580  13.563  14.829   7.240 -0.2881 -0.1078  0.0330
  474loPI   C1B 7581  12.376  14.295   9.371  0.1248 -0.1295 -0.1546
  474loPI   C2B 7582  12.141  14.371   8.966  0.0037  0.1012 -0.4238
  474loPI   C3B 7583  12.240  14.244   8.610  0.0345  0.0590 -0.0586
  474loPI   C4B 7584  12.117  13.960   8.333  0.0020  0.0061 -0.1006
  475loPI    C1 7585   5.233   8.251   9.632 -0.1227 -0.0797 -0.0344
  475loPI    C2 7586   5.450   8.147   9.952 -0.2124  0.0906  0.0835
  475loPI    C3 7587   5.067   8.253   9.996 -0.1865  0.2492 -0.0623
  475loPI   PO4 7588   5.291   8.485   9.530  0.1786  0.0437 -0.1542
  475loPI   GL1 7589   5.545   8.615   9.258  0.1885 -0.2404  0.1396
  475loPI   GL2 7590   5.784   8.744   9.335  0.1785 -0.0537  0.3122
  475loPI   C1A 7591   5.513   8.617   8.796 -0.0878  0.2538 -0.0141
  475loPI   C2A 7592   5.538   8.621   8.336  0.3078  0.0609  0.1741
  475loPI   C3A 7593   5.677   8.377   7.980  0.2089  0.0952 -0.2506
  475loPI   C4A 7594   5.778   8.520   7.564 -0.0645  0.0280  0.1774
  475loPI   C5A 7595   5.832   8.769   7.193  0.2835 -0.1523  0.1523
  475loPI   C6A 7596   5.914   8.846   6.697  0.1602  0.1876 -0.1004
  475loPI   C1B 7597   5.993   8.795   8.927 -0.0623  0.0733 -0.0475
  475loPI   C2B 7598   6.075   8.729   8.488 -0.2788  0.0867  0.1158
  475loPI   C3B 7599   5.962   8.946   8.146 -0.1268  0.0630  0.4923
  475loPI   C4B 7600   5.911   9.029   7.676 -0.0258 -0.2156  0.1321
  476loPI    C1 7601   3.560  15.700  10.157  0.2220 -0.2836 -0.2774
  476loPI    C2 7602   3.615  16.093  10.108 -0.1178 -0.2056 -0.0613
  476loPI    C3 7603   3.871  15.882  10.331 -0.1051 -0.0467  0.0774
  476loPI   PO4 7604   3.430  15.598   9.968 -0.2888  0.1922  0.1708
  476loPI   GL1 7605   3.477  15.682   9.549 -0.2016  0.0959  0.0001
  476loPI   GL2 7606   3.513  15.399   9.442  0.2745  0.2482  0.1352
  476loPI   C1A 7607   3.711  16.000   9.245  0.2456  0.0992  0.0714
  476loPI   C2A 7608   3.553  16.042   8.832  0.0208 -0.2243  0.3648
  476loPI   C3A 7609   3.613  16.150   8.389  0.0812 -0.1318 -0.0910
  476loPI   C4A 7610   3.482  16.084   8.066  0.0207 -0.1015  0.3485
  476loPI   C5A 7611   3.179  15.932   7.674 -0.1480 -0.1163  0.0758
  476loPI   C6A 7612   2.808  15.780   7.447  0.3943 -0.0544 -0.0397
  476loPI   C1B 7613   3.535  15.545   9.059 -0.1540  0.2626  0.1347
  476loPI   C2B 7614   3.665  15.632   8.582  0.0209  0.3008 -0.3484
  476loPI   C3B 7615   3.712  15.463   8.184 -0.0279 -0.0497  0.5113
  476loPI   C4B 7616   3.444  15.228   7.958 -0.3565  0.0525 -0.0131
  477loPI    C1 7617   0.500   2.317  10.060  0.0422  0.1791  0.0413
  477loPI    C2 7618   0.191   2.116  10.215  0.1235  0.1198  0.1271
  477loPI    C3 7619   0.527   2.162  10.428  0.3169 -0.1508 -0.1118
  477loPI   PO4 7620   0.449   2.574   9.989 -0.3223  0.2648 -0.1355
  477loPI   GL1 7621   0.636   2.926   9.567  0.0373 -0.1180  0.2142
  477loPI   GL2 7622   0.342   2.974   9.719  0.0979  0.0736  0.2060
  477loPI   C1A 7623   0.787   2.855   9.126  0.3282 -0.0919  0.2724
  477loPI   C2A 7624   0.654   2.880   8.649 -0.0631  0.0034  0.0171
  477loPI   C3A 7625   0.829   3.060   8.470  0.1294 -0.0391  0.1548
  477loPI   C4A 7626   0.826   3.095   8.105 -0.2022 -0.0282  0.1207
  477loPI   C5A 7627   0.955   3.063   7.661  0.0308  0.1396  0.0019
  477loPI   C6A 7628   0.791   2.893   7.292 -0.4035 -0.2696 -0.0163
  477loPI   C1B 7629   0.261   2.897   9.272 -0.0784  0.2026  0.0359
  477loPI   C2B 7630   0.231   2.964   8.913  0.0937  0.2162 -0.0306
  477loPI   C3B 7631   0.051   2.853   8.509 -0.1161  0.3781  0.2295
  477loPI   C4B 7632   0.237   2.863   8.115 -0.3680  0.1395 -0.2565
  478loPI    C1 7633  12.969   1.230   9.646  0.0820 -0.0428  0.2250
  478loPI    C2 7634  12.888   0.993   9.957 -0.0842 -0.1165  0.1267
  478loPI    C3 7635  12.799   1.382   9.974 -0.1672 -0.1359  0.1414
  478loPI   PO4 7636  12.980   1.149   9.425 -0.1272 -0.1818  0.1407
  478loPI   GL1 7637  12.638   1.031   9.111  0.1908 -0.3493  0.0208
  478loPI   GL2 7638  12.897   0.874   9.073  0.1559  0.2755  0.2621
  478loPI   C1A 7639  12.694   1.113   8.614  0.1583  0.0415 -0.0801
  478loPI   C2A 7640  12.660   0.898   8.227 -0.3120 -0.1585  0.2245
  478loPI   C3A 7641  12.607   0.648   7.857 -0.1704  0.1640  0.0438
  478loPI   C4A 7642  12.673   0.360   7.605 -0.2384 -0.1529  0.1996
  478loPI   C5A 7643  12.356   0.087   7.446 -0.0830 -0.1713  0.3236
  478loPI   C6A 7644  11.898   0.045   7.518  0.1544  0.2338 -0.1360
  478loPI   C1B 7645  12.968   0.727   8.629  0.5540 -0.2610  0.0099
  478loPI   C2B 7646  13.097   0.556   8.248  0.1361  0.0489  0.0204
  478loPI   C3B 7647  13.132   0.225   7.950  0.1692 -0.1454 -0.0038
  478loPI   C4B 7648  13.246  -0.049   7.600 -0.0204 -0.0373  0.2966
  479loPI    C1 7649   7.216   8.909   9.785  0.0185 -0.0285 -0.2748
  479loPI    C2 7650   7.205   9.307   9.823 -0.1799 -0.0614  0.0522
  479loPI    C3 7651   7.473   9.137   9.579  0.0565  0.2594  0.0813
  479loPI   PO4 7652   7.013   8.828   9.716 -0.1281 -0.3384 -0.0584
  479loPI   GL1 7653   6.941   8.647   9.374  0.4662  0.1883 -0.0359
  479loPI   GL2 7654   7.174   8.863   9.266 -0.2791 -0.1192 -0.0235
  479loPI   C1A 7655   6.867   8.714   8.872 -0.1687  0.3015  0.0217
  479loPI   C2A 7656   7.130   8.798   8.551 -0.1308 -0.0016 -0.1119
  479loPI   C3A 7657   7.244   8.661   8.136 -0.2218  0.0299 -0.0208
  479loPI   C4A 7658   7.262   8.372   7.778 -0.2328  0.1131 -0.2846
  479loPI   C5A 7659   7.215   8.222   7.352 -0.0821  0.1655 -0.0895
  479loPI   C6A 7660   7.273   8.206   6.877  0.2706  0.1436  0.0244
  479loPI   C1B 7661   7.431   8.511   8.982  0.2275 -0.2694 -0.2214
  479loPI   C2B 7662   7.498   8.310   8.525 -0.4659  0.0671  0.1701
  479loPI   C3B 7663   7.560   8.264   8.181 -0.0337  0.3645 -0.0005
  479loPI   C4B 7664   7.615   7.958   7.827 -0.0869 -0.0827  0.0527
  480loPI    C1 7665  17.047   7.681   9.843 -0.0541 -0.0411 -0.0962
  480loPI    C2 7666  17.111   8.076   9.861  0.1205 -0.0620 -0.2309
  480loPI    C3 7667  16.741   7.935   9.804  0.0778  0.0861 -0.3254
  480loPI   PO4 7668  17.361   7.609   9.727 -0.1407  0.1183  0.1725
  480loPI   GL1 7669  17.400   7.507   9.331 -0.0154  0.0156 -0.1766
  480loPI   GL2 7670  17.200   7.523   8.998  0.1965 -0.1681  0.0274
  480loPI   C1A 7671  17.680   7.229   9.181  0.3015 -0.3012 -0.0796
  480loPI   C2A 7672  17.778   6.992   8.823  0.1583 -0.1105  0.3090
  480loPI   C3A 7673  17.827   6.851   8.408  0.1580  0.3669 -0.0422
  480loPI   C4A 7674  18.045   6.787   8.023  0.0290 -0.1976 -0.0489
  480loPI   C5A 7675  18.252   6.839   7.799  0.3966 -0.1321  0.2800
  480loPI   C6A 7676  18.319   6.750   7.354 -0.0148 -0.2745 -0.0067
  480loPI   C1B 7677  17.282   7.276   8.736 -0.2601 -0.0074  0.1046
  480loPI   C2B 7678  17.373   7.215   8.293  0.1665 -0.2007 -0.0862
  480loPI   C3B 7679  17.462   7.059   7.949  0.0200 -0.1377 -0.0670
  480loPI   C4B 7680  17.493   7.026   7.541 -0.1505  0.2455 -0.0785
  481loPI    C1 7681   7.130  12.580  10.060 -0.0908  0.0527 -0.0996
  481loPI    C2 7682   7.074  12.968   9.983 -0.0477  0.0833  0.0199
  481loPI    C3 7683   7.140  12.847  10.358 -0.1219 -0.0471 -0.0085
  481loPI   PO4 7684   7.044  12.467   9.828  0.1467 -0.1331  0.1207
  481loPI   GL1 7685   7.316  12.386   9.393  0.0448 -0.1231  0.2458
  481loPI   GL2 7686   7.605  12.268   9.328  0.0552  0.1508 -0.0226
  481loPI   C1A 7687   7.266  12.417   8.929 -0.4699 -0.1270 -0.1179
  481loPI   C2A 7688   7.220  12.503   8.472  0.2823 -0.1183  0.0512
  481loPI   C3A 7689   7.321  12.503   8.146  0.1107 -0.0420 -0.1788
  481loPI   C4A 7690   7.210  12.423   7.708 -0.0768  0.4953  0.2923
  481loPI   C5A 7691   7.465  12.314   7.335  0.2038  0.0403 -0.4630
  481loPI   C6A 7692   7.564  11.991   7.119  0.0235  0.1017 -0.2955
  481loPI   C1B 7693   7.761  12.459   8.943  0.2602  0.1402  0.1966
  481loPI   C2B 7694   7.780  12.491   8.505 -0.0212  0.1773 -0.2214
  481loPI   C3B 7695   7.829  12.574   8.184 -0.1179 -0.1577  0.2440
  481loPI   C4B 7696   7.633  12.631   7.794  0.0404 -0.2736  0.3451
  482loPI    C1 7697   8.551   6.878   9.741  0.1473  0.1639 -0.3456
  482loPI    C2 7698   8.701   6.836  10.109 -0.2779 -0.0893 -0.1941
  482loPI    C3 7699   8.943   6.930   9.805  0.0597  0.2466  0.1654
  482loPI   PO4 7700   8.346   6.673   9.689  0.0962  0.1049  0.1656
  482loPI   GL1 7701   8.224   6.439   9.369 -0.0721  0.1100  0.3308
  482loPI   GL2 7702   8.136   6.821   9.267  0.0960 -0.1223 -0.0336
  482loPI   C1A 7703   8.484   6.223   9.175 -0.1899  0.0129  0.1093
  482loPI   C2A 7704   8.588   5.852   8.911  0.3477 -0.0892 -0.0269
  482loPI   C3A 7705   8.502   5.633   8.598  0.0810 -0.0944  0.1042
  482loPI   C4A 7706   8.147   5.732   8.306 -0.1865 -0.1229  0.1392
  482loPI   C5A 7707   7.949   5.974   8.142  0.1254  0.0478 -0.1210
  482loPI   C6A 7708   7.648   6.165   7.965 -0.2635  0.1235 -0.1659
  482loPI   C1B 7709   8.247   6.627   8.891  0.0276 -0.2220  0.2433
  482loPI   C2B 7710   8.088   6.689   8.463 -0.1411 -0.0688  0.1454
  482loPI   C3B 7711   7.746   6.645   8.113 -0.0302  0.0374  0.2632
  482loPI   C4B 7712   7.654   6.529   7.625 -0.0671  0.0225  0.0779
  483loPI    C1 7713  18.306   2.724  10.255 -0.2014 -0.0180  0.0242
  483loPI    C2 7714  18.166   3.003  10.505 -0.1569  0.0202  0.0066
  483loPI    C3 7715  18.150   2.617  10.608  0.0029  0.0468  0.1362
  483loPI   PO4 7716  18.169   2.772   9.982  0.0022 -0.3554  0.1097
  483loPI   GL1 7717  18.027   2.914   9.604  0.2796 -0.4232 -0.2491
  483loPI   GL2 7718  17.942   2.581   9.598 -0.3482 -0.2329  0.1759
  483loPI   C1A 7719  17.796   3.135   9.344 -0.3122 -0.0356 -0.0198
  483loPI   C2A 7720  17.680   2.998   8.863  0.3452  0.1411 -0.4391
  483loPI   C3A 7721  17.795   3.228   8.460 -0.1290  0.2630  0.0998
  483loPI   C4A 7722  17.573   3.639   8.425 -0.1382  0.0777 -0.0881
  483loPI   C5A 7723  17.611   3.837   8.109 -0.2645 -0.0204 -0.0426
  483loPI   C6A 7724  17.968   3.997   7.852 -0.1807  0.1120  0.3495
  483loPI   C1B 7725  17.998   2.674   9.147 -0.1477  0.0146  0.0153
  483loPI   C2B 7726  18.071   2.669   8.736  0.0263  0.1239  0.1326
  483loPI   C3B 7727  18.099   2.668   8.313  0.0741 -0.0878  0.0453
  483loPI   C4B 7728  18.468   2.708   7.876  0.4675 -0.1536 -0.0470
  484loPI    C1 7729   3.553   9.174  10.007  0.2177  0.0391  0.1007
  484loPI    C2 7730   3.705   8.804   9.986  0.0630 -0.0200  0.0043
  484loPI    C3 7731   3.696   8.997  10.336 -0.0087 -0.1728  0.0878
  484loPI   PO4 7732   3.571   9.258   9.703 -0.2051 -0.2541 -0.1015
  484loPI   GL1 7733   3.490   9.042   9.285  0.0238  0.0788 -0.4316
  484loPI   GL2 7734   3.568   8.787   9.060 -0.2832  0.1088  0.0634
  484loPI   C1A 7735   3.762   9.307   8.879  0.0378 -0.0254 -0.3594
  484loPI   C2A 7736   3.715   9.407   8.419 -0.3559  0.0870  0.3160
  484loPI   C3A 7737   3.751   9.766   8.246 -0.1353 -0.3005 -0.0177
  484loPI   C4A 7738   3.946   9.818   7.898 -0.0042  0.0319  0.1776
  484loPI   C5A 7739   4.067   9.721   7.568  0.0145 -0.4141 -0.0113
  484loPI   C6A 7740   4.102   9.583   7.221  0.3695 -0.3472 -0.0865
  484loPI   C1B 7741   3.653   8.605   8.677 -0.1365  0.0712  0.1600
  484loPI   C2B 7742   3.778   8.881   8.237 -0.0051 -0.1874 -0.0330
  484loPI   C3B 7743   3.762   8.844   7.774 -0.0308  0.3634  0.5594
  484loPI   C4B 7744   3.769   8.733   7.416  0.2620 -0.0706  0.2913
  485loPI    C1 7745  13.980   9.938  10.308  0.3572  0.0993  0.1336
  485loPI    C2 7746  13.713   9.790  10.567  0.2499  0.0219 -0.0190
  485loPI    C3 7747  14.034   9.988  10.701  0.2995 -0.1894  0.1806
  485loPI   PO4 7748  13.997   9.756  10.092 -0.1097 -0.2228 -0.1564
  485loPI   GL1 7749  13.796   9.463   9.814 -0.0731 -0.1859 -0.1626
  485loPI   GL2 7750  13.604   9.567   9.503 -0.0122  0.4404  0.2161
  485loPI   C1A 7751  14.195   9.604   9.514 -0.0805  0.1647  0.0776
  485loPI   C2A 7752  14.165   9.640   8.999 -0.0545 -0.0199 -0.0868
  485loPI   C3A 7753  14.141   9.612   8.565 -0.0214 -0.1680  0.1410
  485loPI   C4A 7754  14.140   9.776   8.134 -0.5482  0.0163 -0.0365
  485loPI   C5A 7755  14.139   9.712   7.726  0.0676  0.1164  0.1567
  485loPI   C6A 7756  14.134   9.585   7.270 -0.1291  0.1627  0.0302
  485loPI   C1B 7757  13.674   9.554   9.089 -0.2327 -0.0673 -0.1515
  485loPI   C2B 7758  13.532   9.743   8.681 -0.1234  0.0059 -0.0171
  485loPI   C3B 7759  13.642   9.690   8.249 -0.1086 -0.1008  0.1934
  485loPI   C4B 7760  13.470   9.852   7.872 -0.1430  0.0869  0.1106
  486loPI    C1 7761  13.047  14.905  10.351  0.0317  0.1666 -0.0880
  486loPI    C2 7762  12.836  14.566  10.376  0.2603  0.0152 -0.1759
  486loPI    C3 7763  13.064  14.684  10.683 -0.1041  0.2848 -0.0015
  486loPI   PO4 7764  13.163  14.883  10.099 -0.0382  0.1630  0.2892
  486loPI   GL1 7765  13.197  14.791   9.708  0.1232 -0.0647  0.2391
  486loPI   GL2 7766  12.982  14.937   9.565  0.1466 -0.0152  0.4191
  486loPI   C1A 7767  13.421  14.565   9.360 -0.0707 -0.1771  0.2564
  486loPI   C2A 7768  13.680  14.295   9.030  0.0850 -0.1700  0.1884
  486loPI   C3A 7769  13.719  14.140   8.600  0.2596  0.2664  0.1571
  486loPI   C4A 7770  13.643  13.934   8.261 -0.2181 -0.0661 -0.1417
  486loPI   C5A 7771  13.417  13.950   7.904 -0.1382  0.1031 -0.0499
  486loPI   C6A 7772  13.442  14.157   7.521  0.2610  0.0835 -0.0478
  486loPI   C1B 7773  13.003  14.949   9.216  0.3929 -0.1051  0.1778
  486loPI   C2B 7774  12.896  14.913   8.821 -0.0842 -0.1236  0.1883
  486loPI   C3B 7775  13.042  14.779   8.471 -0.1572  0.1929 -0.0416
  486loPI   C4B 7776  13.076  14.673   8.084  0.4069 -0.4285 -0.0811
  487loPI    C1 7777   3.887  15.784   9.819  0.4260  0.0438 -0.0892
  487loPI    C2 7778   4.166  15.583  10.024  0.2010  0.0530  0.2345
  487loPI    C3 7779   3.925  15.389   9.770  0.2776 -0.0105  0.2100
  487loPI   PO4 7780   4.056  16.010   9.798  0.1912 -0.3461 -0.1388
  487loPI   GL1 7781   4.344  16.153   9.557 -0.0837 -0.1614 -0.0051
  487loPI   GL2 7782   4.303  16.436   9.654  0.0038 -0.0428  0.2831
  487loPI   C1A 7783   4.174  16.173   9.182 -0.1009  0.0143  0.1701
  487loPI   C2A 7784   3.969  16.275   8.903  0.1045 -0.1036 -0.1625
  487loPI   C3A 7785   4.090  16.380   8.530  0.1141  0.3436 -0.4271
  487loPI   C4A 7786   4.224  16.411   8.078  0.0910  0.1316 -0.1448
  487loPI   C5A 7787   4.374  16.477   7.696 -0.0845  0.2396 -0.1633
  487loPI   C6A 7788   4.456  16.617   7.315  0.3018 -0.0789 -0.1360
  487loPI   C1B 7789   4.486  16.537   9.210 -0.0516 -0.1865 -0.0018
  487loPI   C2B 7790   4.537  16.517   8.771  0.0595  0.0076 -0.1623
  487loPI   C3B 7791   4.544  16.683   8.360  0.1411  0.1925  0.0774
  487loPI   C4B 7792   4.689  16.801   8.075  0.0032 -0.0428 -0.2930
  488loPI    C1 7793  10.022  13.924  10.020  0.3460  0.1713 -0.1409
  488loPI    C2 7794   9.763  14.225  10.070 -0.0958 -0.2071 -0.0698
  488loPI    C3 7795   9.999  14.214   9.746  0.1447  0.3620  0.0741
  488loPI   PO4 7796   9.859  13.720   9.965  0.1885 -0.1100 -0.1341
  488loPI   GL1 7797   9.653  13.763   9.584 -0.2634  0.2606 -0.3918
  488loPI   GL2 7798   9.415  13.942   9.490  0.1266  0.1254 -0.0700
  488loPI   C1A 7799   9.763  13.468   9.185 -0.3625 -0.0877  0.5760
  488loPI   C2A 7800   9.913  13.375   8.731  0.0010  0.0918  0.0090
  488loPI   C3A 7801   9.968  13.187   8.272 -0.0460 -0.2151  0.0022
  488loPI   C4A 7802   9.941  13.034   7.893 -0.2259  0.0428  0.3351
  488loPI   C5A 7803   9.672  13.154   7.490 -0.0548  0.1425  0.2260
  488loPI   C6A 7804   9.659  13.581   7.346  0.0768  0.0679 -0.0961
  488loPI   C1B 7805   9.319  14.280   9.112 -0.0504 -0.1281 -0.0188
  488loPI   C2B 7806   9.512  14.435   8.693  0.0456 -0.2324  0.1581
  488loPI   C3B 7807   9.545  14.317   8.289 -0.3172 -0.2672 -0.0969
  488loPI   C4B 7808   9.720  14.431   7.942 -0.0642 -0.1296 -0.2429
  489loPI    C1 7809   2.804  10.963   9.904 -0.2892  0.1541 -0.0499
  489loPI    C2 7810   3.041  11.285   9.900 -0.1536  0.0536 -0.2146
  489loPI    C3 7811   2.859  11.175  10.239  0.1973  0.0150 -0.0344
  489loPI   PO4 7812   2.602  10.934   9.673  0.3274 -0.2646  0.1604
  489loPI   GL1 7813   2.623  10.882   9.252 -0.1932  0.0488 -0.3004
  489loPI   GL2 7814   2.769  10.626   9.227  0.2858  0.1325  0.0392
  489loPI   C1A 7815   2.828  10.965   8.836  0.1336 -0.0209  0.2683
  489loPI   C2A 7816   3.020  10.997   8.450 -0.1137 -0.0381  0.0224
  489loPI   C3A 7817   3.023  10.876   8.053  0.0883  0.0722 -0.1024
  489loPI   C4A 7818   3.225  10.988   7.696 -0.0847  0.0947 -0.0098
  489loPI   C5A 7819   3.422  11.131   7.311 -0.2813 -0.2324  0.0313
  489loPI   C6A 7820   3.101  11.381   7.021  0.3026 -0.2078 -0.0344
  489loPI   C1B 7821   2.570  10.491   8.930 -0.0670  0.0452 -0.1892
  489loPI   C2B 7822   2.537  10.549   8.585 -0.4267  0.0017  0.2426
  489loPI   C3B 7823   2.593  10.676   8.296  0.2112 -0.2053 -0.2617
  489loPI   C4B 7824   2.583  10.670   7.870 -0.2941  0.0744 -0.1744
  490loPI    C1 7825  10.327   4.294   9.660  0.1821  0.3497 -0.0167
  490loPI    C2 7826  10.719   4.267   9.736  0.1362 -0.0256  0.1117
  490loPI    C3 7827  10.454   4.137  10.006 -0.0775  0.1738  0.0018
  490loPI   PO4 7828  10.332   4.457   9.437 -0.2971 -0.0628  0.0766
  490loPI   GL1 7829  10.539   4.760   9.134  0.1843 -0.0527 -0.0899
  490loPI   GL2 7830  10.746   4.613   8.992  0.2484  0.0629  0.0860
  490loPI   C1A 7831  10.262   4.648   8.799  0.0676 -0.0935 -0.0406
  490loPI   C2A 7832  10.197   4.691   8.392  0.2726  0.2813 -0.0092
  490loPI   C3A 7833   9.989   4.843   8.133 -0.1469 -0.1733 -0.0182
  490loPI   C4A 7834  10.016   4.835   7.728  0.0311  0.0751 -0.0407
  490loPI   C5A 7835  10.310   4.761   7.412  0.1606  0.0145 -0.2343
  490loPI   C6A 7836  10.386   4.506   7.064 -0.1031  0.0737  0.0067
  490loPI   C1B 7837  10.682   4.841   8.658 -0.1415  0.0828  0.2602
  490loPI   C2B 7838  10.782   4.967   8.242  0.1814 -0.0663  0.1048
  490loPI   C3B 7839  10.810   5.150   7.811  0.0446  0.1312  0.4012
  490loPI   C4B 7840  10.870   5.456   7.541 -0.1519  0.0700 -0.0165
  491loPI    C1 7841  13.002   4.527   9.861 -0.0290 -0.1221  0.0022
  491loPI    C2 7842  13.277   4.553   9.572 -0.1265 -0.0357 -0.0835
  491loPI    C3 7843  13.349   4.714   9.931 -0.0857  0.0315 -0.1217
  491loPI   PO4 7844  12.743   4.667   9.707 -0.2860 -0.0597 -0.1103
  491loPI   GL1 7845  12.586   4.884   9.314  0.2774 -0.1714 -0.4638
  491loPI   GL2 7846  12.276   4.936   9.190 -0.0338  0.4499  0.0552
  491loPI   C1A 7847  12.787   5.093   9.008  0.3511  0.1409 -0.1943
  491loPI   C2A 7848  12.932   5.409   8.676  0.0899 -0.0375 -0.2128
  491loPI   C3A 7849  12.924   5.743   8.452 -0.2922 -0.0853 -0.1917
  491loPI   C4A 7850  12.914   6.033   8.136 -0.0516 -0.3190 -0.3093
  491loPI   C5A 7851  13.003   6.301   7.840  0.1105 -0.1740  0.0741
  491loPI   C6A 7852  12.718   6.626   7.591  0.4510  0.0275 -0.0056
  491loPI   C1B 7853  12.245   4.826   8.758 -0.1657 -0.1880 -0.3274
  491loPI   C2B 7854  12.133   4.844   8.354 -0.3495  0.0443  0.0614
  491loPI   C3B 7855  12.104   4.798   7.923 -0.0266 -0.0494 -0.0066
  491loPI   C4B 7856  12.090   4.511   7.601 -0.1247  0.2717  0.2397
  492loPI    C1 7857  11.745  16.180   9.747 -0.2123 -0.0925 -0.0184
  492loPI    C2 7858  12.091  16.010   9.856 -0.1343 -0.0201 -0.1498
  492loPI    C3 7859  11.919  16.283  10.092  0.1082  0.2433 -0.2718
  492loPI   PO4 7860  11.744  16.231   9.473 -0.0890  0.0355  0.0119
  492loPI   GL1 7861  11.790  16.364   9.152  0.0390 -0.3134  0.0090
  492loPI   GL2 7862  12.013  16.465   9.050  0.2734  0.0805  0.0036
  492loPI   C1A 7863  11.785  16.075   8.801 -0.0914  0.1555 -0.0034
  492loPI   C2A 7864  11.581  15.925   8.521 -0.1387  0.1839 -0.2067
  492loPI   C3A 7865  11.470  15.832   8.167  0.0427  0.0689 -0.0543
  492loPI   C4A 7866  11.556  15.928   7.716 -0.0069 -0.0686  0.1301
  492loPI   C5A 7867  11.887  15.693   7.433 -0.0071 -0.0506 -0.1335
  492loPI   C6A 7868  12.287  15.475   7.564  0.3021  0.0558 -0.0459
  492loPI   C1B 7869  12.079  16.511   8.685  0.0571 -0.2158  0.2152
  492loPI   C2B 7870  12.120  16.589   8.247 -0.3379  0.0780  0.1548
  492loPI   C3B 7871  12.301  16.551   7.834 -0.1089  0.1380 -0.0382
  492loPI   C4B 7872  12.494  16.738   7.495 -0.2291  0.1213  0.1030
  493loPI    C1 7873   9.450   2.070   9.617  0.1976 -0.2981 -0.1003
  493loPI    C2 7874   9.512   2.380   9.862  0.0532 -0.2950 -0.0671
  493loPI    C3 7875   9.559   2.006   9.996  0.2711 -0.2878 -0.1194
  493loPI   PO4 7876   9.190   2.046   9.520 -0.1058  0.0379 -0.0565
  493loPI   GL1 7877   8.879   2.030   9.160 -0.3324  0.3103 -0.1255
  493loPI   GL2 7878   8.893   2.366   9.014  0.0717  0.1813 -0.0765
  493loPI   C1A 7879   8.699   1.882   8.801 -0.4219  0.0133  0.2264
  493loPI   C2A 7880   8.657   1.574   8.474  0.1246  0.0905 -0.0478
  493loPI   C3A 7881   8.731   1.389   8.039  0.3913  0.0820 -0.0209
  493loPI   C4A 7882   8.638   1.281   7.629  0.1118 -0.1869  0.0005
  493loPI   C5A 7883   8.366   1.262   7.300 -0.1916  0.3036 -0.0619
  493loPI   C6A 7884   8.709   1.521   7.013  0.3013  0.0121 -0.1768
  493loPI   C1B 7885   9.047   2.214   8.643 -0.1572 -0.2747  0.1168
  493loPI   C2B 7886   9.226   2.238   8.120  0.2495 -0.1699  0.1842
  493loPI   C3B 7887   9.471   2.251   7.821 -0.1183  0.0676  0.2710
  493loPI   C4B 7888   9.930   2.102   7.889 -0.1940  0.2614  0.0740
  494loPI    C1 7889  16.467  10.466   9.279  0.0604 -0.1732  0.2535
  494loPI    C2 7890  16.302  10.332   9.617 -0.1735 -0.0603  0.1861
  494loPI    C3 7891  16.084  10.351   9.282 -0.0120  0.0543  0.0861
  494loPI   PO4 7892  16.711  10.703   9.325  0.1213 -0.1378  0.2963
  494loPI   GL1 7893  16.605  11.096   9.094  0.1468  0.0273  0.1254
  494loPI   GL2 7894  16.541  11.449   9.142 -0.3075  0.0802 -0.3483
  494loPI   C1A 7895  16.862  10.952   8.694  0.1412 -0.0806 -0.1483
  494loPI   C2A 7896  16.933  10.911   8.280  0.0615 -0.2663 -0.1891
  494loPI   C3A 7897  17.076  10.882   7.758  0.2428  0.0432 -0.1736
  494loPI   C4A 7898  17.080  10.820   7.454  0.1211 -0.1961  0.0689
  494loPI   C5A 7899  17.194  10.537   7.291 -0.1323  0.1078  0.2172
  494loPI   C6A 7900  17.640  10.398   7.128 -0.4013  0.1699  0.0770
  494loPI   C1B 7901  16.490  11.368   8.744  0.2584 -0.1125  0.1007
  494loPI   C2B 7902  16.617  11.309   8.345 -0.0204  0.0790  0.1618
  494loPI   C3B 7903  16.670  11.279   7.899  0.2663 -0.1047  0.3458
  494loPI   C4B 7904  16.645  11.540   7.479 -0.3274 -0.1052 -0.3779
  495loPI    C1 7905   0.149   4.271   9.293  0.0334 -0.2357 -0.0030
  495loPI    C2 7906  -0.196   4.223   9.488  0.0718 -0.1393  0.0901
  495loPI    C3 7907  -0.159   4.513   9.215  0.0332 -0.2437 -0.0275
  495loPI   PO4 7908   0.337   4.287   9.491  0.1186 -0.4662  0.1727
  495loPI   GL1 7909   0.588   4.626   9.586  0.0288  0.0206  0.2238
  495loPI   GL2 7910   0.365   4.826   9.328  0.0041  0.3207  0.1197
  495loPI   C1A 7911   0.856   4.664   9.236 -0.3915  0.0196 -0.0338
  495loPI   C2A 7912   0.887   4.674   8.780 -0.5958 -0.1328 -0.3800
  495loPI   C3A 7913   0.984   4.761   8.288 -0.1223 -0.0158  0.2101
  495loPI   C4A 7914   0.910   4.807   7.888 -0.1534  0.0673 -0.1090
  495loPI   C5A 7915   0.883   5.119   7.470 -0.1072 -0.0196  0.4779
  495loPI   C6A 7916   0.830   5.497   7.196  0.0407 -0.0259 -0.0101
  495loPI   C1B 7917   0.256   4.731   8.967  0.0489 -0.0085 -0.2691
  495loPI   C2B 7918   0.155   4.820   8.543  0.1171 -0.2515  0.0428
  495loPI   C3B 7919  -0.123   4.813   8.189 -0.2775 -0.0505 -0.2687
  495loPI   C4B 7920  -0.099   4.869   7.825 -0.1443  0.2267 -0.1628
  496loPI    C1 7921  12.840  12.927  10.297  0.2413  0.0952 -0.1592
  496loPI    C2 7922  13.126  12.760  10.522  0.1889  0.2362  0.0149
  496loPI    C3 7923  12.769  12.844  10.682 -0.0020 -0.0716 -0.2378
  496loPI   PO4 7924  13.022  12.864  10.017 -0.0182 -0.1259 -0.1787
  496loPI   GL1 7925  13.189  12.683   9.691  0.0824  0.1117  0.4128
  496loPI   GL2 7926  13.199  12.860   9.452 -0.0495  0.2822  0.0804
  496loPI   C1A 7927  13.103  12.309   9.586 -0.1935  0.0726 -0.0935
  496loPI   C2A 7928  13.086  12.202   9.146  0.1036 -0.1772 -0.0524
  496loPI   C3A 7929  12.941  12.292   8.677  0.1244 -0.1493 -0.0507
  496loPI   C4A 7930  12.670  12.290   8.317  0.1438 -0.1164  0.0562
  496loPI   C5A 7931  12.375  12.428   8.125  0.1304  0.1380 -0.0799
  496loPI   C6A 7932  12.156  12.150   7.898  0.0830  0.2675  0.3645
  496loPI   C1B 7933  13.350  12.706   9.025 -0.2717  0.0983  0.1086
  496loPI   C2B 7934  13.303  12.675   8.531  0.1036  0.0678 -0.0406
  496loPI   C3B 7935  13.055  12.555   8.160  0.1091 -0.3042 -0.1211
  496loPI   C4B 7936  12.886  12.707   7.794 -0.2540  0.0372 -0.2906
  497loPI    C1 7937  17.992   2.154   9.880 -0.0342  0.0927  0.1280
  497loPI    C2 7938  18.136   2.249  10.241  0.1921 -0.1363  0.1013
  497loPI    C3 7939  18.367   2.289   9.916  0.1117 -0.2707  0.0267
  497loPI   PO4 7940  17.664   2.265   9.906 -0.0603  0.2712 -0.1582
  497loPI   GL1 7941  17.515   2.178   9.475 -0.0959 -0.0258 -0.0256
  497loPI   GL2 7942  17.777   2.131   9.411 -0.2500  0.1013 -0.2797
  497loPI   C1A 7943  17.630   1.874   9.006  0.2803 -0.0181 -0.1731
  497loPI   C2A 7944  17.617   1.703   8.557  0.1701 -0.2566  0.1399
  497loPI   C3A 7945  17.704   1.723   8.150 -0.1936  0.1063 -0.0989
  497loPI   C4A 7946  17.743   1.718   7.714  0.2109  0.0955  0.0905
  497loPI   C5A 7947  17.782   1.583   7.276  0.1543  0.0364 -0.1638
  497loPI   C6A 7948  17.700   1.711   6.818  0.1038  0.1435  0.0077
  497loPI   C1B 7949  18.206   2.184   9.145  0.3688 -0.0214  0.1575
  497loPI   C2B 7950  18.405   2.272   8.734  0.0136  0.0165 -0.3090
  497loPI   C3B 7951  18.329   2.240   8.235  0.1608  0.0743  0.0746
  497loPI   C4B 7952  18.007   2.356   7.922  0.0865 -0.1360  0.4262
  498loPI    C1 7953   9.364   5.279   9.641  0.0398 -0.0131 -0.0119
  498loPI    C2 7954   9.501   4.968   9.431  0.0757 -0.2456  0.3480
  498loPI    C3 7955   9.576   4.994   9.823 -0.0835  0.1253  0.3584
  498loPI   PO4 7956   9.072   5.269   9.456 -0.1103  0.2443 -0.1616
  498loPI   GL1 7957   9.288   5.222   9.044 -0.0785 -0.2980  0.0022
  498loPI   GL2 7958   9.309   5.201   8.744 -0.0826 -0.0760 -0.0134
  498loPI   C1A 7959   8.844   5.164   8.830  0.2796  0.1092 -0.0446
  498loPI   C2A 7960   8.508   5.130   8.501 -0.0567  0.0302 -0.0644
  498loPI   C3A 7961   8.479   5.321   8.141  0.0972  0.0131  0.2257
  498loPI   C4A 7962   8.524   5.740   7.965 -0.1072  0.2034 -0.0519
  498loPI   C5A 7963   8.584   6.066   7.678 -0.0141 -0.0718  0.0855
  498loPI   C6A 7964   8.841   6.277   7.407 -0.1197 -0.4114  0.2445
  498loPI   C1B 7965   8.988   5.140   8.325  0.1393  0.1434  0.1019
  498loPI   C2B 7966   8.888   5.307   7.933 -0.1698 -0.3284  0.3144
  498loPI   C3B 7967   8.788   5.564   7.525 -0.2126  0.0530  0.2896
  498loPI   C4B 7968   8.908   5.888   7.167  0.2565  0.0245 -0.3828
  499loPI    C1 7969   1.307   9.676   9.459  0.0709  0.1722 -0.0835
  499loPI    C2 7970   1.531   9.990   9.566  0.1422  0.1528 -0.1752
  499loPI    C3 7971   1.132  10.018   9.570  0.1432  0.1480  0.1087
  499loPI   PO4 7972   1.371   9.640   9.256  0.3140 -0.0340  0.2093
  499loPI   GL1 7973   1.148   9.864   8.932 -0.4844  0.0689  0.0674
  499loPI   GL2 7974   1.080  10.112   9.077 -0.0052  0.3222 -0.0879
  499loPI   C1A 7975   1.334   9.769   8.511 -0.2053 -0.1890 -0.2092
  499loPI   C2A 7976   1.502   9.926   8.123 -0.3556 -0.0534 -0.0931
  499loPI   C3A 7977   1.857  10.021   7.800 -0.0776  0.0586  0.5035
  499loPI   C4A 7978   2.137  10.105   7.415 -0.3003 -0.1140  0.0164
  499loPI   C5A 7979   2.078  10.092   6.992  0.0847 -0.1081 -0.0274
  499loPI   C6A 7980   2.022  10.306   6.631 -0.3081 -0.3239 -0.4387
  499loPI   C1B 7981   1.135  10.183   8.571  0.0086  0.0026 -0.1733
  499loPI   C2B 7982   1.303  10.410   8.145 -0.1376 -0.1638  0.2315
  499loPI   C3B 7983   1.500  10.353   7.752  0.4925 -0.1271 -0.2125
  499loPI   C4B 7984   1.789  10.485   7.380 -0.1010 -0.2484 -0.3700
  500loPI    C1 7985   2.791  18.963  10.294  0.2066  0.0944 -0.2320
  500loPI    C2 7986   2.935  19.128  10.629 -0.3283 -0.3148  0.2191
  500loPI    C3 7987   2.626  19.298  10.440 -0.3372 -0.3436  0.2077
  500loPI   PO4 7988   3.058  18.795  10.182  0.0505  0.1651  0.0514
  500loPI   GL1 7989   2.993  18.877   9.773  0.1333  0.0556 -0.1517
  500loPI   GL2 7990   2.689  18.740   9.855 -0.0542  0.0756  0.0978
  500loPI   C1A 7991   2.951  18.914   9.353  0.1636  0.1046 -0.0847
  500loPI   C2A 7992   2.739  18.804   8.995 -0.1212  0.1113  0.3208
  500loPI   C3A 7993   2.570  19.096   8.606  0.2072  0.1778  0.4838
  500loPI   C4A 7994   2.634  19.188   8.155 -0.0592 -0.1958  0.1927
  500loPI   C5A 7995   2.701  18.920   7.783  0.1233 -0.1757  0.0172
  500loPI   C6A 7996   2.918  18.670   7.533  0.0513 -0.1019 -0.0492
  500loPI   C1B 7997   2.500  18.688   9.473 -0.1751 -0.3113  0.3194
  500loPI   C2B 7998   2.212  18.524   9.208 -0.0737  0.0678  0.2410
  500loPI   C3B 7999   2.151  18.475   8.674 -0.2920  0.1596 -0.1419
  500loPI   C4B 8000   2.526  18.590   8.425  0.1787  0.0380 -0.1380
  501loPI    C1 8001  16.108   9.639   9.613  0.0525  0.1551  0.0504
  501loPI    C2 8002  15.846   9.893   9.778 -0.1111 -0.1121  0.2082
  501loPI    C3 8003  15.984   9.582   9.989  0.1561 -0.1062  0.0468
  501loPI   PO4 8004  16.250   9.847   9.484 -0.0520 -0.0441 -0.0625
  501loPI   GL1 8005  16.546   9.955   9.271  0.0533  0.0770 -0.0513
  501loPI   GL2 8006  16.323   9.984   9.010 -0.1008  0.1158  0.0378
  501loPI   C1A 8007  16.733  10.280   8.914  0.0836  0.1085  0.1577
  501loPI   C2A 8008  16.759  10.475   8.435 -0.4107 -0.3512 -0.2206
  501loPI   C3A 8009  16.790  10.525   7.991  0.1189  0.1471 -0.0287
  501loPI   C4A 8010  16.883  10.359   7.601  0.0861 -0.0970 -0.0075
  501loPI   C5A 8011  16.606  10.476   7.315 -0.1884 -0.0386 -0.1502
  501loPI   C6A 8012  16.683  10.747   7.015  0.1076  0.0365 -0.0762
  501loPI   C1B 8013  16.337  10.217   8.620  0.0723 -0.0920 -0.1119
  501loPI   C2B 8014  16.307  10.362   8.176  0.2418 -0.0559 -0.0949
  501loPI   C3B 8015  16.273  10.379   7.692 -0.1667  0.0357  0.1052
  501loPI   C4B 8016  16.192  10.224   7.243 -0.1852 -0.0119  0.2692
  502loPI    C1 8017   6.355   4.771  10.275 -0.0277  0.0104  0.0642
  502loPI    C2 8018   6.571   4.435  10.304  0.0982  0.1086  0.2878
  502loPI    C3 8019   6.318   4.536  10.597 -0.2383  0.0069  0.0388
  502loPI   PO4 8020   6.323   4.730   9.973  0.0117  0.0599 -0.1302
  502loPI   GL1 8021   6.300   4.831   9.510 -0.0672  0.0528 -0.1050
  502loPI   GL2 8022   6.006   4.792   9.609  0.4372 -0.3338 -0.2056
  502loPI   C1A 8023   6.477   5.052   9.195 -0.3984  0.0795 -0.2053
  502loPI   C2A 8024   6.278   5.298   8.854  0.1887 -0.1281 -0.0613
  502loPI   C3A 8025   5.958   5.239   8.551  0.3021  0.2225 -0.1438
  502loPI   C4A 8026   5.959   5.405   8.172  0.0647 -0.0134  0.0701
  502loPI   C5A 8027   6.036   5.746   7.885  0.1779  0.1394 -0.1821
  502loPI   C6A 8028   6.204   5.680   7.495 -0.2860 -0.3454 -0.1691
  502loPI   C1B 8029   5.977   4.925   9.164  0.2347  0.0941 -0.3254
  502loPI   C2B 8030   5.642   4.974   8.839  0.4844  0.3526  0.3540
  502loPI   C3B 8031   5.249   5.123   8.738 -0.1167 -0.1034  0.0216
  502loPI   C4B 8032   4.951   5.300   8.405  0.0334  0.2078  0.0106
  503loPI    C1 8033   0.810  10.388   9.668 -0.4222  0.1487  0.2099
  503loPI    C2 8034   0.653  10.030   9.756  0.0926 -0.0708  0.2725
  503loPI    C3 8035   0.850  10.236  10.036  0.0630  0.1234  0.1526
  503loPI   PO4 8036   0.789  10.347   9.398 -0.0140 -0.0301  0.0299
  503loPI   GL1 8037   0.505  10.378   9.097 -0.0728 -0.0819  0.0604
  503loPI   GL2 8038   0.871  10.550   8.984 -0.1605 -0.2914 -0.1159
  503loPI   C1A 8039   0.478  10.391   8.616  0.2894  0.1700 -0.0016
  503loPI   C2A 8040   0.736  10.313   8.301  0.0498 -0.1796 -0.0216
  503loPI   C3A 8041   0.869  10.520   7.818  0.0149 -0.2943 -0.1467
  503loPI   C4A 8042   0.852  10.947   7.601 -0.1445  0.0911 -0.0728
  503loPI   C5A 8043   0.773  11.240   7.375 -0.2267 -0.1172  0.1004
  503loPI   C6A 8044   0.564  11.174   6.985  0.1588 -0.3389  0.0862
  503loPI   C1B 8045   1.073  10.663   8.605  0.1944  0.3299 -0.3110
  503loPI   C2B 8046   0.984  10.844   8.267 -0.0913  0.0587 -0.1483
  503loPI   C3B 8047   1.196  10.985   7.966 -0.0577  0.1417 -0.3661
  503loPI   C4B 8048   1.402  10.825   7.594 -0.4748  0.1632  0.1692
  504loPI    C1 8049  14.066  14.531  10.232  0.0626 -0.2160 -0.0774
  504loPI    C2 8050  14.032  14.192  10.442  0.0129 -0.0807  0.1359
  504loPI    C3 8051  14.320  14.455  10.531  0.2516 -0.2081 -0.2335
  504loPI   PO4 8052  14.058  14.453   9.811 -0.1271  0.3612 -0.1601
  504loPI   GL1 8053  13.880  14.198   9.519  0.0671  0.0897 -0.0640
  504loPI   GL2 8054  14.103  13.970   9.439 -0.2463  0.2390  0.0039
  504loPI   C1A 8055  14.160  14.309   9.090  0.0493  0.0628 -0.1585
  504loPI   C2A 8056  14.134  14.374   8.619 -0.2142 -0.2163 -0.0543
  504loPI   C3A 8057  14.000  14.286   8.212 -0.0357 -0.0076 -0.2095
  504loPI   C4A 8058  13.958  14.268   7.754  0.1503  0.1859  0.0910
  504loPI   C5A 8059  13.854  13.914   7.536  0.1588 -0.0196  0.3099
  504loPI   C6A 8060  13.869  13.503   7.465  0.0621  0.2056  0.1392
  504loPI   C1B 8061  14.232  13.816   9.083  0.0762  0.1094  0.1734
  504loPI   C2B 8062  14.303  13.815   8.681  0.1554  0.2414 -0.0313
  504loPI   C3B 8063  14.278  13.869   8.243 -0.4164 -0.5071  0.1345
  504loPI   C4B 8064  14.367  14.033   7.844  0.0033  0.0612 -0.0566
  505loPI    C1 8065  15.269  10.356  10.233  0.1965 -0.0865 -0.0773
  505loPI    C2 8066  15.417  10.723  10.181  0.0678 -0.0327 -0.0679
  505loPI    C3 8067  15.081  10.671  10.391 -0.0862 -0.1229 -0.3325
  505loPI   PO4 8068  15.307  10.316   9.843 -0.0865  0.2307  0.1130
  505loPI   GL1 8069  15.006  10.415   9.430  0.2487 -0.1261  0.2426
  505loPI   GL2 8070  15.253  10.531   9.305 -0.0214 -0.3065 -0.2072
  505loPI   C1A 8071  14.751  10.498   9.003 -0.2293  0.0728 -0.2775
  505loPI   C2A 8072  14.840  10.422   8.603 -0.2959 -0.0914 -0.1014
  505loPI   C3A 8073  14.865  10.428   8.236  0.0232 -0.4417  0.3670
  505loPI   C4A 8074  14.996  10.393   7.819 -0.0390  0.4209 -0.1774
  505loPI   C5A 8075  14.779  10.604   7.485  0.0698  0.2391 -0.2432
  505loPI   C6A 8076  14.752  10.735   7.058 -0.0257 -0.0143  0.1490
  505loPI   C1B 8077  15.246  10.615   8.868 -0.0945 -0.0906  0.0342
  505loPI   C2B 8078  15.137  10.815   8.525  0.1547  0.0915 -0.1007
  505loPI   C3B 8079  15.150  10.960   8.196  0.0551  0.2327  0.0741
  505loPI   C4B 8080  14.873  10.886   7.870 -0.0970  0.0479  0.0388
  506loPI    C1 8081  11.129  16.755   9.838  0.1090 -0.0173 -0.0981
  506loPI    C2 8082  11.056  17.136   9.937 -0.2162 -0.1179  0.0643
  506loPI    C3 8083  11.211  16.886  10.208  0.0822 -0.0819 -0.0692
  506loPI   PO4 8084  10.970  16.775   9.592  0.1218  0.1752  0.1143
  506loPI   GL1 8085  10.866  16.936   9.144  0.0074  0.0730  0.0556
  506loPI   GL2 8086  10.705  16.733   9.208  0.2410 -0.1076 -0.0207
  506loPI   C1A 8087  10.821  16.960   8.683 -0.0373  0.0828 -0.0627
  506loPI   C2A 8088  10.723  17.010   8.336  0.1159 -0.1272 -0.0927
  506loPI   C3A 8089  10.689  17.354   8.107 -0.1021 -0.3901 -0.0196
  506loPI   C4A 8090  10.694  17.621   7.683 -0.0050 -0.1895  0.1929
  506loPI   C5A 8091  10.691  17.626   7.151 -0.1413  0.0212  0.2250
  506loPI   C6A 8092  10.533  17.333   6.918 -0.2373  0.1490 -0.1186
  506loPI   C1B 8093  11.075  16.525   8.894  0.2292 -0.0843 -0.1386
  506loPI   C2B 8094  11.502  16.440   8.739  0.1468 -0.1235  0.1810
  506loPI   C3B 8095  11.626  16.393   8.304  0.1742 -0.2361  0.3304
  506loPI   C4B 8096  11.960  16.090   8.255  0.1474  0.0108  0.1464
  507loPI    C1 8097  17.497   9.294   9.799 -0.2700 -0.0305 -0.1796
  507loPI    C2 8098  17.550   9.674   9.686  0.0282 -0.0132  0.0091
  507loPI    C3 8099  17.246   9.578   9.927 -0.1018  0.0896 -0.1126
  507loPI   PO4 8100  17.523   9.151   9.590 -0.2015 -0.0175 -0.2769
  507loPI   GL1 8101  17.377   9.235   9.178  0.2173  0.1985 -0.0752
  507loPI   GL2 8102  17.591   9.327   8.833  0.1483  0.2191 -0.3973
  507loPI   C1A 8103  17.185   8.958   8.815 -0.0348 -0.1997 -0.4285
  507loPI   C2A 8104  17.270   9.001   8.440  0.5189 -0.2045  0.2349
  507loPI   C3A 8105  17.484   8.993   8.049  0.0902 -0.1502 -0.0600
  507loPI   C4A 8106  17.597   9.104   7.596  0.2615 -0.2262 -0.0394
  507loPI   C5A 8107  17.489   8.958   7.207  0.0102  0.4585  0.0910
  507loPI   C6A 8108  17.737   9.140   6.731  0.0351 -0.2915 -0.1723
  507loPI   C1B 8109  17.884   9.585   8.709  0.0778 -0.4204 -0.1054
  507loPI   C2B 8110  18.002   9.632   8.261  0.0157  0.0416 -0.3425
  507loPI   C3B 8111  18.322   9.686   7.953 -0.0052  0.4297  0.2557
  507loPI   C4B 8112  18.684   9.550   7.754 -0.2795 -0.0202 -0.1448
  508loPI    C1 8113  14.438  16.534  10.038  0.0832  0.0940 -0.1566
  508loPI    C2 8114  14.795  16.696  10.115  0.1799 -0.0305 -0.3366
  508loPI    C3 8115  14.498  16.733  10.380  0.2832  0.1962 -0.2493
  508loPI   PO4 8116  14.492  16.562   9.684 -0.3718  0.1025 -0.1794
  508loPI   GL1 8117  14.772  16.721   9.553 -0.0168  0.0464  0.2205
  508loPI   GL2 8118  15.159  16.741   9.357  0.2534  0.0907  0.0195
  508loPI   C1A 8119  14.805  16.453   9.106 -0.2003 -0.0241  0.0870
  508loPI   C2A 8120  14.851  16.550   8.653  0.2223  0.1150 -0.0420
  508loPI   C3A 8121  14.766  16.593   8.276  0.0933 -0.2336  0.2174
  508loPI   C4A 8122  14.846  16.841   7.996 -0.0697 -0.3973 -0.0922
  508loPI   C5A 8123  14.733  16.735   7.610 -0.0285  0.0112 -0.2988
  508loPI   C6A 8124  14.577  16.593   7.185  0.1459 -0.1650  0.2744
  508loPI   C1B 8125  15.198  16.868   8.894 -0.0143 -0.0035 -0.2315
  508loPI   C2B 8126  15.350  16.759   8.490 -0.1246 -0.2216  0.0595
  508loPI   C3B 8127  15.703  17.035   8.300  0.2056  0.1358  0.0507
  508loPI   C4B 8128  16.120  17.016   8.247 -0.0582 -0.0129  0.5950
  509loPI    C1 8129  14.425   1.829   9.637 -0.0542 -0.2023 -0.0536
  509loPI    C2 8130  14.609   1.568   9.878 -0.2625 -0.2897  0.0131
  509loPI    C3 8131  14.323   1.807  10.023  0.0216  0.0776 -0.0148
  509loPI   PO4 8132  14.495   1.636   9.401  0.2813  0.2934 -0.2643
  509loPI   GL1 8133  14.363   1.430   9.002  0.1112 -0.0098 -0.1510
  509loPI   GL2 8134  14.138   1.642   8.950 -0.2043 -0.0309  0.1479
  509loPI   C1A 8135  14.221   1.338   8.541 -0.1879  0.1739  0.0852
  509loPI   C2A 8136  14.101   1.043   8.197 -0.2697  0.1353 -0.1452
  509loPI   C3A 8137  13.944   0.736   7.946  0.2152  0.4023 -0.1527
  509loPI   C4A 8138  13.670   0.478   7.752  0.2895  0.0187  0.0542
  509loPI   C5A 8139  13.694   0.252   7.333  0.1251 -0.0047 -0.1255
  509loPI   C6A 8140  13.469   0.219   7.001  0.3304  0.0204  0.3458
  509loPI   C1B 8141  14.378   1.793   8.690 -0.1421 -0.3875 -0.2167
  509loPI   C2B 8142  14.500   1.630   8.249  0.1098  0.1315  0.0286
  509loPI   C3B 8143  14.055   1.522   8.003 -0.1238  0.3958  0.1231
  509loPI   C4B 8144  13.961   1.204   7.712  0.2508 -0.1813  0.1386
  510loPI    C1 8145  17.240  14.619   9.936 -0.1030  0.0115 -0.2063
  510loPI    C2 8146  17.009  14.412  10.189  0.0968  0.1424  0.0897
  510loPI    C3 8147  17.408  14.391  10.219  0.1298 -0.0537 -0.3937
  510loPI   PO4 8148  17.155  14.733   9.693  0.0527 -0.2213  0.0521
  510loPI   GL1 8149  17.252  15.088   9.525  0.0631  0.2843  0.0031
  510loPI   GL2 8150  17.163  15.310   9.459  0.1047 -0.0481  0.1896
  510loPI   C1A 8151  17.460  15.256   9.074 -0.0775 -0.1448 -0.0018
  510loPI   C2A 8152  17.607  15.359   8.709  0.2146  0.3176  0.1061
  510loPI   C3A 8153  17.864  15.282   8.315  0.1585 -0.2030 -0.2113
  510loPI   C4A 8154  18.039  15.372   7.854  0.4818 -0.1117 -0.2530
  510loPI   C5A 8155  18.098  15.833   7.661  0.0115 -0.0504 -0.4165
  510loPI   C6A 8156  18.004  16.187   7.523  0.3826  0.1926  0.2015
  510loPI   C1B 8157  16.987  15.146   9.012  0.0768  0.1341 -0.1733
  510loPI   C2B 8158  17.057  15.138   8.559  0.2619  0.1421 -0.0283
  510loPI   C3B 8159  17.102  15.087   8.105  0.3018 -0.0426 -0.1196
  510loPI   C4B 8160  16.996  15.251   7.727 -0.1141 -0.1572 -0.0718
  511loPI    C1 8161  10.341   1.586  10.065 -0.0204  0.2006  0.1810
  511loPI    C2 8162  10.684   1.791  10.075  0.1068 -0.0004  0.0131
  511loPI    C3 8163  10.637   1.468  10.306  0.1706 -0.1843 -0.2261
  511loPI   PO4 8164  10.253   1.588   9.869  0.1575  0.4505  0.1703
  511loPI   GL1 8165  10.263   1.698   9.346 -0.2902 -0.0575  0.1077
  511loPI   GL2 8166  10.194   2.045   9.271 -0.1880 -0.1890  0.0307
  511loPI   C1A 8167   9.930   1.460   8.997  0.0551 -0.2036  0.0330
  511loPI   C2A 8168   9.875   1.684   8.591 -0.0424 -0.0773 -0.1086
  511loPI   C3A 8169  10.136   1.743   8.271 -0.1358 -0.0574 -0.0822
  511loPI   C4A 8170  10.442   2.074   8.159 -0.1853  0.2579  0.2236
  511loPI   C5A 8171  10.463   2.481   8.028  0.2466 -0.2018  0.0247
  511loPI   C6A 8172  10.673   2.640   7.711  0.4251  0.4082  0.1058
  511loPI   C1B 8173  10.161   1.990   8.877 -0.0380 -0.0991  0.2280
  511loPI   C2B 8174  10.409   1.675   8.731 -0.0062  0.1613 -0.0093
  511loPI   C3B 8175  10.796   1.657   8.483 -0.0134 -0.0849 -0.0266
  511loPI   C4B 8176  11.150   1.427   8.555  0.0711  0.0965 -0.1413
  512loPI    C1 8177  14.347  15.418  10.413  0.0445 -0.0082 -0.0396
  512loPI    C2 8178  14.612  15.238  10.653  0.0608  0.0008 -0.0508
  512loPI    C3 8179  14.226  15.253  10.758  0.0913  0.1326  0.0450
  512loPI   PO4 8180  14.344  15.383  10.178 -0.0696  0.1946 -0.3333
  512loPI   GL1 8181  14.498  15.312   9.727  0.4804  0.0172 -0.2194
  512loPI   GL2 8182  14.651  15.583   9.823  0.3986  0.1209  0.1454
  512loPI   C1A 8183  14.445  15.174   9.243 -0.1161 -0.2076  0.0465
  512loPI   C2A 8184  14.286  15.171   8.802 -0.1810  0.4605  0.2357
  512loPI   C3A 8185  14.321  15.202   8.324 -0.1469  0.1765  0.0318
  512loPI   C4A 8186  14.359  15.207   7.887  0.0425  0.0713 -0.1912
  512loPI   C5A 8187  14.390  15.479   7.484  0.0520  0.0590 -0.0687
  512loPI   C6A 8188  14.204  15.623   7.149 -0.2105 -0.0587  0.0804
  512loPI   C1B 8189  14.601  15.648   9.393  0.1903 -0.0100  0.1390
  512loPI   C2B 8190  14.792  15.619   8.975  0.0390  0.2779 -0.0215
  512loPI   C3B 8191  14.841  15.480   8.577 -0.0575  0.0707  0.0233
  512loPI   C4B 8192  14.795  15.493   8.231 -0.1496 -0.1955 -0.3272
  513loPI    C1 8193  15.165   2.003  10.167  0.0122 -0.1685  0.2941
  513loPI    C2 8194  14.833   2.033   9.945  0.2350  0.0578 -0.0179
  513loPI    C3 8195  14.806   1.954  10.336 -0.1757 -0.1025 -0.0737
  513loPI   PO4 8196  15.318   2.166  10.067  0.1054  0.0159 -0.2236
  513loPI   GL1 8197  15.577   2.241   9.839  0.0052 -0.0644 -0.1350
  513loPI   GL2 8198  15.568   2.175   9.597  0.0138 -0.0844 -0.2736
  513loPI   C1A 8199  16.020   2.064   9.751  0.1618  0.0614 -0.0209
  513loPI   C2A 8200  16.134   1.871   9.365 -0.1151 -0.2072  0.0092
  513loPI   C3A 8201  16.218   1.756   8.975 -0.3926  0.0318 -0.1071
  513loPI   C4A 8202  16.140   1.668   8.542 -0.2668  0.2624  0.0663
  513loPI   C5A 8203  16.044   1.400   8.290 -0.0523  0.0200 -0.1651
  513loPI   C6A 8204  15.959   1.297   7.829 -0.1551  0.2337 -0.0455
  513loPI   C1B 8205  15.694   2.081   9.185 -0.0261  0.3532  0.1764
  513loPI   C2B 8206  15.770   1.973   8.756  0.0305 -0.2039  0.1946
  513loPI   C3B 8207  15.784   1.977   8.307 -0.0564  0.1903 -0.0665
  513loPI   C4B 8208  15.537   1.620   7.942  0.3547 -0.3894 -0.2226
  514loPI    C1 8209   9.186   8.829  10.180  0.0529  0.1277 -0.0851
  514loPI    C2 8210   9.451   8.653   9.937 -0.1200 -0.2027 -0.0405
  514loPI    C3 8211   9.578   8.888  10.235  0.1075 -0.1022 -0.2137
  514loPI   PO4 8212   8.943   8.824   9.972  0.1146 -0.0683 -0.1749
  514loPI   GL1 8213   8.873   8.899   9.572 -0.2741  0.2221  0.1651
  514loPI   GL2 8214   8.860   9.053   9.312 -0.0410 -0.0575  0.2194
  514loPI   C1A 8215   9.368   8.905   9.459 -0.0966 -0.0519 -0.1678
  514loPI   C2A 8216   9.472   8.969   9.052 -0.2694  0.3619 -0.3775
  514loPI   C3A 8217   9.781   8.947   8.840  0.1821 -0.1215  0.2342
  514loPI   C4A 8218   9.973   8.981   8.557 -0.1518  0.0694 -0.0154
  514loPI   C5A 8219  10.006   9.017   8.115 -0.2409 -0.4511 -0.3575
  514loPI   C6A 8220  10.001   8.747   7.820  0.1893  0.2707 -0.0542
  514loPI   C1B 8221   8.896   9.052   8.865 -0.2213  0.1437  0.0226
  514loPI   C2B 8222   8.949   9.009   8.396  0.1185 -0.1384 -0.0303
  514loPI   C3B 8223   9.061   8.779   8.047  0.1940 -0.0768  0.1661
  514loPI   C4B 8224   9.030   8.488   7.680 -0.1126  0.0143 -0.1963
  515loPI    C1 8225   6.050   1.848  10.062  0.3044  0.2176 -0.0322
  515loPI    C2 8226   5.984   2.117  10.351  0.1557  0.0918  0.0528
  515loPI    C3 8227   5.924   1.728  10.422 -0.1001  0.0790 -0.2146
  515loPI   PO4 8228   6.000   2.006   9.894  0.1577  0.1306 -0.0185
  515loPI   GL1 8229   5.967   2.255   9.573 -0.0474 -0.0124 -0.1402
  515loPI   GL2 8230   5.924   1.935   9.410  0.2920  0.2200 -0.1048
  515loPI   C1A 8231   6.073   2.509   9.262 -0.1816 -0.0245 -0.0078
  515loPI   C2A 8232   5.770   2.792   9.029 -0.1086  0.1622  0.1253
  515loPI   C3A 8233   5.627   3.022   8.760 -0.1879  0.0558 -0.1697
  515loPI   C4A 8234   5.635   3.254   8.380 -0.0481  0.0873  0.5042
  515loPI   C5A 8235   5.493   3.251   8.013 -0.1948 -0.0579  0.2164
  515loPI   C6A 8236   5.159   3.102   7.809  0.2636 -0.1239 -0.0978
  515loPI   C1B 8237   5.858   2.092   9.011 -0.1137 -0.1800  0.2130
  515loPI   C2B 8238   5.879   2.459   8.605  0.0319 -0.1081 -0.2587
  515loPI   C3B 8239   5.651   2.700   8.327  0.0802  0.1931 -0.0957
  515loPI   C4B 8240   5.526   2.734   7.911 -0.1705  0.1890  0.0621
  516loPI    C1 8241  12.524  10.318  10.424 -0.0449 -0.0981  0.1330
  516loPI    C2 8242  12.784  10.022  10.357 -0.0196 -0.0218 -0.1144
  516loPI    C3 8243  12.743  10.172  10.725 -0.1157 -0.4086  0.0371
  516loPI   PO4 8244  12.463  10.482  10.197  0.2423  0.0448 -0.1152
  516loPI   GL1 8245  12.231  10.434   9.869 -0.1552 -0.0963  0.1023
  516loPI   GL2 8246  11.992  10.602   9.726 -0.0820  0.1814 -0.0369
  516loPI   C1A 8247  12.291  10.302   9.477 -0.1791 -0.2083 -0.1634
  516loPI   C2A 8248  12.328  10.376   8.982 -0.0579 -0.1651 -0.0305
  516loPI   C3A 8249  12.369  10.516   8.550  0.0968 -0.1255 -0.2743
  516loPI   C4A 8250  12.255  10.648   8.105  0.1825 -0.0968  0.1677
  516loPI   C5A 8251  12.005  10.451   7.757  0.1197  0.1956  0.0118
  516loPI   C6A 8252  12.148  10.563   7.322 -0.1224 -0.1925  0.1191
  516loPI   C1B 8253  11.991  10.954   9.638  0.1812  0.2423  0.0895
  516loPI   C2B 8254  11.746  11.183   9.359 -0.1396 -0.0219 -0.0236
  516loPI   C3B 8255  11.608  11.243   8.885  0.0314 -0.1109 -0.0216
  516loPI   C4B 8256  11.596  11.406   8.534  0.2203 -0.0068 -0.3138
  517loPI    C1 8257   4.239   6.070   9.883 -0.1246 -0.0955 -0.0539
  517loPI    C2 8258   3.966   5.779   9.897 -0.1631 -0.0559  0.0280
  517loPI    C3 8259   4.249   5.800  10.178 -0.1001 -0.0730 -0.0341
  517loPI   PO4 8260   4.153   6.222   9.723  0.2071 -0.1824  0.1157
  517loPI   GL1 8261   3.903   6.064   9.429  0.1694  0.2506 -0.0407
  517loPI   GL2 8262   3.936   5.766   9.360  0.1488 -0.1638  0.1399
  517loPI   C1A 8263   3.863   6.377   9.036  0.2638 -0.1765 -0.2568
  517loPI   C2A 8264   3.751   6.381   8.654  0.1237 -0.0492  0.1697
  517loPI   C3A 8265   3.857   6.478   8.163  0.0470 -0.2301 -0.1082
  517loPI   C4A 8266   3.811   6.471   7.722 -0.0669 -0.1188  0.0487
  517loPI   C5A 8267   3.586   6.541   7.211 -0.0847  0.0667  0.0773
  517loPI   C6A 8268   3.906   6.668   6.806  0.0825 -0.1848  0.1908
  517loPI   C1B 8269   4.065   5.712   8.979  0.0945 -0.2276 -0.1669
  517loPI   C2B 8270   4.009   5.618   8.566 -0.1564 -0.0155 -0.0983
  517loPI   C3B 8271   3.844   5.553   8.141  0.0844 -0.0128  0.0254
  517loPI   C4B 8272   3.591   5.661   7.797  0.1453 -0.2300  0.1830
  518loPI    C1 8273  18.358  18.119  10.295  0.0137  0.0129 -0.0059
  518loPI    C2 8274  18.328  17.733  10.191 -0.2462  0.0252  0.0174
  518loPI    C3 8275  18.140  17.868  10.518  0.0485  0.1209  0.1510
  518loPI   PO4 8276  18.517  18.241  10.150  0.0384 -0.0919 -0.1083
  518loPI   GL1 8277  18.548  18.411   9.719 -0.2053  0.5066 -0.0873
  518loPI   GL2 8278  18.519  18.713   9.614 -0.1563 -0.1636 -0.2374
  518loPI   C1A 8279  18.419  18.200   9.355 -0.1261  0.0446  0.2894
  518loPI   C2A 8280  18.559  18.067   8.971  0.3704  0.1060 -0.1142
  518loPI   C3A 8281  18.680  18.065   8.613 -0.0548  0.2295  0.2426
  518loPI   C4A 8282  18.688  18.080   8.097 -0.2400 -0.2019  0.2853
  518loPI   C5A 8283  18.310  18.110   7.850 -0.2208  0.1115  0.2730
  518loPI   C6A 8284  17.984  18.077   7.512 -0.1527 -0.0023 -0.1205
  518loPI   C1B 8285  18.534  18.767   9.167 -0.0690  0.3329 -0.0562
  518loPI   C2B 8286  18.692  18.930   8.810  0.0367 -0.3797 -0.1350
  518loPI   C3B 8287  18.614  18.880   8.246 -0.0591 -0.1867 -0.3543
  518loPI   C4B 8288  18.574  18.624   7.846 -0.2646  0.1661  0.0775
  519loPI    C1 8289  18.971  11.548  10.129  0.0976  0.3102  0.0518
  519loPI    C2 8290  18.709  11.847  10.174 -0.1984  0.0876 -0.1549
  519loPI    C3 8291  18.626  11.484  10.320  0.0543  0.0451 -0.1112
  519loPI   PO4 8292  19.059  11.536   9.891 -0.0218  0.3743 -0.0237
  519loPI   GL1 8293  19.202  11.599   9.513  0.1941 -0.2017  0.0234
  519loPI   GL2 8294  19.346  11.815   9.315  0.2014 -0.3077  0.2859
  519loPI   C1A 8295  19.097  11.413   9.116 -0.1380  0.2069  0.1955
  519loPI   C2A 8296  18.941  11.458   8.707  0.1525  0.1549  0.3110
  519loPI   C3A 8297  18.980  11.499   8.293  0.1808 -0.4027 -0.0211
  519loPI   C4A 8298  19.205  11.681   7.832  0.2875 -0.1329 -0.2057
  519loPI   C5A 8299  19.281  11.884   7.409  0.3159  0.0311 -0.0269
  519loPI   C6A 8300  19.472  12.163   7.161 -0.1712 -0.2310  0.1489
  519loPI   C1B 8301  19.516  12.041   9.067 -0.0725 -0.4106  0.1498
  519loPI   C2B 8302  19.759  12.177   8.696 -0.1388  0.2341  0.0309
  519loPI   C3B 8303  19.578  12.450   8.390 -0.1342  0.4675  0.0408
  519loPI   C4B 8304  19.471  12.369   7.956 -0.1417 -0.1289  0.0728
  520loPI    C1 8305   9.069  15.442  10.169  0.0208  0.1490 -0.0272
  520loPI    C2 8306   9.089  15.591  10.540 -0.2183  0.0716  0.0191
  520loPI    C3 8307   8.733  15.514  10.375 -0.1147  0.1427 -0.2430
  520loPI   PO4 8308   9.333  15.515  10.014 -0.2286  0.0218  0.0321
  520loPI   GL1 8309   9.411  15.766   9.541  0.0550  0.1152 -0.2011
  520loPI   GL2 8310   9.570  15.934   9.544 -0.0869 -0.2936  0.1196
  520loPI   C1A 8311   9.465  15.597   9.174  0.0444 -0.0168 -0.0758
  520loPI   C2A 8312   9.472  15.373   8.780  0.0305 -0.0710 -0.3044
  520loPI   C3A 8313   9.575  15.315   8.370  0.0684  0.1327  0.0008
  520loPI   C4A 8314   9.598  15.175   7.777 -0.1805 -0.4078  0.0533
  520loPI   C5A 8315  10.009  15.175   7.484 -0.0248 -0.3125 -0.0710
  520loPI   C6A 8316  10.413  15.235   7.608  0.5790 -0.0448  0.0271
  520loPI   C1B 8317   9.822  15.988   9.161  0.1133 -0.1101  0.0439
  520loPI   C2B 8318   9.903  15.573   8.950  0.4519 -0.0281 -0.0122
  520loPI   C3B 8319  10.046  15.500   8.607  0.2712 -0.1433  0.2922
  520loPI   C4B 8320  10.135  15.134   8.475  0.1290  0.5023 -0.0594
  521loPI    C1 8321   1.703   5.507  10.236  0.0807 -0.0286 -0.0842
  521loPI    C2 8322   1.316   5.404  10.222  0.1756 -0.4019 -0.0543
  521loPI    C3 8323   1.553   5.255  10.508  0.2539  0.1492  0.1800
  521loPI   PO4 8324   1.781   5.504   9.990 -0.0980  0.1579 -0.0824
  521loPI   GL1 8325   1.747   5.445   9.541  0.1600 -0.2436 -0.1730
  521loPI   GL2 8326   1.542   5.284   9.340 -0.2095  0.0345  0.1735
  521loPI   C1A 8327   2.126   5.400   9.206 -0.1902  0.1958 -0.0217
  521loPI   C2A 8328   2.195   5.376   8.773  0.4435  0.4144  0.1227
  521loPI   C3A 8329   2.412   5.276   8.364  0.0155  0.1120 -0.1379
  521loPI   C4A 8330   2.506   5.238   7.997 -0.0604 -0.1924  0.1311
  521loPI   C5A 8331   2.845   4.957   7.937 -0.1385  0.4632 -0.0388
  521loPI   C6A 8332   3.177   4.926   7.692 -0.0370 -0.0868 -0.1414
  521loPI   C1B 8333   1.759   5.136   8.999 -0.1959 -0.4882 -0.3500
  521loPI   C2B 8334   1.952   5.062   8.528 -0.0935  0.0490 -0.0199
  521loPI   C3B 8335   2.011   5.052   8.013 -0.1524 -0.1400 -0.0174
  521loPI   C4B 8336   2.008   5.161   7.608  0.1816 -0.0582 -0.3421
  522loPI    C1 8337   2.138  13.455   9.942 -0.1326 -0.0307 -0.1476
  522loPI    C2 8338   1.760  13.336   9.998  0.0014 -0.3310  0.1551
  522loPI    C3 8339   1.885  13.685  10.150 -0.1763 -0.1867 -0.0259
  522loPI   PO4 8340   2.230  13.295   9.725 -0.0965 -0.0868  0.0891
  522loPI   GL1 8341   2.161  13.391   9.336 -0.1018 -0.1625 -0.3669
  522loPI   GL2 8342   2.430  13.220   9.214  0.3120 -0.1122 -0.5394
  522loPI   C1A 8343   2.237  13.679   9.096 -0.0156 -0.0163 -0.2046
  522loPI   C2A 8344   2.094  13.922   8.926 -0.3306 -0.0847 -0.1203
  522loPI   C3A 8345   1.854  14.221   8.700  0.1911  0.0158  0.1845
  522loPI   C4A 8346   1.810  14.278   8.220  0.2753  0.0493 -0.5644
  522loPI   C5A 8347   1.929  14.350   7.803 -0.0695 -0.3907  0.2371
  522loPI   C6A 8348   2.129  14.632   7.463  0.0427 -0.0830  0.1633
  522loPI   C1B 8349   2.545  13.375   8.800 -0.1492 -0.2014 -0.0703
  522loPI   C2B 8350   2.498  13.382   8.312  0.0312  0.0424 -0.1059
  522loPI   C3B 8351   2.136  13.479   8.059 -0.0617 -0.3428  0.0157
  522loPI   C4B 8352   1.864  13.691   7.640  0.0288  0.0962 -0.1536
  523loPI    C1 8353  14.887   2.879   9.721 -0.0939 -0.0299 -0.0162
  523loPI    C2 8354  14.748   3.252   9.754  0.1694  0.0524  0.1985
  523loPI    C3 8355  14.592   2.960   9.978 -0.0583  0.0244  0.0077
  523loPI   PO4 8356  14.992   2.890   9.422 -0.1270 -0.1273  0.1816
  523loPI   GL1 8357  14.952   2.946   8.926  0.1509  0.2464  0.0693
  523loPI   GL2 8358  15.330   2.806   8.881  0.1301 -0.0714 -0.1280
  523loPI   C1A 8359  14.697   3.340   8.616  0.2061 -0.1374  0.0201
  523loPI   C2A 8360  14.745   3.380   8.232  0.1172 -0.0362  0.0319
  523loPI   C3A 8361  14.618   3.707   7.993 -0.0805  0.0914 -0.0727
  523loPI   C4A 8362  14.458   3.750   7.613  0.0590 -0.0023 -0.2675
  523loPI   C5A 8363  14.138   3.684   7.279  0.0962 -0.2784 -0.2209
  523loPI   C6A 8364  13.937   3.805   6.841 -0.1771  0.1304 -0.0575
  523loPI   C1B 8365  15.578   2.801   8.526 -0.0293 -0.0671  0.2298
  523loPI   C2B 8366  15.957   2.977   8.510  0.2250 -0.1512 -0.1425
  523loPI   C3B 8367  16.195   2.889   8.157 -0.1079 -0.2061  0.2458
  523loPI   C4B 8368  16.038   2.808   7.743 -0.1993  0.1440  0.0409
  524loPI    C1 8369   4.467  18.230  10.371  0.0048  0.1631  0.1354
  524loPI    C2 8370   4.655  18.259  10.020  0.1165  0.1157  0.1907
  524loPI    C3 8371   4.702  18.545  10.296  0.1259  0.0922  0.2136
  524loPI   PO4 8372   4.276  18.077  10.323 -0.5134 -0.1738  0.2859
  524loPI   GL1 8373   4.042  17.936   9.909 -0.2251 -0.0486 -0.2059
  524loPI   GL2 8374   4.325  17.813   9.913  0.2616 -0.1665 -0.2145
  524loPI   C1A 8375   3.871  18.080   9.578 -0.1125  0.1906 -0.0600
  524loPI   C2A 8376   3.703  18.080   9.211  0.0900  0.2170 -0.0484
  524loPI   C3A 8377   3.689  18.160   8.785 -0.2532  0.0526 -0.0083
  524loPI   C4A 8378   3.769  18.266   8.320  0.1552 -0.0519 -0.0551
  524loPI   C5A 8379   3.767  18.085   7.905  0.1061 -0.2870  0.0218
  524loPI   C6A 8380   3.722  17.757   7.625 -0.1954  0.0828  0.1347
  524loPI   C1B 8381   4.271  17.870   9.455 -0.3044  0.2716  0.0784
  524loPI   C2B 8382   4.086  17.732   9.057 -0.2744 -0.2477  0.3301
  524loPI   C3B 8383   4.112  17.889   8.693  0.3740 -0.1214 -0.0664
  524loPI   C4B 8384   4.314  18.125   8.411  0.1006  0.0935 -0.2094
  525loPI    C1 8385  17.956   6.801   9.927  0.3373  0.1071 -0.0874
  525loPI    C2 8386  18.058   6.610  10.263  0.0115 -0.0630 -0.0823
  525loPI    C3 8387  17.855   6.954  10.283  0.1018 -0.0084 -0.1028
  525loPI   PO4 8388  18.134   6.708   9.732  0.2653  0.1003  0.2232
  525loPI   GL1 8389  18.161   6.384   9.475  0.1624  0.3701  0.3732
  525loPI   GL2 8390  18.134   6.122   9.310 -0.3056 -0.3234 -0.1002
  525loPI   C1A 8391  18.338   6.424   8.991 -0.1491 -0.1619  0.2600
  525loPI   C2A 8392  18.310   6.465   8.518  0.1946  0.3204  0.0464
  525loPI   C3A 8393  18.436   6.499   8.118  0.0409 -0.1762 -0.1593
  525loPI   C4A 8394  18.324   6.352   7.722  0.0606 -0.0515 -0.1518
  525loPI   C5A 8395  18.603   6.389   7.437 -0.0353 -0.0687 -0.0005
  525loPI   C6A 8396  18.764   6.437   7.095 -0.0839  0.1220 -0.1947
  525loPI   C1B 8397  18.222   5.918   8.872 -0.3438  0.2687  0.1682
  525loPI   C2B 8398  18.246   5.994   8.455 -0.0548 -0.1517  0.3059
  525loPI   C3B 8399  18.453   5.970   8.077  0.4712 -0.0185  0.1560
  525loPI   C4B 8400  18.580   5.853   7.647  0.0507 -0.0179  0.0291
  526loPI    C1 8401  13.569  15.167   9.982 -0.1428 -0.2401  0.2732
  526loPI    C2 8402  13.537  15.377  10.321  0.1110  0.2393  0.0102
  526loPI    C3 8403  13.286  15.447  10.018  0.0702  0.0182 -0.0088
  526loPI   PO4 8404  13.851  15.244   9.878 -0.0591  0.0283 -0.0312
  526loPI   GL1 8405  13.966  15.279   9.456 -0.2704 -0.0755 -0.0181
  526loPI   GL2 8406  14.004  14.900   9.508 -0.1758  0.1119 -0.0751
  526loPI   C1A 8407  14.087  15.655   9.251 -0.0575  0.0341 -0.1927
  526loPI   C2A 8408  14.294  15.638   8.871  0.1362  0.2555  0.2021
  526loPI   C3A 8409  14.374  15.713   8.453 -0.0908  0.1769  0.2323
  526loPI   C4A 8410  14.436  15.721   7.945 -0.1496 -0.0824 -0.3967
  526loPI   C5A 8411  14.875  15.685   7.741  0.0354  0.0996 -0.0118
  526loPI   C6A 8412  15.189  15.961   7.900  0.2551  0.1979 -0.1707
  526loPI   C1B 8413  14.015  14.785   9.082 -0.3317 -0.0400  0.2871
  526loPI   C2B 8414  13.877  14.855   8.726  0.0657  0.3356 -0.0839
  526loPI   C3B 8415  14.059  14.823   8.340  0.0741  0.0332 -0.0394
  526loPI   C4B 8416  13.727  14.877   7.973 -0.0928  0.4123 -0.0512
  527loPI    C1 8417  17.008  17.128  10.048  0.1306 -0.0920  0.3105
  527loPI    C2 8418  16.932  17.482  10.220 -0.0374  0.0721 -0.0900
  527loPI    C3 8419  16.713  17.161  10.317 -0.1133  0.1563  0.0200
  527loPI   PO4 8420  17.103  17.204   9.783 -0.2341 -0.1954 -0.0605
  527loPI   GL1 8421  16.910  16.956   9.540 -0.1401  0.2943 -0.1219
  527loPI   GL2 8422  16.763  17.277   9.455  0.2337  0.0025 -0.3038
  527loPI   C1A 8423  17.062  16.793   9.143  0.0130  0.1774 -0.0832
  527loPI   C2A 8424  17.326  16.547   8.818 -0.2067 -0.0697 -0.0394
  527loPI   C3A 8425  17.430  16.221   8.605 -0.1508 -0.2063  0.0854
  527loPI   C4A 8426  17.317  16.092   8.221  0.1234 -0.0654  0.3501
  527loPI   C5A 8427  16.963  15.783   7.870 -0.0453  0.2063  0.1055
  527loPI   C6A 8428  16.583  16.035   7.708 -0.2137 -0.1793 -0.1502
  527loPI   C1B 8429  16.977  17.334   9.089 -0.3269  0.0535 -0.1381
  527loPI   C2B 8430  17.055  17.329   8.644  0.0331  0.3115  0.3199
  527loPI   C3B 8431  17.030  17.516   8.282 -0.0635 -0.1793  0.2548
  527loPI   C4B 8432  17.002  17.563   7.773  0.3722  0.2217 -0.3167
  528loPI    C1 8433  10.743   9.102  10.316  0.1394 -0.2717  0.1063
  528loPI    C2 8434  11.046   9.152  10.573  0.2105 -0.1940  0.0084
  528loPI    C3 8435  10.687   9.309  10.653  0.1968 -0.2816  0.1221
  528loPI   PO4 8436  10.782   8.868  10.253  0.2474  0.0858  0.1316
  528loPI   GL1 8437  10.544   8.803   9.889  0.1165  0.0173 -0.0462
  528loPI   GL2 8438  10.484   8.564   9.812 -0.0868  0.1752  0.0622
  528loPI   C1A 8439  10.512   8.993   9.495  0.1194  0.1420  0.2310
  528loPI   C2A 8440  10.380   9.098   9.023  0.1332  0.0507  0.1699
  528loPI   C3A 8441  10.224   9.445   8.680 -0.1516 -0.2763  0.2504
  528loPI   C4A 8442  10.284   9.452   8.242  0.0296  0.1179  0.0935
  528loPI   C5A 8443  10.405   9.261   7.905 -0.0334  0.1321  0.1336
  528loPI   C6A 8444  10.628   9.005   7.751  0.2738 -0.4467 -0.0809
  528loPI   C1B 8445  10.684   8.489   9.467  0.1998 -0.1738 -0.1922
  528loPI   C2B 8446  10.824   8.643   9.067  0.0544  0.0625 -0.3141
  528loPI   C3B 8447  10.629   8.818   8.685  0.1078  0.3401  0.1428
  528loPI   C4B 8448  10.427   8.988   8.409 -0.0826 -0.1629 -0.1094
  529loPI    C1 8449  11.516   9.667  10.469 -0.0309 -0.0247  0.0682
  529loPI    C2 8450  11.618  10.053  10.500  0.1884 -0.0722 -0.0453
  529loPI    C3 8451  11.233   9.946  10.513  0.1271  0.1498 -0.0090
  529loPI   PO4 8452  11.714   9.573  10.253  0.0127 -0.3732 -0.3178
  529loPI   GL1 8453  11.605   9.448   9.739 -0.0541 -0.1560 -0.1995
  529loPI   GL2 8454  11.568   9.741   9.516  0.0127 -0.3449 -0.3609
  529loPI   C1A 8455  11.866   9.388   9.392 -0.1561 -0.0430  0.1586
  529loPI   C2A 8456  11.916   9.427   9.015 -0.0083  0.1800 -0.0321
  529loPI   C3A 8457  12.174   9.559   8.668  0.0626  0.1845 -0.0089
  529loPI   C4A 8458  12.124   9.723   8.259 -0.1747  0.0801  0.0944
  529loPI   C5A 8459  12.290   9.729   7.870 -0.3498 -0.0514  0.0145
  529loPI   C6A 8460  12.574   9.831   7.566  0.1834 -0.1554  0.0804
  529loPI   C1B 8461  11.563   9.798   9.194 -0.0302  0.0009  0.1937
  529loPI   C2B 8462  11.644   9.775   8.745  0.0894 -0.1570 -0.1650
  529loPI   C3B 8463  11.659   9.664   8.361 -0.1363  0.0433  0.1665
  529loPI   C4B 8464  11.826   9.395   8.069  0.3025 -0.0381  0.1348
  530loPI    C1 8465   3.873   4.805  10.321 -0.1907  0.3408 -0.1196
  530loPI    C2 8466   4.140   4.994  10.551 -0.0559  0.0163 -0.0047
  530loPI    C3 8467   4.037   4.616  10.632 -0.2821  0.0195 -0.2628
  530loPI   PO4 8468   3.900   4.849  10.062 -0.3342  0.1448  0.1462
  530loPI   GL1 8469   4.146   4.720   9.770  0.1362  0.0566  0.1922
  530loPI   GL2 8470   4.351   4.512   9.727 -0.0946  0.1292  0.2485
  530loPI   C1A 8471   4.075   5.013   9.450  0.0771  0.4257 -0.5365
  530loPI   C2A 8472   3.953   5.274   9.235 -0.1422  0.0407 -0.5144
  530loPI   C3A 8473   3.727   5.326   8.818 -0.1219 -0.1647 -0.3543
  530loPI   C4A 8474   3.728   5.122   8.391 -0.4320 -0.0079 -0.1142
  530loPI   C5A 8475   3.675   5.152   7.899  0.3727 -0.1781 -0.1037
  530loPI   C6A 8476   4.018   5.160   7.803  0.1035 -0.3451 -0.2089
  530loPI   C1B 8477   4.315   4.579   9.301 -0.1189 -0.0315 -0.0678
  530loPI   C2B 8478   4.513   4.582   8.812  0.0479  0.0101 -0.0146
  530loPI   C3B 8479   4.339   4.475   8.306 -0.1065  0.2613 -0.0256
  530loPI   C4B 8480   4.099   4.028   8.066  0.2507  0.1584  0.0054
  531loPI    C1 8481   9.661   7.476  10.247 -0.2002 -0.0728 -0.1620
  531loPI    C2 8482   9.351   7.514  10.497 -0.1657 -0.2396 -0.0926
  531loPI    C3 8483   9.517   7.155  10.438  0.2423 -0.0973  0.1461
  531loPI   PO4 8484   9.537   7.632  10.026  0.0710  0.3028 -0.1075
  531loPI   GL1 8485   9.455   7.644   9.635 -0.0578 -0.0714  0.0777
  531loPI   GL2 8486   9.223   7.690   9.412 -0.0368 -0.0612  0.0216
  531loPI   C1A 8487   9.640   8.017   9.279 -0.2718 -0.5237 -0.2253
  531loPI   C2A 8488   9.920   8.016   8.956  0.1918 -0.0813 -0.0665
  531loPI   C3A 8489  10.276   8.033   8.686 -0.4110 -0.1862  0.0117
  531loPI   C4A 8490  10.255   8.138   8.170 -0.2118 -0.1866  0.2269
  531loPI   C5A 8491  10.256   7.881   7.852 -0.3775  0.0704 -0.0431
  531loPI   C6A 8492  10.549   7.548   7.810  0.1998  0.0494 -0.0738
  531loPI   C1B 8493   9.470   7.638   9.072 -0.2269 -0.0352  0.1942
  531loPI   C2B 8494   9.928   7.556   9.164  0.0216  0.1694 -0.1843
  531loPI   C3B 8495  10.288   7.407   9.488  0.0491  0.0026  0.0051
  531loPI   C4B 8496  10.740   7.343   9.459 -0.0544  0.1685  0.1653
  532loPI    C1 8497  15.851   2.615  10.009  0.0635 -0.3310 -0.2033
  532loPI    C2 8498  16.013   2.644  10.374  0.2612 -0.1054 -0.3063
  532loPI    C3 8499  15.837   2.303  10.260  0.3494 -0.2348 -0.0633
  532loPI   PO4 8500  16.080   2.691   9.794  0.1731  0.1310 -0.3862
  532loPI   GL1 8501  16.374   2.698   9.549 -0.1736  0.0380  0.1315
  532loPI   GL2 8502  16.214   2.427   9.437 -0.1826  0.1963  0.0523
  532loPI   C1A 8503  16.504   2.925   9.153  0.0437  0.0776 -0.0840
  532loPI   C2A 8504  16.856   2.989   8.739 -0.2773  0.0059  0.2069
  532loPI   C3A 8505  17.124   2.999   8.357  0.0339  0.2529  0.0732
  532loPI   C4A 8506  17.211   2.876   7.919 -0.1165 -0.0097  0.0255
  532loPI   C5A 8507  17.387   2.717   7.592  0.2692 -0.0366 -0.2365
  532loPI   C6A 8508  17.554   2.418   7.414 -0.1143 -0.1083  0.2111
  532loPI   C1B 8509  16.266   2.237   9.058  0.1432 -0.1550  0.0410
  532loPI   C2B 8510  16.198   2.137   8.626  0.1061 -0.0959  0.0677
  532loPI   C3B 8511  16.299   2.287   8.235  0.1392 -0.0486 -0.1306
  532loPI   C4B 8512  16.072   2.293   7.870 -0.1703 -0.3188 -0.0139
  533loPI    C1 8513  15.122   7.792  10.373 -0.0144  0.0784 -0.1996
  533loPI    C2 8514  15.173   7.403  10.296 -0.1712  0.0528 -0.1778
  533loPI    C3 8515  15.350   7.569  10.614  0.0451  0.0411 -0.2896
  533loPI   PO4 8516  15.084   7.840  10.059 -0.1055 -0.0525 -0.0142
  533loPI   GL1 8517  14.890   7.702   9.613 -0.1179  0.2594  0.3253
  533loPI   GL2 8518  14.865   8.033   9.448 -0.1537  0.0691 -0.0450
  533loPI   C1A 8519  14.963   7.681   9.099  0.0804  0.2737  0.0021
  533loPI   C2A 8520  15.276   7.856   8.956 -0.0644 -0.1818 -0.0507
  533loPI   C3A 8521  15.416   7.942   8.499  0.0785 -0.2786  0.2068
  533loPI   C4A 8522  15.416   8.462   8.450  0.0724 -0.0740  0.0016
  533loPI   C5A 8523  15.454   8.896   8.298  0.1177  0.0250 -0.1422
  533loPI   C6A 8524  15.629   8.987   7.947  0.1891  0.0866 -0.0469
  533loPI   C1B 8525  14.850   8.140   8.965  0.0275 -0.1755 -0.0689
  533loPI   C2B 8526  14.988   8.170   8.554  0.0484 -0.2373 -0.1057
  533loPI   C3B 8527  15.117   8.129   8.126  0.2451 -0.4820 -0.3564
  533loPI   C4B 8528  15.345   7.721   8.034 -0.1450  0.1334 -0.5002
  534loPI    C1 8529  13.532  13.612  10.270 -0.2739  0.0054  0.0069
  534loPI    C2 8530  13.658  13.838  10.575 -0.0660 -0.0637 -0.0262
  534loPI    C3 8531  13.558  13.456  10.637 -0.0427 -0.0723 -0.0409
  534loPI   PO4 8532  13.380  13.713  10.106  0.1106 -0.0647 -0.1837
  534loPI   GL1 8533  13.551  13.844   9.672  0.0141  0.1162  0.0484
  534loPI   GL2 8534  13.414  14.175   9.689 -0.0607  0.0209 -0.0144
  534loPI   C1A 8535  13.638  13.684   9.285 -0.2502 -0.1313 -0.1039
  534loPI   C2A 8536  13.780  13.660   8.862  0.1209  0.0213  0.0400
  534loPI   C3A 8537  13.934  13.494   8.450  0.2953 -0.2309 -0.2155
  534loPI   C4A 8538  13.955  13.537   7.980 -0.0836 -0.3548  0.2003
  534loPI   C5A 8539  14.307  13.530   7.650 -0.2772 -0.1785 -0.0131
  534loPI   C6A 8540  14.483  13.328   7.250  0.1182 -0.4898  0.1534
  534loPI   C1B 8541  13.278  14.110   9.301  0.0458 -0.0475  0.1671
  534loPI   C2B 8542  13.134  14.086   8.792 -0.2332 -0.0647  0.2579
  534loPI   C3B 8543  13.158  14.243   8.362  0.1805 -0.0198 -0.3507
  534loPI   C4B 8544  12.963  14.154   7.997 -0.0142 -0.0140  0.0191
  535loPI    C1 8545  14.817  14.869  10.071  0.0231 -0.1169  0.3925
  535loPI    C2 8546  14.872  15.243  10.203 -0.0307  0.0059  0.0752
  535loPI    C3 8547  15.158  14.969  10.255  0.1307  0.1679  0.0504
  535loPI   PO4 8548  14.761  14.903   9.816 -0.1813 -0.3058  0.2553
  535loPI   GL1 8549  14.851  14.898   9.319  0.4017  0.2361 -0.0344
  535loPI   GL2 8550  14.944  15.224   9.223 -0.1953 -0.1270  0.0421
  535loPI   C1A 8551  14.552  14.732   8.977 -0.0397  0.0745  0.4940
  535loPI   C2A 8552  14.483  14.739   8.597 -0.0960  0.3455 -0.0594
  535loPI   C3A 8553  14.556  14.794   8.146  0.1041  0.1610  0.2098
  535loPI   C4A 8554  14.254  14.642   7.820  0.1389 -0.1805  0.1727
  535loPI   C5A 8555  14.201  14.528   7.371 -0.2343 -0.0863  0.1098
  535loPI   C6A 8556  14.191  14.192   7.331  0.1170 -0.2101 -0.0019
  535loPI   C1B 8557  14.909  15.071   8.761  0.2663  0.2868 -0.0684
  535loPI   C2B 8558  15.040  15.092   8.367  0.0914  0.2602 -0.1228
  535loPI   C3B 8559  14.840  15.149   7.932  0.2531  0.0126  0.2009
  535loPI   C4B 8560  14.715  14.853   7.652 -0.0073 -0.3986 -0.0701
  536loPI    C1 8561   0.304   5.007   9.883 -0.0318 -0.0844 -0.2373
  536loPI    C2 8562   0.389   5.150  10.246 -0.1946 -0.4750 -0.0394
  536loPI    C3 8563   0.008   5.103  10.134 -0.1508 -0.0909 -0.3735
  536loPI   PO4 8564   0.568   5.161   9.629  0.2615 -0.2284 -0.1769
  536loPI   GL1 8565   0.864   5.165   9.282  0.1065 -0.5933  0.0857
  536loPI   GL2 8566   1.200   4.980   9.161 -0.1508 -0.0389  0.4846
  536loPI   C1A 8567   0.729   5.143   8.825  0.2623 -0.1481  0.3927
  536loPI   C2A 8568   0.779   5.148   8.435 -0.1423  0.0474 -0.1190
  536loPI   C3A 8569   0.955   5.292   8.166  0.0562 -0.1998  0.0097
  536loPI   C4A 8570   1.136   5.445   7.849  0.0451  0.2524 -0.1381
  536loPI   C5A 8571   1.016   5.710   7.635  0.0685  0.1675  0.2697
  536loPI   C6A 8572   1.016   6.041   7.456 -0.1108  0.0435  0.1201
  536loPI   C1B 8573   1.365   4.931   8.751  0.0209 -0.2617  0.0696
  536loPI   C2B 8574   1.462   5.033   8.359  0.1042  0.2937  0.1558
  536loPI   C3B 8575   1.485   5.080   8.022 -0.1026  0.1669  0.2981
  536loPI   C4B 8576   1.535   5.317   7.608 -0.2595  0.0988 -0.1089
  537loPI    C1 8577   3.578  18.756  10.324 -0.1528  0.0254 -0.1842
  537loPI    C2 8578   3.378  18.853  10.656  0.0125 -0.2156 -0.0109
  537loPI    C3 8579   3.764  18.950  10.620 -0.0243 -0.1239 -0.1657
  537loPI   PO4 8580   3.517  18.548  10.278 -0.2151 -0.2501 -0.1338
  537loPI   GL1 8581   3.268  18.323   9.943 -0.2292  0.3184  0.0048
  537loPI   GL2 8582   2.960  18.260   9.944  0.1560  0.0330 -0.2117
  537loPI   C1A 8583   3.429  18.338   9.631  0.2066  0.0673 -0.5347
  537loPI   C2A 8584   3.273  18.369   9.206  0.3160 -0.0628  0.1404
  537loPI   C3A 8585   3.222  18.341   8.801  0.0903 -0.0177 -0.0829
  537loPI   C4A 8586   3.287  18.401   8.363  0.3672 -0.3453  0.1850
  537loPI   C5A 8587   3.229  18.449   7.921 -0.1631  0.0869  0.0958
  537loPI   C6A 8588   3.383  18.615   7.619  0.0342 -0.3194 -0.1725
  537loPI   C1B 8589   2.898  18.367   9.529 -0.0139  0.0076 -0.0202
  537loPI   C2B 8590   2.738  18.286   9.095 -0.4031  0.0441  0.0667
  537loPI   C3B 8591   2.761  18.285   8.706  0.0331  0.1406  0.3675
  537loPI   C4B 8592   2.794  18.225   8.233  0.1537 -0.0232  0.3381
  538loPI    C1 8593   4.671   1.381  10.008 -0.1992 -0.0033 -0.1182
  538loPI    C2 8594   4.960   1.150  10.162 -0.1830 -0.0007 -0.1448
  538loPI    C3 8595   4.724   1.364  10.404 -0.0548  0.1265 -0.1311
  538loPI   PO4 8596   4.782   1.651   9.875  0.2180 -0.3246 -0.1019
  538loPI   GL1 8597   4.892   1.870   9.516  0.1700 -0.1634 -0.0169
  538loPI   GL2 8598   5.071   2.096   9.362  0.1708  0.0164  0.2645
  538loPI   C1A 8599   4.909   1.581   9.025  0.1782  0.2446  0.1463
  538loPI   C2A 8600   5.154   1.663   8.692 -0.1379  0.0248 -0.1784
  538loPI   C3A 8601   5.003   1.870   8.387  0.2392 -0.0446  0.1432
  538loPI   C4A 8602   5.034   1.824   7.826  0.1676 -0.2291  0.0640
  538loPI   C5A 8603   5.183   1.650   7.511  0.3104  0.2005 -0.0139
  538loPI   C6A 8604   5.216   1.505   7.223  0.3312  0.1683  0.0710
  538loPI   C1B 8605   5.273   2.016   9.054  0.3288 -0.1835  0.2144
  538loPI   C2B 8606   5.349   2.170   8.618  0.1929 -0.0365 -0.0019
  538loPI   C3B 8607   5.402   2.249   8.153 -0.0441  0.1599 -0.0504
  538loPI   C4B 8608   5.160   2.369   7.831 -0.2301  0.0780 -0.0821
  539loPI    C1 8609  18.449   3.816  10.020 -0.0143  0.0399  0.0645
  539loPI    C2 8610  18.661   4.031  10.283 -0.1693  0.2638  0.0103
  539loPI    C3 8611  18.544   3.660  10.375 -0.1167  0.2953  0.2072
  539loPI   PO4 8612  18.555   4.008   9.741  0.3131 -0.3825 -0.2065
  539loPI   GL1 8613  18.617   3.871   9.293  0.0888  0.1408 -0.0909
  539loPI   GL2 8614  18.899   3.721   9.353  0.0876 -0.0070  0.0021
  539loPI   C1A 8615  18.664   3.577   8.912 -0.2471  0.1371 -0.0131
  539loPI   C2A 8616  18.521   3.592   8.498  0.0777 -0.0457  0.0789
  539loPI   C3A 8617  18.464   3.564   8.022 -0.2361 -0.1760 -0.2060
  539loPI   C4A 8618  18.287   3.486   7.661 -0.4231 -0.0826 -0.0715
  539loPI   C5A 8619  18.378   3.118   7.384 -0.0331 -0.0226  0.1431
  539loPI   C6A 8620  18.523   2.796   7.230 -0.1942  0.1007 -0.1915
  539loPI   C1B 8621  19.045   3.949   9.028  0.1874 -0.1949 -0.2600
  539loPI   C2B 8622  19.225   4.212   8.663  0.1505 -0.1075  0.0877
  539loPI   C3B 8623  19.209   4.381   8.353  0.0970  0.0711 -0.1174
  539loPI   C4B 8624  19.004   4.300   7.926  0.2162 -0.1007  0.2356
  540loPI    C1 8625   9.073   2.606   9.575  0.0057 -0.3651 -0.1018
  540loPI    C2 8626   8.753   2.370   9.534 -0.0833 -0.2574 -0.0324
  540loPI    C3 8627   8.993   2.327   9.851 -0.2424 -0.0879  0.1136
  540loPI   PO4 8628   9.178   2.612   9.340  0.0012 -0.0618 -0.0443
  540loPI   GL1 8629   9.283   2.711   8.872 -0.1845  0.1927 -0.3089
  540loPI   GL2 8630   9.469   2.857   8.920 -0.1611 -0.1795 -0.1808
  540loPI   C1A 8631   9.280   2.650   8.394  0.2949  0.2770 -0.1437
  540loPI   C2A 8632   9.293   2.715   7.905 -0.0719  0.2936 -0.0956
  540loPI   C3A 8633   9.486   2.658   7.459  0.2951 -0.4539  0.1718
  540loPI   C4A 8634   9.850   2.483   7.267 -0.0163 -0.0116  0.2990
  540loPI   C5A 8635   9.998   2.065   7.069  0.3720 -0.3218 -0.2350
  540loPI   C6A 8636  10.230   1.918   6.777  0.1413 -0.0607  0.2606
  540loPI   C1B 8637   9.685   2.883   8.428 -0.3036 -0.1358  0.0223
  540loPI   C2B 8638   9.731   2.973   7.983  0.3284  0.1399 -0.1768
  540loPI   C3B 8639   9.882   3.093   7.527 -0.1509 -0.4083 -0.1907
  540loPI   C4B 8640  10.261   3.251   7.339  0.0967  0.4041 -0.0460
  541loPI    C1 8641  16.996  18.826  10.586 -0.2765  0.0699  0.0639
  541loPI    C2 8642  17.263  18.680  10.845 -0.1208 -0.0684 -0.1709
  541loPI    C3 8643  17.018  18.975  10.956  0.1980  0.1319  0.0169
  541loPI   PO4 8644  17.144  18.644  10.365  0.4220 -0.1829  0.0337
  541loPI   GL1 8645  17.061  18.582   9.888  0.1786 -0.1109  0.0794
  541loPI   GL2 8646  16.956  18.218   9.684  0.1703  0.5021  0.3798
  541loPI   C1A 8647  17.342  18.586   9.571 -0.1255  0.1942  0.2783
  541loPI   C2A 8648  17.539  18.347   9.283 -0.2295 -0.0435 -0.1439
  541loPI   C3A 8649  17.608  18.282   8.798  0.2016  0.2359  0.0434
  541loPI   C4A 8650  17.717  18.430   8.471 -0.0475  0.0298  0.0420
  541loPI   C5A 8651  17.607  18.413   8.012 -0.1922 -0.2991  0.2637
  541loPI   C6A 8652  17.571  18.038   7.725 -0.1057 -0.2096 -0.0997
  541loPI   C1B 8653  16.779  18.221   9.176 -0.1392  0.1057  0.0574
  541loPI   C2B 8654  16.656  18.208   8.734  0.1237 -0.0784 -0.2460
  541loPI   C3B 8655  16.659  18.138   8.321 -0.1677 -0.1892  0.0783
  541loPI   C4B 8656  16.983  18.033   8.079 -0.1579  0.0545 -0.1399
  542loPI    C1 8657   5.136  13.012   9.760  0.2021 -0.0163  0.1355
  542loPI    C2 8658   5.241  12.958  10.142  0.1393 -0.0259  0.1517
  542loPI    C3 8659   4.911  12.783   9.999  0.0054  0.2079  0.1695
  542loPI   PO4 8660   5.316  12.866   9.613 -0.0743  0.1628 -0.2726
  542loPI   GL1 8661   5.510  13.024   9.155 -0.2980 -0.0441 -0.3349
  542loPI   GL2 8662   5.374  13.254   9.259 -0.1973  0.0785 -0.1723
  542loPI   C1A 8663   5.336  12.933   8.645 -0.0480 -0.0425  0.0575
  542loPI   C2A 8664   5.301  12.876   8.260 -0.1183  0.0532  0.0037
  542loPI   C3A 8665   5.324  12.745   7.825 -0.0663 -0.2552 -0.1799
  542loPI   C4A 8666   5.272  12.696   7.379  0.0153 -0.3222 -0.1733
  542loPI   C5A 8667   5.014  12.721   7.019 -0.1113  0.4703  0.2975
  542loPI   C6A 8668   4.758  12.982   6.763 -0.0957 -0.1166  0.1820
  542loPI   C1B 8669   5.293  13.404   8.845  0.1107 -0.1634  0.2253
  542loPI   C2B 8670   5.283  13.405   8.400 -0.1741 -0.0443 -0.2693
  542loPI   C3B 8671   5.220  13.311   7.951 -0.2502 -0.1559 -0.1620
  542loPI   C4B 8672   5.498  13.216   7.626 -0.0025 -0.2717 -0.1818
  543loPI    C1 8673   3.889  10.489   9.719 -0.0079 -0.1651  0.2390
  543loPI    C2 8674   3.592  10.344   9.943 -0.1767 -0.0719  0.0779
  543loPI    C3 8675   3.512  10.601   9.647  0.0483 -0.1603 -0.0618
  543loPI   PO4 8676   4.114  10.290   9.587  0.1767  0.2071 -0.0189
  543loPI   GL1 8677   4.075  10.184   9.232  0.0002 -0.1337  0.2001
  543loPI   GL2 8678   3.747  10.398   9.073 -0.0395  0.1728 -0.1613
  543loPI   C1A 8679   4.110  10.324   8.779 -0.0206 -0.1788  0.3676
  543loPI   C2A 8680   4.262  10.551   8.472 -0.2930  0.2153  0.2958
  543loPI   C3A 8681   4.412  10.689   8.017  0.0516  0.1069  0.0160
  543loPI   C4A 8682   4.686  10.715   7.645  0.1442  0.1895 -0.1055
  543loPI   C5A 8683   4.616  10.580   7.256  0.1063  0.0292  0.1704
  543loPI   C6A 8684   4.525  10.820   6.824 -0.1374  0.2780  0.0186
  543loPI   C1B 8685   3.629  10.412   8.631 -0.0204 -0.1429  0.2714
  543loPI   C2B 8686   3.796  10.338   8.235  0.1359  0.2577 -0.2073
  543loPI   C3B 8687   3.894  10.281   7.815  0.0359 -0.0916  0.4356
  543loPI   C4B 8688   3.828  10.072   7.334  0.1312  0.2322 -0.0084
  544loPI    C1 8689   3.910   1.465  10.510 -0.1648 -0.0282  0.0164
  544loPI    C2 8690   4.276   1.380  10.646 -0.0862  0.3040  0.0209
  544loPI    C3 8691   3.963   1.163  10.766  0.1238 -0.0650 -0.0831
  544loPI   PO4 8692   3.937   1.517  10.170 -0.0269 -0.1649  0.0595
  544loPI   GL1 8693   3.959   1.751   9.907  0.2109  0.1315  0.0874
  544loPI   GL2 8694   3.728   1.833   9.794 -0.3133 -0.1071 -0.0324
  544loPI   C1A 8695   4.016   1.691   9.372  0.0248  0.1911  0.0826
  544loPI   C2A 8696   4.043   1.761   8.874 -0.0134 -0.3550 -0.1954
  544loPI   C3A 8697   3.975   1.869   8.537 -0.3554  0.2720  0.3376
  544loPI   C4A 8698   4.204   1.894   8.090 -0.1655  0.2272  0.2190
  544loPI   C5A 8699   4.286   1.750   7.710 -0.2738 -0.1617 -0.1016
  544loPI   C6A 8700   4.209   1.579   7.354 -0.2866  0.0235  0.0731
  544loPI   C1B 8701   3.574   1.463   9.537  0.0894 -0.2013 -0.0509
  544loPI   C2B 8702   3.565   1.482   9.082 -0.1923 -0.0490  0.1870
  544loPI   C3B 8703   3.587   1.452   8.555  0.0861 -0.0755  0.3644
  544loPI   C4B 8704   3.277   1.407   8.156 -0.1087 -0.2506  0.1933
  545loPI    C1 8705  17.048   8.926   9.686 -0.4035  0.0699  0.0002
  545loPI    C2 8706  16.994   9.307   9.576  0.1549  0.2217  0.2197
  545loPI    C3 8707  16.911   9.194   9.950  0.1886  0.1764  0.2135
  545loPI   PO4 8708  17.131   8.852   9.427  0.0224  0.1314 -0.1496
  545loPI   GL1 8709  17.477   8.741   9.116  0.1055  0.1177 -0.0474
  545loPI   GL2 8710  17.734   8.822   8.936 -0.3269 -0.0056  0.0081
  545loPI   C1A 8711  17.272   8.475   8.789 -0.1398  0.0257 -0.1069
  545loPI   C2A 8712  16.882   8.247   8.480 -0.0077  0.1195 -0.1499
  545loPI   C3A 8713  16.687   8.012   8.120 -0.0062  0.2723  0.0208
  545loPI   C4A 8714  16.495   7.780   7.759 -0.0335 -0.1530 -0.0694
  545loPI   C5A 8715  16.247   7.628   7.509  0.0547  0.4644  0.1450
  545loPI   C6A 8716  15.955   7.937   7.413 -0.0262 -0.0449  0.2426
  545loPI   C1B 8717  17.628   8.722   8.568 -0.1728 -0.3498 -0.1464
  545loPI   C2B 8718  17.363   8.549   8.221 -0.1714  0.1268 -0.0446
  545loPI   C3B 8719  17.413   8.526   7.695 -0.0092  0.2599 -0.0807
  545loPI   C4B 8720  17.476   8.403   7.199  0.0314  0.1375 -0.0134
  546loPI    C1 8721   6.423  13.171  10.269  0.0893 -0.2500 -0.0768
  546loPI    C2 8722   6.708  13.010  10.499  0.2163  0.1337  0.0415
  546loPI    C3 8723   6.613  13.396  10.538 -0.1401  0.0738 -0.1801
  546loPI   PO4 8724   6.538  13.033  10.018 -0.2827 -0.0163  0.0131
  546loPI   GL1 8725   6.664  12.771   9.626 -0.2225  0.0430 -0.2813
  546loPI   GL2 8726   6.882  12.744   9.401 -0.3032 -0.1175 -0.2075
  546loPI   C1A 8727   6.372  12.773   9.324  0.0052 -0.0212  0.2815
  546loPI   C2A 8728   6.126  12.512   9.014  0.0112 -0.1078  0.0910
  546loPI   C3A 8729   6.184  12.517   8.580 -0.1121  0.2029 -0.2044
  546loPI   C4A 8730   6.316  12.411   8.259  0.2260 -0.2761  0.2317
  546loPI   C5A 8731   6.225  12.547   7.830  0.0384 -0.2040 -0.3122
  546loPI   C6A 8732   6.262  12.473   7.393 -0.2407  0.1130  0.2900
  546loPI   C1B 8733   7.000  12.794   8.974 -0.3064  0.0758 -0.0712
  546loPI   C2B 8734   6.998  13.014   8.587  0.3047 -0.0434 -0.2427
  546loPI   C3B 8735   7.070  12.942   8.188 -0.2817 -0.1077  0.1903
  546loPI   C4B 8736   7.224  12.936   7.799 -0.2554 -0.0197 -0.1457
  547loPI    C1 8737  15.818   4.444   9.687  0.1025 -0.0109 -0.0916
  547loPI    C2 8738  15.542   4.719   9.780  0.0193 -0.1294  0.0151
  547loPI    C3 8739  15.734   4.522  10.070  0.1674 -0.0969 -0.0598
  547loPI   PO4 8740  15.983   4.578   9.473 -0.0665 -0.2174 -0.0085
  547loPI   GL1 8741  15.897   4.417   9.073  0.1482  0.0343  0.2072
  547loPI   GL2 8742  15.885   4.119   8.964 -0.1191  0.1037 -0.0742
  547loPI   C1A 8743  15.642   4.318   8.619  0.2972  0.0096 -0.3082
  547loPI   C2A 8744  15.838   4.429   8.175  0.0955  0.2794  0.3011
  547loPI   C3A 8745  15.968   4.241   7.884  0.0272  0.1054  0.0019
  547loPI   C4A 8746  16.017   4.201   7.464  0.3505  0.1146 -0.1535
  547loPI   C5A 8747  15.873   3.927   7.145  0.0418  0.2254  0.0196
  547loPI   C6A 8748  16.116   3.603   6.883  0.1853  0.1600 -0.1131
  547loPI   C1B 8749  16.070   4.091   8.586 -0.0045 -0.0173 -0.0991
  547loPI   C2B 8750  16.256   3.972   8.160 -0.1689  0.0502 -0.0438
  547loPI   C3B 8751  16.469   4.094   7.797 -0.4121  0.3255 -0.2731
  547loPI   C4B 8752  16.593   4.411   7.484 -0.0545 -0.0221  0.1981
  548loPI    C1 8753  15.616   3.959   9.943  0.0592 -0.2392 -0.2242
  548loPI    C2 8754  15.317   3.930  10.208  0.1823  0.1598 -0.0330
  548loPI    C3 8755  15.697   3.901  10.330  0.2312 -0.1416 -0.2446
  548loPI   PO4 8756  15.388   4.162   9.762 -0.0624  0.2351  0.2080
  548loPI   GL1 8757  15.362   4.135   9.288  0.0411  0.0192  0.0684
  548loPI   GL2 8758  15.501   4.522   9.322 -0.0792  0.2067  0.0508
  548loPI   C1A 8759  15.409   3.842   8.972 -0.0226  0.0324  0.1421
  548loPI   C2A 8760  15.625   3.851   8.602 -0.0635 -0.2779  0.0742
  548loPI   C3A 8761  15.785   3.835   8.175  0.0344 -0.0683  0.1375
  548loPI   C4A 8762  15.735   3.818   7.739  0.0472  0.0297  0.2201
  548loPI   C5A 8763  15.482   4.176   7.504 -0.0208 -0.2833 -0.1291
  548loPI   C6A 8764  15.609   4.566   7.598 -0.0873 -0.2443 -0.0541
  548loPI   C1B 8765  15.353   4.592   8.903  0.0771 -0.0989  0.1546
  548loPI   C2B 8766  15.493   4.822   8.579  0.4056  0.2268  0.2519
  548loPI   C3B 8767  15.660   5.009   8.246  0.1042 -0.1310 -0.1590
  548loPI   C4B 8768  15.851   4.910   7.915 -0.3695  0.1211 -0.1753
  549loPI    C1 8769  15.211  17.808   9.911  0.1560  0.1217 -0.1602
  549loPI    C2 8770  15.312  17.585  10.227  0.0035  0.0027 -0.1943
  549loPI    C3 8771  15.340  17.983  10.247 -0.0774  0.0003 -0.0038
  549loPI   PO4 8772  15.236  17.582   9.674  0.0743  0.2424  0.0711
  549loPI   GL1 8773  15.059  17.528   9.236 -0.0111 -0.2364 -0.2188
  549loPI   GL2 8774  15.199  17.232   9.259 -0.1579  0.3110  0.1822
  549loPI   C1A 8775  15.352  17.756   9.029 -0.0529 -0.2853  0.2475
  549loPI   C2A 8776  15.719  17.845   8.921 -0.1454  0.1588  0.0520
  549loPI   C3A 8777  15.896  17.596   8.729 -0.1369  0.4029  0.3547
  549loPI   C4A 8778  16.109  17.581   8.312  0.1851  0.1167  0.0004
  549loPI   C5A 8779  16.074  17.501   7.899 -0.1457  0.2694  0.1193
  549loPI   C6A 8780  15.723  17.472   7.526  0.2014  0.0622 -0.0177
  549loPI   C1B 8781  14.993  17.360   8.782  0.0291 -0.3240 -0.0864
  549loPI   C2B 8782  14.962  17.422   8.269  0.2667  0.1570  0.0149
  549loPI   C3B 8783  15.240  17.129   8.053 -0.0129  0.2718 -0.0493
  549loPI   C4B 8784  15.580  16.940   7.780  0.0221 -0.0183  0.3108
  550loPI    C1 8785   9.759  17.570   9.676  0.3713 -0.2742  0.1326
  550loPI    C2 8786   9.940  17.906   9.795 -0.0185  0.0722 -0.2168
  550loPI    C3 8787   9.730  17.688  10.057 -0.0492  0.2880 -0.0586
  550loPI   PO4 8788   9.770  17.574   9.419  0.2365  0.0603  0.0147
  550loPI   GL1 8789   9.890  17.341   9.014 -0.1278 -0.0946 -0.2836
  550loPI   GL2 8790   9.527  17.105   9.089  0.2379  0.1961 -0.1338
  550loPI   C1A 8791  10.206  17.277   8.679 -0.1985 -0.3231 -0.0401
  550loPI   C2A 8792  10.659  17.504   8.627 -0.0904 -0.1020  0.2884
  550loPI   C3A 8793  10.996  17.739   8.538  0.0904 -0.1223  0.1864
  550loPI   C4A 8794  11.085  17.978   8.162 -0.0245  0.0382  0.1693
  550loPI   C5A 8795  11.231  17.974   7.739  0.1207 -0.0340  0.1418
  550loPI   C6A 8796  11.579  18.177   7.647 -0.2334  0.1279 -0.0309
  550loPI   C1B 8797   9.828  16.932   8.726 -0.1288  0.1299 -0.1772
  550loPI   C2B 8798   9.776  16.908   8.302 -0.2812  0.1009  0.0027
  550loPI   C3B 8799   9.727  16.747   7.906  0.1890  0.0766  0.0366
  550loPI   C4B 8800   9.874  16.341   7.728  0.0999 -0.0456  0.0184
  551loPI    C1 8801  10.142  12.949  10.398 -0.2217 -0.0675  0.1478
  551loPI    C2 8802  10.356  13.261  10.528 -0.1540  0.0297 -0.1878
  551loPI    C3 8803  10.331  12.929  10.750 -0.1238  0.2260  0.1142
  551loPI   PO4 8804  10.112  12.998   9.998  0.0801 -0.2204  0.1644
  551loPI   GL1 8805   9.866  13.250   9.789  0.3864 -0.1063 -0.0766
  551loPI   GL2 8806  10.063  13.285   9.576  0.1092 -0.1779 -0.0375
  551loPI   C1A 8807   9.492  13.104   9.415 -0.1002 -0.0654  0.0357
  551loPI   C2A 8808   9.549  13.023   9.047  0.1166  0.1809 -0.0879
  551loPI   C3A 8809   9.673  12.808   8.749 -0.0857 -0.1541  0.1878
  551loPI   C4A 8810   9.716  12.686   8.300  0.1873 -0.1432  0.1568
  551loPI   C5A 8811   9.742  12.648   7.785 -0.0700 -0.0465  0.1513
  551loPI   C6A 8812   9.917  12.397   7.432  0.0061  0.0835  0.3139
  551loPI   C1B 8813  10.057  13.083   9.185 -0.1126 -0.0628  0.1744
  551loPI   C2B 8814  10.190  12.870   8.862 -0.0538  0.0335  0.2364
  551loPI   C3B 8815  10.158  12.800   8.494 -0.2143  0.2499 -0.1150
  551loPI   C4B 8816  10.223  12.599   8.016  0.0711 -0.2036  0.1804
  552loPI    C1 8817   7.010  15.491   9.887 -0.0153 -0.2189 -0.1665
  552loPI    C2 8818   6.705  15.593  10.126  0.0178 -0.0392 -0.1995
  552loPI    C3 8819   7.064  15.760  10.178  0.0679 -0.1239 -0.2693
  552loPI   PO4 8820   6.834  15.386   9.657  0.0761 -0.0993  0.3313
  552loPI   GL1 8821   6.685  15.675   9.302  0.2084  0.1211  0.2455
  552loPI   GL2 8822   6.994  15.578   9.219 -0.0335 -0.1663 -0.1188
  552loPI   C1A 8823   6.483  15.822   8.972  0.2936 -0.0538 -0.0732
  552loPI   C2A 8824   6.374  15.885   8.562  0.0229  0.0602 -0.0355
  552loPI   C3A 8825   6.380  16.202   8.152  0.3198 -0.2633 -0.1292
  552loPI   C4A 8826   6.602  16.144   7.841 -0.0076  0.1215  0.1510
  552loPI   C5A 8827   6.737  16.135   7.478  0.0126 -0.1511  0.0197
  552loPI   C6A 8828   6.618  15.886   7.183  0.0489  0.2686  0.0202
  552loPI   C1B 8829   7.116  15.583   8.792  0.3962  0.3826  0.0256
  552loPI   C2B 8830   7.096  15.396   8.354  0.1294 -0.2476  0.2450
  552loPI   C3B 8831   6.883  15.224   7.996 -0.0577  0.2632  0.2930
  552loPI   C4B 8832   6.569  14.992   7.932  0.0017 -0.0365  0.3783
  553loPI    C1 8833  18.059   7.359  10.021  0.1650 -0.1125 -0.0108
  553loPI    C2 8834  17.981   7.734  10.134  0.0081 -0.0681 -0.2578
  553loPI    C3 8835  18.128   7.472  10.398 -0.0721  0.1111 -0.0319
  553loPI   PO4 8836  18.151   7.366   9.848 -0.1027  0.0467  0.1559
  553loPI   GL1 8837  18.188   7.366   9.380 -0.2785 -0.2856  0.0932
  553loPI   GL2 8838  18.106   7.079   9.428 -0.2292  0.2328  0.0060
  553loPI   C1A 8839  18.153   7.456   9.006  0.0943  0.2201 -0.1070
  553loPI   C2A 8840  18.246   7.428   8.533  0.0185 -0.2939 -0.1086
  553loPI   C3A 8841  17.946   7.239   8.153  0.1323 -0.1359 -0.2646
  553loPI   C4A 8842  17.891   7.260   7.702  0.4119  0.1678  0.3073
  553loPI   C5A 8843  17.888   7.295   7.199 -0.1061 -0.0598  0.1071
  553loPI   C6A 8844  17.834   7.565   6.930 -0.0265  0.0787  0.3947
  553loPI   C1B 8845  18.187   6.893   9.071 -0.4122 -0.0796  0.2641
  553loPI   C2B 8846  18.232   6.956   8.653  0.0055  0.3657  0.1228
  553loPI   C3B 8847  18.487   7.073   8.168  0.1652 -0.0881 -0.0908
  553loPI   C4B 8848  18.378   7.333   7.926 -0.0653  0.0232 -0.2059
  554loPI    C1 8849   2.100   0.845  10.417 -0.0546  0.0832  0.0228
  554loPI    C2 8850   1.775   0.727  10.618 -0.0847 -0.0075 -0.0781
  554loPI    C3 8851   2.131   0.735  10.801 -0.0991 -0.1600 -0.0412
  554loPI   PO4 8852   2.095   1.104  10.298  0.0163 -0.1963 -0.0343
  554loPI   GL1 8853   2.169   1.332  10.036 -0.0600 -0.3462  0.3923
  554loPI   GL2 8854   1.918   1.376   9.811  0.0360  0.2518  0.0818
  554loPI   C1A 8855   2.533   1.123   9.718 -0.2924 -0.3263 -0.2808
  554loPI   C2A 8856   2.672   0.884   9.342 -0.0688 -0.0732  0.1349
  554loPI   C3A 8857   2.555   0.793   8.980  0.0238  0.2443  0.1558
  554loPI   C4A 8858   2.632   0.988   8.517  0.0718 -0.0439 -0.1849
  554loPI   C5A 8859   2.397   0.861   8.211  0.3058 -0.0506 -0.0841
  554loPI   C6A 8860   2.537   0.655   7.899 -0.2184 -0.2012 -0.0544
  554loPI   C1B 8861   2.129   1.096   9.421 -0.1300  0.1171  0.2100
  554loPI   C2B 8862   1.773   0.879   9.355  0.3699 -0.0522  0.1362
  554loPI   C3B 8863   1.631   0.439   9.426  0.1817  0.2841  0.0764
  554loPI   C4B 8864   1.848   0.151   9.108 -0.0839 -0.1288 -0.3127
  555loPI    C1 8865   1.382   5.916  10.115 -0.0184  0.1103  0.0463
  555loPI    C2 8866   1.749   5.991  10.255  0.1024 -0.1334 -0.1318
  555loPI    C3 8867   1.460   5.873  10.505  0.1329  0.0955  0.0150
  555loPI   PO4 8868   1.419   5.806   9.794  0.1453 -0.2773  0.2599
  555loPI   GL1 8869   1.360   5.708   9.325 -0.0032 -0.0103 -0.3275
  555loPI   GL2 8870   1.096   5.577   9.216  0.0471  0.0300  0.0861
  555loPI   C1A 8871   1.740   5.724   9.095  0.3462  0.1541  0.0993
  555loPI   C2A 8872   1.751   5.570   8.703  0.2216 -0.1107  0.1529
  555loPI   C3A 8873   1.907   5.495   8.283  0.1670  0.0285 -0.0169
  555loPI   C4A 8874   1.924   5.608   7.867  0.0281  0.1782 -0.0382
  555loPI   C5A 8875   1.960   5.654   7.395  0.2129  0.0740 -0.0211
  555loPI   C6A 8876   2.192   5.599   7.016 -0.0394  0.0904  0.3387
  555loPI   C1B 8877   1.154   5.412   8.859 -0.0570  0.0190  0.0366
  555loPI   C2B 8878   1.299   5.474   8.446 -0.0303 -0.0262 -0.2348
  555loPI   C3B 8879   1.496   5.682   8.111 -0.2410  0.0911 -0.0371
  555loPI   C4B 8880   1.484   5.870   7.691 -0.1476  0.0932  0.2832
  556loPI    C1 8881  16.710   9.640   9.835  0.1290 -0.0591 -0.0536
  556loPI    C2 8882  16.501   9.979   9.865  0.2502  0.0190 -0.0841
  556loPI    C3 8883  16.522   9.729  10.176 -0.1600 -0.1496 -0.1868
  556loPI   PO4 8884  16.936   9.812   9.584  0.1877  0.0174  0.0021
  556loPI   GL1 8885  16.975   9.598   9.149 -0.1565  0.1478 -0.2482
  556loPI   GL2 8886  17.303   9.726   9.281  0.2049 -0.3445  0.0805
  556loPI   C1A 8887  17.136   9.489   8.758 -0.0349  0.1085 -0.1513
  556loPI   C2A 8888  17.431   9.602   8.438 -0.1772 -0.2290  0.2914
  556loPI   C3A 8889  17.307   9.432   7.986  0.2690  0.2730 -0.0923
  556loPI   C4A 8890  17.438   9.622   7.565 -0.1856 -0.0208 -0.3065
  556loPI   C5A 8891  17.668   9.931   7.286  0.2740 -0.1200 -0.2591
  556loPI   C6A 8892  18.124   9.952   7.128  0.0255  0.2920 -0.0534
  556loPI   C1B 8893  17.552  10.025   9.055  0.0993 -0.0378 -0.1211
  556loPI   C2B 8894  17.684  10.039   8.656 -0.1959  0.0008 -0.0878
  556loPI   C3B 8895  17.613  10.089   8.246  0.1861  0.2275 -0.0326
  556loPI   C4B 8896  17.554   9.996   7.782 -0.2058  0.2773 -0.2946
  557loPI    C1 8897  16.576   2.457   9.912  0.1912 -0.2260 -0.0472
  557loPI    C2 8898  16.637   2.433  10.307 -0.0189  0.2477  0.0209
  557loPI    C3 8899  16.304   2.280  10.146  0.1406 -0.0871  0.0001
  557loPI   PO4 8900  16.871   2.410   9.860 -0.1402 -0.0582  0.1655
  557loPI   GL1 8901  16.982   2.265   9.439  0.2359  0.0110 -0.1610
  557loPI   GL2 8902  16.667   2.268   9.338 -0.4544 -0.0786  0.3981
  557loPI   C1A 8903  17.178   2.074   9.138  0.0687 -0.0993  0.0600
  557loPI   C2A 8904  17.310   2.170   8.650 -0.0913  0.0606 -0.2218
  557loPI   C3A 8905  17.656   2.221   8.306  0.2097 -0.3743 -0.1278
  557loPI   C4A 8906  17.578   2.175   7.840 -0.0109 -0.0877 -0.2237
  557loPI   C5A 8907  17.417   1.933   7.406 -0.0367  0.6647  0.0327
  557loPI   C6A 8908  17.299   2.012   7.045 -0.0632  0.0625  0.2506
  557loPI   C1B 8909  16.655   2.512   8.925 -0.0510 -0.5236  0.2234
  557loPI   C2B 8910  16.921   2.459   8.472  0.1569  0.1234  0.0040
  557loPI   C3B 8911  17.197   2.439   8.127  0.1063 -0.0169 -0.1887
  557loPI   C4B 8912  17.116   2.315   7.715 -0.2045  0.0537 -0.0340
  558loPI    C1 8913  13.581   5.152   9.952  0.2399 -0.2113 -0.1825
  558loPI    C2 8914  13.772   5.324  10.258 -0.0618 -0.1364 -0.0326
  558loPI    C3 8915  13.658   4.942  10.284  0.0351 -0.1705 -0.1070
  558loPI   PO4 8916  13.742   5.209   9.751  0.2679 -0.0643  0.0598
  558loPI   GL1 8917  13.914   5.180   9.340  0.0852  0.1442 -0.0863
  558loPI   GL2 8918  14.097   4.895   9.345  0.1847 -0.1532 -0.3643
  558loPI   C1A 8919  13.591   5.273   8.980 -0.1522  0.2641 -0.1627
  558loPI   C2A 8920  13.444   5.359   8.558 -0.2297  0.0875 -0.2464
  558loPI   C3A 8921  13.537   5.204   8.131  0.0383 -0.1355 -0.0021
  558loPI   C4A 8922  13.678   4.917   7.763 -0.1642  0.0516 -0.0733
  558loPI   C5A 8923  13.832   4.761   7.444  0.0730 -0.1896  0.2794
  558loPI   C6A 8924  13.946   4.587   7.094 -0.0312  0.0087  0.1244
  558loPI   C1B 8925  14.022   5.044   8.868  0.0664  0.0040  0.1592
  558loPI   C2B 8926  14.109   5.152   8.557  0.0245 -0.3929 -0.0131
  558loPI   C3B 8927  14.102   5.344   8.174  0.0345  0.0383 -0.1020
  558loPI   C4B 8928  14.272   5.513   7.851  0.1726 -0.3096 -0.2049
  559loPI    C1 8929   0.902  11.322   9.875  0.0851 -0.0954  0.0881
  559loPI    C2 8930   1.113  11.611  10.053  0.1037 -0.0696  0.0242
  559loPI    C3 8931   0.748  11.518  10.187  0.0097  0.1299 -0.0881
  559loPI   PO4 8932   0.974  11.430   9.598 -0.3328 -0.2425  0.2416
  559loPI   GL1 8933   0.645  11.420   9.302  0.1408  0.0586  0.4331
  559loPI   GL2 8934   0.914  11.536   9.044 -0.2184  0.2425 -0.0560
  559loPI   C1A 8935   0.409  11.364   8.972 -0.3879 -0.3500 -0.5451
  559loPI   C2A 8936   0.266  11.681   8.719 -0.0511  0.5428  0.1015
  559loPI   C3A 8937   0.425  11.906   8.336  0.0466 -0.2195  0.0910
  559loPI   C4A 8938   0.500  11.918   7.889 -0.0006 -0.1985  0.0887
  559loPI   C5A 8939   0.629  11.987   7.575  0.2069 -0.2875  0.2755
  559loPI   C6A 8940   0.846  12.149   7.235  0.1271  0.1088  0.3195
  559loPI   C1B 8941   0.783  11.765   8.635 -0.0934 -0.1320  0.1995
  559loPI   C2B 8942   0.899  12.033   8.250  0.0574 -0.3354 -0.3568
  559loPI   C3B 8943   0.773  12.328   8.094 -0.0263  0.2517  0.2895
  559loPI   C4B 8944   0.806  12.526   7.778  0.3186 -0.0515  0.2027
  560loPI    C1 8945  12.470  12.484  10.473  0.0062 -0.0033  0.0350
  560loPI    C2 8946  12.206  12.545  10.766  0.0793 -0.0014  0.1008
  560loPI    C3 8947  12.251  12.819  10.478 -0.0110 -0.0152  0.0731
  560loPI   PO4 8948  12.317  12.211  10.375  0.2438  0.0947  0.0992
  560loPI   GL1 8949  12.337  12.162   9.936  0.1811 -0.0088 -0.2838
  560loPI   GL2 8950  12.610  11.976   9.918  0.1698 -0.1911  0.4360
  560loPI   C1A 8951  12.154  12.002   9.487 -0.3588 -0.3063 -0.0942
  560loPI   C2A 8952  12.233  11.836   9.050  0.1741 -0.0796  0.0919
  560loPI   C3A 8953  12.464  11.828   8.617 -0.2327  0.1709  0.0505
  560loPI   C4A 8954  12.379  11.720   8.233 -0.4873 -0.1089 -0.1031
  560loPI   C5A 8955  12.608  11.908   7.767  0.2731 -0.1551  0.0585
  560loPI   C6A 8956  12.768  12.342   7.498  0.1078 -0.2216  0.0671
  560loPI   C1B 8957  12.646  12.079   9.466 -0.3688 -0.1800 -0.0904
  560loPI   C2B 8958  12.725  11.862   9.017 -0.1849  0.0188 -0.0574
  560loPI   C3B 8959  13.002  11.632   8.778  0.3446  0.2094  0.2474
  560loPI   C4B 8960  12.930  11.870   8.420 -0.1710  0.1031  0.1864
  561loPI    C1 8961   6.775  13.613   9.777 -0.1187 -0.1137  0.0186
  561loPI    C2 8962   6.503  13.641  10.069  0.0968  0.0377  0.2080
  561loPI    C3 8963   6.835  13.423  10.124 -0.0408 -0.2500 -0.0683
  561loPI   PO4 8964   6.685  13.711   9.552  0.1458 -0.3353  0.3223
  561loPI   GL1 8965   6.637  13.480   9.235  0.0212 -0.0326  0.3467
  561loPI   GL2 8966   6.604  13.165   9.129 -0.1424  0.0046 -0.1747
  561loPI   C1A 8967   6.710  13.798   8.808  0.3484 -0.0708  0.1152
  561loPI   C2A 8968   6.888  13.792   8.447  0.1522  0.0319 -0.0907
  561loPI   C3A 8969   6.917  13.705   7.881  0.1368 -0.2262 -0.2672
  561loPI   C4A 8970   7.006  13.739   7.392 -0.2682  0.0642  0.1328
  561loPI   C5A 8971   7.403  13.770   7.194 -0.0182 -0.0906  0.2618
  561loPI   C6A 8972   7.638  14.116   7.239  0.2772 -0.1529  0.0559
  561loPI   C1B 8973   6.523  12.905   8.861 -0.0893  0.1992  0.3682
  561loPI   C2B 8974   6.528  12.911   8.380 -0.2273  0.1335  0.0950
  561loPI   C3B 8975   6.422  12.981   8.020  0.0030 -0.2538 -0.0776
  561loPI   C4B 8976   6.386  13.075   7.601 -0.1533 -0.1743 -0.0396
  562loPI    C1 8977   8.811  12.434  10.396  0.1926  0.0739  0.1738
  562loPI    C2 8978   8.413  12.393  10.383  0.1811  0.2199  0.0308
  562loPI    C3 8979   8.626  12.194  10.657  0.0316 -0.0247 -0.0275
  562loPI   PO4 8980   8.862  12.376  10.160  0.2537  0.0280  0.4438
  562loPI   GL1 8981   8.956  12.419   9.798 -0.0205  0.0540 -0.3480
  562loPI   GL2 8982   9.241  12.419   9.858 -0.3730  0.2189 -0.1496
  562loPI   C1A 8983   9.127  12.630   9.334  0.2169 -0.4521  0.3743
  562loPI   C2A 8984   9.260  12.614   8.875 -0.2835 -0.1291 -0.0897
  562loPI   C3A 8985   9.241  12.490   8.426 -0.0010 -0.0875  0.0457
  562loPI   C4A 8986   9.260  12.454   7.986 -0.0288 -0.2424 -0.4157
  562loPI   C5A 8987   9.077  12.295   7.640 -0.1177 -0.1368  0.0540
  562loPI   C6A 8988   8.891  11.975   7.365 -0.2757 -0.0309  0.1764
  562loPI   C1B 8989   9.430  12.263   9.471  0.0168  0.1272  0.0580
  562loPI   C2B 8990   9.537  12.164   9.081  0.4258 -0.2703  0.0261
  562loPI   C3B 8991   9.574  12.179   8.667  0.0916  0.0396  0.1843
  562loPI   C4B 8992   9.581  12.069   8.259 -0.3693 -0.0648 -0.2200
  563loPI    C1 8993   8.153  15.003   9.762  0.1788  0.0689  0.1213
  563loPI    C2 8994   7.988  14.768  10.040 -0.3137 -0.0378 -0.2470
  563loPI    C3 8995   7.874  15.150  10.007 -0.0891  0.0383 -0.1583
  563loPI   PO4 8996   8.218  14.839   9.577 -0.0434 -0.0407  0.4847
  563loPI   GL1 8997   8.419  14.750   9.344  0.2067 -0.0577 -0.1586
  563loPI   GL2 8998   8.655  14.380   9.288 -0.2963  0.1470  0.1575
  563loPI   C1A 8999   8.855  14.820   9.187 -0.0695  0.2740 -0.3800
  563loPI   C2A 9000   8.981  14.573   8.914 -0.2096 -0.2398  0.3499
  563loPI   C3A 9001   9.057  14.429   8.569  0.0523  0.2305 -0.1511
  563loPI   C4A 9002   9.037  14.485   8.121 -0.1444 -0.0998  0.1258
  563loPI   C5A 9003   8.820  14.759   7.748 -0.1960  0.1169 -0.1911
  563loPI   C6A 9004   9.145  14.907   7.460  0.0574 -0.2860  0.0293
  563loPI   C1B 9005   8.454  14.328   8.998  0.0538  0.2109  0.1238
  563loPI   C2B 9006   8.639  14.100   8.706  0.0330 -0.2435 -0.2640
  563loPI   C3B 9007   8.604  14.270   8.275  0.1954 -0.0379  0.0594
  563loPI   C4B 9008   8.670  14.314   7.812 -0.1380 -0.0676  0.1645
  564loPI    C1 9009   2.981   2.254  10.934  0.0349  0.0115  0.0173
  564loPI    C2 9010   2.911   2.051  11.271 -0.1339  0.0366 -0.0015
  564loPI    C3 9011   3.121   1.882  10.975  0.0088  0.0119  0.1126
  564loPI   PO4 9012   2.877   2.361  10.745 -0.0585 -0.1886  0.1506
  564loPI   GL1 9013   3.005   2.467  10.319 -0.1407  0.2498 -0.1703
  564loPI   GL2 9014   2.745   2.731  10.185  0.2269  0.0317 -0.0875
  564loPI   C1A 9015   3.070   2.634   9.834 -0.3408 -0.1061  0.1102
  564loPI   C2A 9016   2.995   2.734   9.369  0.1981  0.2290 -0.1199
  564loPI   C3A 9017   3.059   2.780   8.904 -0.3668 -0.1616 -0.1231
  564loPI   C4A 9018   3.117   2.905   8.494 -0.4508 -0.1602  0.2556
  564loPI   C5A 9019   3.115   2.854   8.080 -0.1060 -0.0692  0.2482
  564loPI   C6A 9020   3.198   2.731   7.646  0.4002 -0.0422 -0.0583
  564loPI   C1B 9021   2.631   2.773   9.747 -0.1845  0.0874 -0.0095
  564loPI   C2B 9022   2.558   2.947   9.380  0.1553  0.0906  0.1075
  564loPI   C3B 9023   2.526   2.941   8.961  0.2402 -0.3747  0.0623
  564loPI   C4B 9024   2.593   3.025   8.474 -0.1379 -0.1152 -0.3279
  565loPI    C1 9025   2.828   4.403  10.482 -0.0900 -0.2959  0.0489
  565loPI    C2 9026   2.964   4.582  10.813 -0.1160  0.0987 -0.1476
  565loPI    C3 9027   3.152   4.259  10.668  0.0936  0.1225  0.0645
  565loPI   PO4 9028   2.849   4.528  10.269 -0.3674  0.2030 -0.2719
  565loPI   GL1 9029   3.003   4.615   9.877  0.2020 -0.0439 -0.2069
  565loPI   GL2 9030   2.930   4.782   9.679  0.2164  0.0649  0.1478
  565loPI   C1A 9031   2.647   4.338   9.704  0.0787  0.1377 -0.3884
  565loPI   C2A 9032   2.591   4.231   9.221  0.0679 -0.0732 -0.1448
  565loPI   C3A 9033   2.557   4.053   8.718 -0.2817 -0.0579  0.1286
  565loPI   C4A 9034   2.739   3.636   8.544  0.0560  0.2029  0.0808
  565loPI   C5A 9035   2.537   3.443   8.225 -0.0530 -0.2404 -0.1822
  565loPI   C6A 9036   2.784   3.181   7.871 -0.3124 -0.0901  0.1652
  565loPI   C1B 9037   2.948   5.043   9.407 -0.0192 -0.1082 -0.0947
  565loPI   C2B 9038   2.738   5.217   9.009  0.3438  0.0479  0.2261
  565loPI   C3B 9039   2.715   5.568   8.747  0.0852 -0.0866 -0.2276
  565loPI   C4B 9040   2.838   5.450   8.279 -0.0893  0.2836  0.0833
  566loPI    C1 9041  11.249   2.857   9.639 -0.0497 -0.1675  0.0750
  566loPI    C2 9042  11.299   2.474   9.743 -0.0262 -0.1365  0.1787
  566loPI    C3 9043  11.492   2.762   9.942 -0.2250 -0.0534  0.2531
  566loPI   PO4 9044  11.205   2.834   9.356 -0.0083  0.1695  0.1195
  566loPI   GL1 9045  11.022   2.668   8.992 -0.2424  0.3271  0.0437
  566loPI   GL2 9046  10.925   2.522   8.756  0.0105  0.0420  0.0673
  566loPI   C1A 9047  11.473   2.666   8.708  0.1879  0.0879 -0.2074
  566loPI   C2A 9048  11.877   2.436   8.740  0.2831  0.0793 -0.3631
  566loPI   C3A 9049  11.999   2.509   8.362 -0.1362  0.1291  0.1248
  566loPI   C4A 9050  12.221   2.436   7.964 -0.0653 -0.1325  0.0706
  566loPI   C5A 9051  12.056   2.348   7.592 -0.0960 -0.1405  0.4223
  566loPI   C6A 9052  12.005   2.395   7.192 -0.2947  0.1334 -0.0964
  566loPI   C1B 9053  10.603   2.675   8.460 -0.0247  0.2148 -0.4168
  566loPI   C2B 9054  10.699   2.914   8.135  0.1177  0.2194  0.0079
  566loPI   C3B 9055  10.975   2.977   7.903  0.0780  0.0068  0.1315
  566loPI   C4B 9056  11.204   2.900   7.506  0.0182  0.1722 -0.2174
  567loPI    C1 9057   0.613   9.500   9.065 -0.4487  0.0104  0.2340
  567loPI    C2 9058   0.898   9.381   9.319 -0.1902 -0.2398 -0.1600
  567loPI    C3 9059   0.784   9.765   9.310  0.2022 -0.1166 -0.0625
  567loPI   PO4 9060   0.309   9.331   9.040 -0.0892 -0.0086 -0.1027
  567loPI   GL1 9061   0.088   9.271   8.761 -0.0993 -0.0143  0.1826
  567loPI   GL2 9062   0.411   9.428   8.576 -0.5143  0.1850 -0.1471
  567loPI   C1A 9063   0.050   9.277   8.229 -0.1910 -0.0057 -0.0089
  567loPI   C2A 9064   0.057   9.508   7.767  0.2698  0.0672  0.1609
  567loPI   C3A 9065   0.196   9.569   7.357 -0.1388  0.1077  0.2395
  567loPI   C4A 9066   0.414   9.606   7.031  0.1409  0.4074 -0.4002
  567loPI   C5A 9067   0.670   9.302   6.727 -0.0550 -0.0600 -0.0437
  567loPI   C6A 9068   0.760   8.929   6.488  0.0730  0.1921 -0.1688
  567loPI   C1B 9069   0.501   9.301   8.186 -0.1989 -0.2894 -0.2932
  567loPI   C2B 9070   0.620   9.433   7.839  0.0673  0.2222 -0.1512
  567loPI   C3B 9071   0.808   9.526   7.529  0.0285 -0.1967  0.3124
  567loPI   C4B 9072   1.113   9.729   7.386  0.0008  0.1059  0.5220
  568loPI    C1 9073   0.221   9.799   9.696  0.0302  0.0307 -0.3114
  568loPI    C2 9074   0.482   9.505   9.621  0.1763  0.1264 -0.1854
  568loPI    C3 9075   0.446   9.650   9.991 -0.0220  0.1477 -0.2119
  568loPI   PO4 9076   0.213   9.896   9.385  0.0033 -0.0736  0.0441
  568loPI   GL1 9077   0.142   9.753   8.909 -0.3632 -0.3699  0.1229
  568loPI   GL2 9078   0.418   9.928   8.905  0.0261 -0.1300 -0.1106
  568loPI   C1A 9079  -0.041   9.674   8.533  0.0722 -0.1364  0.2126
  568loPI   C2A 9080  -0.097   9.914   8.097  0.2676 -0.0641 -0.0929
  568loPI   C3A 9081  -0.065  10.013   7.629 -0.3020 -0.2165 -0.0384
  568loPI   C4A 9082  -0.144  10.421   7.387  0.2274  0.0135 -0.1152
  568loPI   C5A 9083  -0.288  10.513   6.992  0.1315 -0.1193  0.0140
  568loPI   C6A 9084  -0.650  10.813   6.830  0.3651 -0.0918  0.0091
  568loPI   C1B 9085   0.717   9.875   8.752 -0.1120 -0.0836 -0.3373
  568loPI   C2B 9086   0.800   9.806   8.456  0.0324  0.1298  0.0366
  568loPI   C3B 9087   0.938   9.895   8.066  0.4194  0.1696 -0.3062
  568loPI   C4B 9088   1.030  10.118   7.680  0.1225  0.2586  0.2519
  569loPI    C1 9089  12.614  17.753  10.044  0.1978  0.1609 -0.0627
  569loPI    C2 9090  12.757  17.606  10.387 -0.2664  0.0459  0.0882
  569loPI    C3 9091  12.635  17.986  10.368 -0.1421  0.0828  0.0198
  569loPI   PO4 9092  12.490  17.451   9.806 -0.2344 -0.0655 -0.2988
  569loPI   GL1 9093  12.549  17.502   9.308  0.3473 -0.1874  0.2509
  569loPI   GL2 9094  12.488  17.228   9.295 -0.2862  0.1207 -0.1043
  569loPI   C1A 9095  12.537  17.455   8.780 -0.4214 -0.1595  0.1243
  569loPI   C2A 9096  12.297  17.186   8.456 -0.3658  0.0895  0.1944
  569loPI   C3A 9097  12.324  17.043   8.017  0.3649  0.3787 -0.1074
  569loPI   C4A 9098  12.553  17.268   7.616 -0.1418  0.2604 -0.2589
  569loPI   C5A 9099  12.787  17.244   7.303 -0.0891  0.0529  0.2408
  569loPI   C6A 9100  13.015  17.515   7.347  0.0830  0.0756  0.1999
  569loPI   C1B 9101  12.877  17.167   9.032  0.0229 -0.2926 -0.1758
  569loPI   C2B 9102  12.855  17.063   8.649  0.2477 -0.1276  0.2169
  569loPI   C3B 9103  12.786  17.232   8.290  0.0568 -0.2500  0.1010
  569loPI   C4B 9104  12.861  17.493   7.902  0.0448 -0.0953  0.0491
  570loPI    C1 9105  12.716   9.442  10.362 -0.2395 -0.0185  0.1270
  570loPI    C2 9106  13.068   9.627  10.401 -0.2188 -0.0274 -0.0105
  570loPI    C3 9107  13.007   9.274  10.578 -0.3041  0.1698  0.3642
  570loPI   PO4 9108  12.740   9.546   9.999 -0.0164  0.0191 -0.0003
  570loPI   GL1 9109  12.457   9.494   9.635 -0.2761  0.0660  0.0221
  570loPI   GL2 9110  12.698   9.772   9.546 -0.0661 -0.1906 -0.1294
  570loPI   C1A 9111  12.386   9.365   9.158 -0.1509 -0.2629 -0.0720
  570loPI   C2A 9112  12.650   9.414   8.882 -0.0268  0.1718  0.0719
  570loPI   C3A 9113  12.818   9.489   8.459  0.2665 -0.0692 -0.1764
  570loPI   C4A 9114  12.835   9.549   8.032 -0.3026  0.3765  0.0889
  570loPI   C5A 9115  12.745   9.368   7.682 -0.0451 -0.2916 -0.0187
  570loPI   C6A 9116  12.736   9.423   7.309 -0.1169  0.1863  0.0642
  570loPI   C1B 9117  12.846   9.809   9.110 -0.0760  0.3459 -0.0735
  570loPI   C2B 9118  13.023   9.818   8.773 -0.1277 -0.0439  0.1164
  570loPI   C3B 9119  13.062   9.882   8.309 -0.1618 -0.2407 -0.0621
  570loPI   C4B 9120  12.912  10.026   7.882  0.0622 -0.0379  0.2316
  571loPI    C1 9121  12.252   1.620   9.404  0.0718  0.0999 -0.0499
  571loPI    C2 9122  12.647   1.584   9.354  0.0890  0.2886 -0.0544
  571loPI    C3 9123  12.427   1.262   9.441  0.2121  0.1438 -0.2710
  571loPI   PO4 9124  12.182   1.816   9.190  0.2249  0.1055 -0.0415
  571loPI   GL1 9125  11.795   1.927   8.883  0.0779 -0.2695 -0.0840
  571loPI   GL2 9126  11.496   1.827   8.897 -0.1104 -0.0673 -0.1353
  571loPI   C1A 9127  11.530   2.143   8.509 -0.2396  0.0611  0.3118
  571loPI   C2A 9128  11.346   1.941   8.101 -0.0506  0.2769  0.2269
  571loPI   C3A 9129  11.075   1.956   7.667 -0.1338 -0.4265 -0.0723
  571loPI   C4A 9130  10.633   2.105   7.663  0.1653  0.2569 -0.2452
  571loPI   C5A 9131  10.194   1.867   7.557 -0.1542  0.3953 -0.1125
  571loPI   C6A 9132   9.769   1.739   7.520 -0.1784  0.0749  0.0790
  571loPI   C1B 9133  11.593   1.606   8.585  0.0446 -0.0192 -0.2509
  571loPI   C2B 9134  11.628   1.359   8.231 -0.0194  0.0440 -0.3468
  571loPI   C3B 9135  11.789   0.963   8.125  0.0675  0.2326  0.1323
  571loPI   C4B 9136  12.051   0.836   7.764 -0.3025 -0.2334  0.1759
  572loPI    C1 9137  11.542   8.831  10.358  0.0260 -0.0320 -0.0567
  572loPI    C2 9138  11.572   9.180  10.552 -0.0746 -0.0236 -0.0556
  572loPI    C3 9139  11.734   8.849  10.709 -0.0212  0.0131 -0.0331
  572loPI   PO4 9140  11.254   8.791  10.254 -0.1535 -0.0097 -0.2873
  572loPI   GL1 9141  11.102   8.782   9.821  0.0758 -0.1233  0.2911
  572loPI   GL2 9142  11.377   9.037   9.761  0.1911  0.0098  0.2278
  572loPI   C1A 9143  11.198   8.524   9.405  0.3031 -0.0175 -0.0231
  572loPI   C2A 9144  11.370   8.724   9.083  0.0650  0.1414 -0.0398
  572loPI   C3A 9145  11.215   8.853   8.639 -0.1293 -0.0067  0.0789
  572loPI   C4A 9146  11.056   8.754   8.353 -0.3944  0.0819  0.1536
  572loPI   C5A 9147  10.968   8.659   7.924 -0.1986 -0.0169  0.1030
  572loPI   C6A 9148  11.125   8.962   7.578  0.2005  0.2126  0.1136
  572loPI   C1B 9149  11.030   8.991   9.410  0.0787 -0.1009  0.2102
  572loPI   C2B 9150  10.943   9.186   9.004 -0.0335  0.1402 -0.0695
  572loPI   C3B 9151  10.725   9.338   8.605  0.1939  0.0553  0.0741
  572loPI   C4B 9152  10.875   9.336   8.114 -0.0187 -0.1114 -0.0092
  573loPI    C1 9153   3.896  14.705   9.914  0.2106 -0.3955 -0.0137
  573loPI    C2 9154   3.568  14.567  10.097  0.2001 -0.2899  0.0483
  573loPI    C3 9155   3.901  14.635  10.308  0.1041  0.0983  0.0826
  573loPI   PO4 9156   3.832  14.918   9.849 -0.3238  0.2629 -0.0622
  573loPI   GL1 9157   3.857  14.977   9.392 -0.0298  0.0095  0.2114
  573loPI   GL2 9158   4.066  15.197   9.264 -0.0797 -0.0978 -0.1038
  573loPI   C1A 9159   3.653  14.947   9.088  0.1537  0.1549  0.2831
  573loPI   C2A 9160   3.287  14.705   8.861  0.1625  0.0156 -0.0304
  573loPI   C3A 9161   3.327  14.608   8.472  0.0374  0.2006 -0.1037
  573loPI   C4A 9162   3.369  14.682   8.073  0.1653 -0.1442  0.0117
  573loPI   C5A 9163   3.624  14.759   7.799  0.1730  0.0323  0.0660
  573loPI   C6A 9164   4.120  14.756   7.690  0.0444  0.0915  0.0822
  573loPI   C1B 9165   3.998  15.261   8.814 -0.4056  0.2844  0.4005
  573loPI   C2B 9166   4.084  15.331   8.509 -0.6431 -0.0133  0.4334
  573loPI   C3B 9167   4.145  15.099   8.124  0.0448 -0.0957 -0.2000
  573loPI   C4B 9168   3.901  15.274   7.738  0.0571  0.0882 -0.0287
  574loPI    C1 9169   2.310   9.049   9.488 -0.0891 -0.0263  0.0285
  574loPI    C2 9170   2.039   9.125   9.773 -0.1439  0.2480 -0.0935
  574loPI    C3 9171   2.238   8.778   9.773 -0.0203  0.3121  0.3766
  574loPI   PO4 9172   2.213   9.034   9.295 -0.1062 -0.7013 -0.0114
  574loPI   GL1 9173   2.290   8.990   8.898 -0.1340  0.1513  0.1902
  574loPI   GL2 9174   2.205   8.691   8.743 -0.1064  0.1266  0.1867
  574loPI   C1A 9175   2.371   9.052   8.437 -0.0043 -0.0490 -0.2875
  574loPI   C2A 9176   2.447   9.081   8.071 -0.2034 -0.1907  0.0262
  574loPI   C3A 9177   2.276   9.174   7.711  0.3249 -0.3523 -0.0717
  574loPI   C4A 9178   2.113   9.141   7.218 -0.1389  0.1898  0.2449
  574loPI   C5A 9179   1.992   8.766   7.000  0.0276 -0.1924 -0.1396
  574loPI   C6A 9180   1.809   8.722   6.533 -0.4718  0.1534 -0.0655
  574loPI   C1B 9181   2.123   8.562   8.304  0.0133  0.0353  0.1579
  574loPI   C2B 9182   2.238   8.468   7.873 -0.0419 -0.0477 -0.0726
  574loPI   C3B 9183   2.507   8.653   7.579 -0.2082 -0.0306 -0.0491
  574loPI   C4B 9184   2.746   8.714   7.212  0.1010 -0.0144  0.0523
  575loPI    C1 9185  18.671   9.742   9.919 -0.1822  0.1151 -0.0555
  575loPI    C2 9186  18.566  10.022   9.653 -0.1530  0.1789 -0.0004
  575loPI    C3 9187  18.320   9.930   9.954 -0.1668  0.1384 -0.0239
  575loPI   PO4 9188  18.803   9.584   9.729 -0.2924 -0.0796 -0.2095
  575loPI   GL1 9189  18.866   9.814   9.288 -0.1739 -0.2837 -0.0994
  575loPI   GL2 9190  18.874   9.537   9.072 -0.1463  0.3837 -0.0976
  575loPI   C1A 9191  18.754   9.912   8.807  0.1118  0.0632 -0.0254
  575loPI   C2A 9192  18.254  10.017   8.733 -0.1437 -0.1797  0.0706
  575loPI   C3A 9193  18.114  10.175   8.344  0.0275 -0.2252 -0.0378
  575loPI   C4A 9194  18.088  10.119   7.900 -0.0207  0.1263  0.0168
  575loPI   C5A 9195  18.069  10.366   7.542  0.0767 -0.1923  0.0444
  575loPI   C6A 9196  18.410  10.405   7.196 -0.0914  0.0781 -0.0162
  575loPI   C1B 9197  18.791   9.205   8.742 -0.0150 -0.0068 -0.0074
  575loPI   C2B 9198  18.625   9.286   8.340  0.0714  0.3103 -0.1155
  575loPI   C3B 9199  18.289   9.169   8.151 -0.1356 -0.1278 -0.3771
  575loPI   C4B 9200  18.220   9.209   7.678 -0.1280  0.0103 -0.0510
  576loPI    C1 9201   3.351   4.531  10.255 -0.0802 -0.0271 -0.0181
  576loPI    C2 9202   3.526   4.614  10.605 -0.1633 -0.3520  0.1047
  576loPI    C3 9203   3.207   4.825  10.485 -0.1340 -0.2386  0.2233
  576loPI   PO4 9204   3.500   4.394  10.081 -0.2346  0.0009 -0.1141
  576loPI   GL1 9205   3.665   4.509   9.780 -0.0078  0.2796  0.1898
  576loPI   GL2 9206   3.472   4.739   9.716  0.0748 -0.2939  0.0280
  576loPI   C1A 9207   3.810   4.523   9.359  0.1560  0.0568  0.1819
  576loPI   C2A 9208   3.622   4.408   8.882 -0.2146 -0.2585  0.2322
  576loPI   C3A 9209   3.400   4.197   8.635  0.0213 -0.0989 -0.1285
  576loPI   C4A 9210   3.019   4.075   8.414 -0.0289  0.0222 -0.2562
  576loPI   C5A 9211   2.615   4.245   8.244  0.0922 -0.0358 -0.2843
  576loPI   C6A 9212   2.270   4.324   7.980  0.3086  0.1817 -0.1240
  576loPI   C1B 9213   3.293   4.558   9.388  0.0794 -0.2470 -0.3368
  576loPI   C2B 9214   3.075   4.317   9.075  0.0177  0.0468 -0.0109
  576loPI   C3B 9215   2.865   4.469   8.692 -0.3962  0.1708  0.1238
  576loPI   C4B 9216   3.006   4.541   8.353 -0.0255 -0.0975  0.1568
  577loPI    C1 9217  17.603  11.589  10.320 -0.0493 -0.0721 -0.0672
  577loPI    C2 9218  17.904  11.780  10.501 -0.1380  0.0365 -0.0337
  577loPI    C3 9219  17.632  11.583  10.718  0.0263 -0.2395 -0.0746
  577loPI   PO4 9220  17.738  11.424  10.143 -0.0966  0.1200 -0.2030
  577loPI   GL1 9221  17.619  11.273   9.714 -0.0472  0.0071 -0.2347
  577loPI   GL2 9222  17.408  11.047   9.550 -0.2440 -0.0685  0.5027
  577loPI   C1A 9223  17.680  11.343   9.230 -0.6364  0.1720 -0.3665
  577loPI   C2A 9224  17.549  11.344   8.847 -0.1251  0.1369  0.1351
  577loPI   C3A 9225  17.610  11.543   8.437  0.2026  0.2157 -0.0837
  577loPI   C4A 9226  17.740  11.725   8.077 -0.0417  0.1765 -0.0654
  577loPI   C5A 9227  17.667  11.585   7.668  0.0662  0.1958 -0.0938
  577loPI   C6A 9228  17.639  11.805   7.245  0.2722  0.3717  0.0915
  577loPI   C1B 9229  17.377  10.937   9.074 -0.0491 -0.0907  0.2861
  577loPI   C2B 9230  17.352  10.931   8.611 -0.3551 -0.2618 -0.1803
  577loPI   C3B 9231  17.485  10.956   8.160  0.1505  0.2987  0.1841
  577loPI   C4B 9232  17.582  11.077   7.704  0.1558  0.1546 -0.1231
  578loPI    C1 9233   7.272   1.303   9.795  0.2836 -0.1199  0.0716
  578loPI    C2 9234   7.277   1.579  10.084 -0.0509  0.0164 -0.0478
  578loPI    C3 9235   6.976   1.317  10.063 -0.1931  0.2034 -0.4487
  578loPI   PO4 9236   7.540   1.174   9.774  0.0005 -0.0532  0.1323
  578loPI   GL1 9237   7.744   1.070   9.374  0.1428 -0.3143  0.0464
  578loPI   GL2 9238   7.877   0.748   9.137  0.1097 -0.0310  0.1339
  578loPI   C1A 9239   8.071   1.176   9.067 -0.1841  0.1916  0.4530
  578loPI   C2A 9240   7.982   1.133   8.721 -0.2706 -0.0127  0.0156
  578loPI   C3A 9241   7.929   1.064   8.213  0.1904  0.2080 -0.0786
  578loPI   C4A 9242   8.180   1.022   7.774  0.2992  0.1958 -0.1358
  578loPI   C5A 9243   8.078   0.743   7.491 -0.1556 -0.0236  0.4609
  578loPI   C6A 9244   7.942   0.394   7.376 -0.2799  0.0885  0.3405
  578loPI   C1B 9245   7.521   0.807   8.935  0.2584 -0.1592 -0.0034
  578loPI   C2B 9246   7.550   0.915   8.541 -0.1078 -0.1086 -0.1198
  578loPI   C3B 9247   7.420   0.990   8.120 -0.1356  0.2067 -0.2906
  578loPI   C4B 9248   7.179   0.697   7.865 -0.1387  0.0286 -0.1358
  579loPI    C1 9249  10.943  11.792  10.048 -0.0083  0.0741 -0.0999
  579loPI    C2 9250  10.586  11.965  10.094 -0.0378 -0.0102 -0.0068
  579loPI    C3 9251  10.782  11.824  10.413  0.1343  0.1448 -0.0425
  579loPI   PO4 9252  10.870  11.639   9.812  0.0414 -0.1114 -0.0558
  579loPI   GL1 9253  10.956  11.490   9.443 -0.4226  0.0977  0.3207
  579loPI   GL2 9254  11.194  11.399   9.487 -0.1708  0.1017 -0.0746
  579loPI   C1A 9255  10.778  11.810   9.139 -0.0130  0.0996  0.3338
  579loPI   C2A 9256  10.895  12.084   8.870  0.1231 -0.1543  0.2140
  579loPI   C3A 9257  11.002  12.215   8.442 -0.1430 -0.2590 -0.0448
  579loPI   C4A 9258  11.249  12.417   8.151 -0.1240  0.1033 -0.0902
  579loPI   C5A 9259  11.308  12.335   7.730  0.0355 -0.2172  0.2469
  579loPI   C6A 9260  11.536  12.330   7.342  0.0021  0.2251  0.1949
  579loPI   C1B 9261  11.224  11.590   9.045  0.2037 -0.0825  0.0045
  579loPI   C2B 9262  11.345  11.842   8.659  0.0840 -0.0256 -0.3804
  579loPI   C3B 9263  11.354  11.832   8.277 -0.1624 -0.0680 -0.2026
  579loPI   C4B 9264  11.485  11.523   7.966 -0.0636 -0.1044 -0.2544
  580loPI    C1 9265  10.763   6.611  10.307  0.0569  0.0218  0.2787
  580loPI    C2 9266  10.673   6.916  10.065 -0.0787 -0.2336  0.0007
  580loPI    C3 9267  10.556   6.923  10.448  0.0059  0.1054  0.0234
  580loPI   PO4 9268  10.744   6.391  10.115  0.0332 -0.1445  0.1919
  580loPI   GL1 9269  10.641   6.421   9.793  0.1430 -0.1310  0.3147
  580loPI   GL2 9270  10.555   6.244   9.479  0.2745 -0.0462 -0.1812
  580loPI   C1A 9271  10.744   6.668   9.420  0.1001 -0.3546 -0.0512
  580loPI   C2A 9272  10.927   6.593   9.021  0.2327 -0.0714  0.0191
  580loPI   C3A 9273  11.040   6.854   8.741 -0.0096  0.0134 -0.0392
  580loPI   C4A 9274  11.029   6.941   8.354  0.0545  0.1436  0.1351
  580loPI   C5A 9275  11.184   6.817   7.942  0.0769  0.0066 -0.0602
  580loPI   C6A 9276  11.137   6.726   7.415  0.0851 -0.0116 -0.1858
  580loPI   C1B 9277  10.652   6.122   9.132  0.2179 -0.1749 -0.1161
  580loPI   C2B 9278  10.809   6.193   8.748 -0.1189 -0.2104  0.2101
  580loPI   C3B 9279  10.913   6.453   8.418  0.1549  0.0098  0.0462
  580loPI   C4B 9280  11.236   6.454   8.287  0.0082  0.0198  0.0292
  581loPI    C1 9281   4.631  16.880  10.163  0.0008  0.1028  0.1045
  581loPI    C2 9282   4.724  16.533   9.986  0.1873  0.2020  0.0052
  581loPI    C3 9283   4.545  16.534  10.344  0.3695  0.0036  0.0994
  581loPI   PO4 9284   4.840  17.043  10.053 -0.0490 -0.0752 -0.1038
  581loPI   GL1 9285   5.057  16.971   9.829 -0.2572  0.1973 -0.0342
  581loPI   GL2 9286   5.159  16.619   9.820  0.0415  0.3596 -0.1265
  581loPI   C1A 9287   4.997  17.085   9.364 -0.2583  0.3469  0.1710
  581loPI   C2A 9288   5.075  17.185   8.967 -0.1141 -0.1743  0.1601
  581loPI   C3A 9289   5.055  17.208   8.446  0.0128 -0.3699 -0.0687
  581loPI   C4A 9290   5.289  17.324   8.061  0.2071  0.0944  0.0112
  581loPI   C5A 9291   5.468  17.062   7.758  0.0500  0.0832  0.0329
  581loPI   C6A 9292   5.604  17.155   7.315 -0.2773  0.5001 -0.1697
  581loPI   C1B 9293   4.925  16.589   9.439  0.0054  0.2280  0.2864
  581loPI   C2B 9294   4.948  16.665   8.982  0.1048  0.4069 -0.0126
  581loPI   C3B 9295   5.020  16.711   8.547 -0.2252  0.2475 -0.2194
  581loPI   C4B 9296   5.182  16.710   8.069  0.0781 -0.4267  0.0618
  582loPI    C1 9297   4.196  17.029  10.473  0.1487 -0.2072 -0.0913
  582loPI    C2 9298   3.840  17.165  10.592  0.2295  0.1518 -0.2461
  582loPI    C3 9299   4.123  17.083  10.862  0.0171 -0.1849 -0.1183
  582loPI   PO4 9300   4.102  16.909  10.191 -0.4604  0.2401  0.2219
  582loPI   GL1 9301   4.177  16.906   9.767 -0.4239 -0.4360 -0.0331
  582loPI   GL2 9302   4.579  16.886   9.672 -0.0789 -0.0125  0.1063
  582loPI   C1A 9303   4.061  16.761   9.353  0.2551  0.1877 -0.3089
  582loPI   C2A 9304   4.079  16.879   8.879 -0.0734  0.1504 -0.0210
  582loPI   C3A 9305   4.082  16.854   8.494  0.0876  0.2196  0.0651
  582loPI   C4A 9306   4.225  17.008   8.102  0.3198 -0.0313 -0.3824
  582loPI   C5A 9307   4.460  17.063   7.733  0.0415  0.1052 -0.1223
  582loPI   C6A 9308   4.517  17.204   7.371 -0.1205 -0.1434  0.0370
  582loPI   C1B 9309   4.509  17.010   9.263  0.3017  0.0179 -0.0294
  582loPI   C2B 9310   4.618  17.059   8.821 -0.2729  0.1373 -0.1707
  582loPI   C3B 9311   4.528  17.210   8.428  0.0270  0.1989  0.0076
  582loPI   C4B 9312   4.730  17.393   8.070 -0.2205 -0.2505 -0.2625
  583loPI    C1 9313   4.969  14.513   9.637  0.2426 -0.3248  0.0240
  583loPI    C2 9314   5.214  14.670   9.362 -0.1160  0.3109  0.0476
  583loPI    C3 9315   5.284  14.732   9.751  0.0185 -0.0257  0.0808
  583loPI   PO4 9316   4.718  14.654   9.599 -0.2198  0.1076  0.0202
  583loPI   GL1 9317   4.743  14.869   9.324 -0.2695 -0.0309 -0.0373
  583loPI   GL2 9318   4.561  15.120   9.362 -0.4263  0.2250 -0.0092
  583loPI   C1A 9319   4.965  14.787   8.884  0.1745 -0.2347 -0.3185
  583loPI   C2A 9320   5.096  14.773   8.467  0.1838 -0.0949  0.0971
  583loPI   C3A 9321   5.136  14.838   8.132  0.0158 -0.2650  0.2009
  583loPI   C4A 9322   4.774  14.809   7.899 -0.1673 -0.1677  0.0455
  583loPI   C5A 9323   4.706  14.785   7.535  0.2336  0.0481  0.1462
  583loPI   C6A 9324   4.790  15.030   7.239 -0.0727 -0.2770  0.2735
  583loPI   C1B 9325   4.588  15.211   8.950 -0.0019 -0.1422 -0.1341
  583loPI   C2B 9326   4.541  15.485   8.600 -0.0298  0.3719  0.1765
  583loPI   C3B 9327   4.411  15.572   8.153 -0.0274 -0.1283 -0.0892
  583loPI   C4B 9328   4.179  15.648   7.700  0.0692  0.0063  0.0081
  584loPI    C1 9329  12.302   3.350   9.775  0.4339 -0.0546  0.2522
  584loPI    C2 9330  12.541   3.033   9.825  0.0983 -0.3200  0.2073
  584loPI    C3 9331  12.346   3.188  10.138  0.1569 -0.2407  0.2050
  584loPI   PO4 9332  12.174   3.338   9.460  0.1575  0.0574 -0.1890
  584loPI   GL1 9333  12.019   3.447   9.007  0.1464 -0.0450 -0.0942
  584loPI   GL2 9334  12.284   3.587   8.978 -0.2658  0.5795  0.0541
  584loPI   C1A 9335  11.937   3.466   8.625  0.0073 -0.1221  0.0841
  584loPI   C2A 9336  11.627   3.515   8.301 -0.1109 -0.0017  0.0460
  584loPI   C3A 9337  11.524   3.759   7.987 -0.0639 -0.0162  0.3081
  584loPI   C4A 9338  11.435   3.888   7.523  0.1891  0.0229 -0.1850
  584loPI   C5A 9339  11.328   3.851   7.150 -0.1776  0.1085  0.1748
  584loPI   C6A 9340  10.978   4.050   7.170  0.0174 -0.1695 -0.0631
  584loPI   C1B 9341  12.519   4.021   8.922  0.2397 -0.0075  0.5337
  584loPI   C2B 9342  12.534   4.437   8.935 -0.2385  0.3862 -0.1851
  584loPI   C3B 9343  12.797   4.582   8.641 -0.3339 -0.2282 -0.1143
  584loPI   C4B 9344  12.942   4.599   8.245  0.5315  0.1965  0.0831
  585loPI    C1 9345  15.896  18.881   9.840 -0.0796 -0.0415 -0.0528
  585loPI    C2 9346  15.504  18.860   9.761 -0.0913  0.0013 -0.0068
  585loPI    C3 9347  15.640  19.119  10.034 -0.0132  0.1016 -0.1398
  585loPI   PO4 9348  15.972  18.718   9.571 -0.3432 -0.0624 -0.3291
  585loPI   GL1 9349  15.866  18.646   9.145  0.0742 -0.2145  0.0353
  585loPI   GL2 9350  15.741  18.348   9.110  0.0204  0.2357 -0.0793
  585loPI   C1A 9351  16.262  18.868   9.035  0.1574 -0.1627  0.2470
  585loPI   C2A 9352  16.420  19.132   8.687 -0.4172  0.0219 -0.0407
  585loPI   C3A 9353  16.746  19.156   8.283  0.0478 -0.3178 -0.2307
  585loPI   C4A 9354  16.962  18.903   7.919  0.0764  0.1826 -0.4240
  585loPI   C5A 9355  16.892  19.017   7.541 -0.0321  0.1115  0.2839
  585loPI   C6A 9356  17.021  19.157   7.100 -0.1252 -0.0610  0.3727
  585loPI   C1B 9357  15.745  18.369   8.681 -0.0075  0.1228 -0.0761
  585loPI   C2B 9358  15.382  18.387   8.339  0.1998  0.0506  0.3169
  585loPI   C3B 9359  15.347  18.187   7.851 -0.0328  0.1240  0.1355
  585loPI   C4B 9360  15.355  17.855   7.470  0.1276 -0.1995  0.2606
  586loPI    C1 9361  10.735  18.235   9.988 -0.0442  0.3209 -0.0611
  586loPI    C2 9362  10.733  18.074  10.354  0.1925  0.0418 -0.1785
  586loPI    C3 9363  10.797  18.466  10.309  0.1523  0.0800  0.0782
  586loPI   PO4 9364  10.957  18.040   9.789 -0.1092  0.0565 -0.0788
  586loPI   GL1 9365  10.688  18.106   9.437 -0.2627 -0.0547 -0.1129
  586loPI   GL2 9366  10.443  18.281   9.482  0.0560 -0.4093 -0.0889
  586loPI   C1A 9367  10.911  18.446   9.239  0.0918  0.1727 -0.3722
  586loPI   C2A 9368  10.875  18.672   8.831  0.1284 -0.3210 -0.0083
  586loPI   C3A 9369  11.028  18.892   8.533  0.1627 -0.0374  0.1024
  586loPI   C4A 9370  10.713  19.046   8.220 -0.2031  0.0416 -0.0104
  586loPI   C5A 9371  10.596  19.204   7.899 -0.0736 -0.0533 -0.1568
  586loPI   C6A 9372  10.631  18.918   7.588  0.2402  0.1940  0.0856
  586loPI   C1B 9373  10.172  18.194   9.096 -0.1275  0.1493  0.0963
  586loPI   C2B 9374   9.969  17.940   8.892 -0.3410 -0.1474  0.0196
  586loPI   C3B 9375   9.777  17.921   8.587 -0.0264 -0.1934  0.2298
  586loPI   C4B 9376   9.559  17.676   8.257  0.0629  0.0316  0.0978
  587loPI    C1 9377  11.205   4.346   9.643 -0.2660  0.1531 -0.3315
  587loPI    C2 9378  11.069   4.540   9.965 -0.0183 -0.3127  0.0679
  587loPI    C3 9379  11.109   4.143   9.974  0.3385 -0.2960 -0.4157
  587loPI   PO4 9380  11.080   4.439   9.447 -0.3859 -0.2765 -0.2243
  587loPI   GL1 9381  11.237   4.762   9.201  0.2169  0.0876  0.1060
  587loPI   GL2 9382  11.455   4.778   9.300 -0.0997 -0.0571 -0.0279
  587loPI   C1A 9383  11.272   4.868   8.699 -0.2254 -0.0801 -0.2335
  587loPI   C2A 9384  11.265   5.121   8.303  0.0140 -0.2577 -0.2643
  587loPI   C3A 9385  11.242   5.391   7.902  0.0068 -0.0687  0.1209
  587loPI   C4A 9386  11.169   5.827   7.758 -0.2324 -0.2614 -0.2723
  587loPI   C5A 9387  11.166   6.285   7.759  0.1436  0.4730  0.1009
  587loPI   C6A 9388  11.569   6.528   7.693 -0.4028  0.1495  0.2725
  587loPI   C1B 9389  11.687   4.928   8.933 -0.0072 -0.0108 -0.2261
  587loPI   C2B 9390  11.791   5.079   8.575  0.2772  0.0994  0.2406
  587loPI   C3B 9391  11.685   5.263   8.103 -0.0189 -0.1427 -0.1094
  587loPI   C4B 9392  11.712   5.472   7.718 -0.0248  0.4506  0.0770
  588loPI    C1 9393   0.040   8.313  10.109  0.1226  0.0355  0.0328
  588loPI    C2 9394   0.260   8.506   9.837  0.0388  0.1285  0.0304
  588loPI    C3 9395   0.093   8.708  10.139 -0.1245  0.0747 -0.0229
  588loPI   PO4 9396  -0.107   8.157   9.907 -0.2606  0.3332 -0.1143
  588loPI   GL1 9397  -0.020   8.207   9.423 -0.1015 -0.0710 -0.2415
  588loPI   GL2 9398   0.264   8.412   9.305  0.3277  0.2494  0.1898
  588loPI   C1A 9399  -0.068   8.129   8.961 -0.2573  0.1345 -0.3112
  588loPI   C2A 9400  -0.063   8.216   8.620  0.0010 -0.0032  0.3179
  588loPI   C3A 9401  -0.333   8.366   8.238 -0.1774  0.1268 -0.3065
  588loPI   C4A 9402  -0.336   8.403   7.841  0.0581  0.3036 -0.0378
  588loPI   C5A 9403  -0.106   8.594   7.520 -0.0910 -0.1783  0.4480
  588loPI   C6A 9404  -0.038   9.108   7.394  0.4413  0.0496  0.1080
  588loPI   C1B 9405   0.351   8.389   8.802  0.2156  0.1975  0.3226
  588loPI   C2B 9406   0.343   8.363   8.389  0.0149 -0.0573  0.0056
  588loPI   C3B 9407   0.199   8.418   7.992 -0.3182  0.2422 -0.1021
  588loPI   C4B 9408   0.303   8.085   7.667  0.1074 -0.1274  0.2260
  589loPI    C1 9409  10.882  15.342   9.921 -0.0509 -0.1213 -0.2934
  589loPI    C2 9410  10.832  15.447  10.304  0.1429 -0.0543 -0.2849
  589loPI    C3 9411  11.020  15.106  10.213  0.1492 -0.0411 -0.3212
  589loPI   PO4 9412  10.895  15.651   9.841 -0.0473 -0.0430 -0.0542
  589loPI   GL1 9413  11.013  15.847   9.479  0.0101  0.2504  0.1003
  589loPI   GL2 9414  11.118  15.504   9.402 -0.1099 -0.2934  0.0399
  589loPI   C1A 9415  10.732  15.962   8.995 -0.0413  0.2027  0.1442
  589loPI   C2A 9416  10.682  15.975   8.589 -0.1327  0.0064 -0.2174
  589loPI   C3A 9417  10.617  16.093   8.166 -0.1062 -0.0579 -0.0134
  589loPI   C4A 9418  10.357  16.041   7.813 -0.0120 -0.2981  0.0172
  589loPI   C5A 9419  10.417  16.198   7.457  0.2659 -0.0627  0.1898
  589loPI   C6A 9420  10.404  16.282   7.061  0.1732  0.1397 -0.1152
  589loPI   C1B 9421  11.080  15.562   8.992 -0.0309 -0.0754  0.1840
  589loPI   C2B 9422  11.287  15.577   8.688 -0.1484  0.3258  0.3093
  589loPI   C3B 9423  11.070  15.610   8.294  0.3183 -0.2040 -0.2049
  589loPI   C4B 9424  11.110  15.677   7.861 -0.0199 -0.1959  0.2324
  590loPI    C1 9425   0.383   7.138   9.670  0.0140 -0.0699 -0.0074
  590loPI    C2 9426   0.703   7.162   9.909  0.0232  0.0082 -0.0275
  590loPI    C3 9427   0.447   6.857   9.947  0.2255 -0.1827 -0.1682
  590loPI   PO4 9428   0.437   7.324   9.480 -0.2003 -0.2589 -0.2485
  590loPI   GL1 9429   0.566   7.349   9.085 -0.0988 -0.0338 -0.1240
  590loPI   GL2 9430   0.752   7.605   9.042 -0.3726  0.0051 -0.0399
  590loPI   C1A 9431   0.309   7.380   8.764 -0.0965 -0.1400  0.0662
  590loPI   C2A 9432   0.331   7.579   8.252  0.2729  0.3293  0.0775
  590loPI   C3A 9433   0.210   7.612   7.905  0.0661 -0.0184  0.1180
  590loPI   C4A 9434   0.116   7.561   7.495 -0.0194 -0.1323 -0.1210
  590loPI   C5A 9435   0.061   7.837   7.139 -0.0013 -0.0296  0.0569
  590loPI   C6A 9436   0.031   7.716   6.754  0.0297 -0.0630 -0.1014
  590loPI   C1B 9437   0.802   7.438   8.615 -0.0998 -0.4005 -0.5052
  590loPI   C2B 9438   0.804   7.559   8.165 -0.1720  0.1212 -0.0480
  590loPI   C3B 9439   0.643   7.487   7.755  0.1160 -0.0334 -0.0060
  590loPI   C4B 9440   0.638   7.779   7.421 -0.1986 -0.0215 -0.0693
  591loPI    C1 9441   0.797  13.790  10.329  0.1428  0.3129  0.0112
  591loPI    C2 9442   0.965  13.479  10.516  0.1186  0.1642 -0.2096
  591loPI    C3 9443   1.106  13.849  10.576  0.0682  0.1288  0.1500
  591loPI   PO4 9444   0.758  13.650  10.041  0.0583  0.0184 -0.1058
  591loPI   GL1 9445   0.807  13.871   9.598  0.0859 -0.0817  0.1042
  591loPI   GL2 9446   0.488  13.974   9.469  0.3114  0.1056 -0.1311
  591loPI   C1A 9447   0.939  13.804   9.182 -0.1971 -0.0166  0.2661
  591loPI   C2A 9448   1.158  14.015   8.908  0.2102 -0.1351  0.0467
  591loPI   C3A 9449   1.236  14.176   8.469  0.2810 -0.0962 -0.2155
  591loPI   C4A 9450   1.311  14.423   8.003  0.3811  0.2850  0.1354
  591loPI   C5A 9451   1.409  14.672   7.700  0.1548  0.1879 -0.0624
  591loPI   C6A 9452   1.210  14.868   7.349  0.1392 -0.2194  0.1880
  591loPI   C1B 9453   0.169  14.026   9.094 -0.0126 -0.1358  0.0408
  591loPI   C2B 9454   0.321  14.033   8.675  0.1811 -0.2892  0.0327
  591loPI   C3B 9455   0.318  13.996   8.287  0.0444  0.2229 -0.1209
  591loPI   C4B 9456   0.259  13.647   8.158  0.2326  0.2726  0.2498
  592loPI    C1 9457  15.975   4.991   9.801  0.2177  0.1114 -0.0677
  592loPI    C2 9458  15.922   5.314  10.030 -0.0239  0.1540 -0.1807
  592loPI    C3 9459  15.930   4.951  10.196  0.0835  0.2047 -0.0730
  592loPI   PO4 9460  16.175   5.096   9.565 -0.1619  0.0797 -0.1321
  592loPI   GL1 9461  16.243   5.180   9.093  0.1851  0.2646  0.0176
  592loPI   GL2 9462  16.293   4.795   9.117  0.0847 -0.1056 -0.1924
  592loPI   C1A 9463  16.423   5.115   8.690 -0.3616  0.1671 -0.1143
  592loPI   C2A 9464  16.488   5.335   8.265  0.0276  0.2669  0.1067
  592loPI   C3A 9465  16.563   5.518   7.881 -0.0397  0.2517  0.1975
  592loPI   C4A 9466  16.626   5.854   7.653 -0.1730  0.4507  0.2090
  592loPI   C5A 9467  16.343   6.112   7.331  0.2638 -0.1532 -0.0457
  592loPI   C6A 9468  15.811   6.096   7.285  0.0215 -0.2414 -0.1608
  592loPI   C1B 9469  16.460   4.488   8.833  0.3659 -0.4887 -0.1344
  592loPI   C2B 9470  16.445   4.397   8.390  0.1902  0.2398  0.0453
  592loPI   C3B 9471  16.313   4.577   7.903 -0.0014 -0.1500  0.1896
  592loPI   C4B 9472  16.089   4.685   7.479 -0.0176 -0.3985 -0.2946
  593loPI    C1 9473   6.248  12.401   9.673  0.0472  0.2024 -0.0692
  593loPI    C2 9474   6.138  12.424  10.057 -0.1341 -0.1989 -0.0920
  593loPI    C3 9475   6.180  12.758   9.840 -0.1722  0.0227  0.2348
  593loPI   PO4 9476   6.563  12.234   9.754  0.0855 -0.0075 -0.1301
  593loPI   GL1 9477   6.817  12.260   9.371 -0.2717 -0.2334  0.0571
  593loPI   GL2 9478   6.730  11.892   9.355 -0.2686 -0.0087 -0.4609
  593loPI   C1A 9479   6.621  12.420   9.069 -0.3014  0.0865  0.1374
  593loPI   C2A 9480   6.689  12.468   8.584  0.3980 -0.3860 -0.0331
  593loPI   C3A 9481   6.803  12.544   8.145 -0.0104  0.2100  0.1305
  593loPI   C4A 9482   6.761  12.629   7.863 -0.1776  0.0752  0.3601
  593loPI   C5A 9483   6.774  12.692   7.497  0.0589 -0.2633  0.2228
  593loPI   C6A 9484   7.123  12.658   7.285 -0.1417  0.1308 -0.0792
  593loPI   C1B 9485   6.967  11.987   8.957  0.2374 -0.0115 -0.5019
  593loPI   C2B 9486   6.863  11.973   8.470 -0.0851 -0.2514  0.0065
  593loPI   C3B 9487   6.513  11.950   8.137 -0.0841  0.4724 -0.0297
  593loPI   C4B 9488   6.473  12.101   7.639  0.1824  0.2662  0.3159
  594loPI    C1 9489   0.934   6.246  10.190 -0.1331 -0.1197  0.2410
  594loPI    C2 9490   0.959   6.641  10.248  0.1227 -0.0670 -0.1865
  594loPI    C3 9491   0.605   6.473  10.167  0.0163  0.0757 -0.0247
  594loPI   PO4 9492   1.079   6.263   9.951 -0.0308 -0.2171 -0.1320
  594loPI   GL1 9493   1.151   6.226   9.535 -0.0842  0.0135  0.1360
  594loPI   GL2 9494   1.055   6.558   9.258  0.2122 -0.0498 -0.0506
  594loPI   C1A 9495   1.013   6.040   9.172 -0.2514  0.1156 -0.0111
  594loPI   C2A 9496   1.357   5.874   8.773  0.1659  0.3712  0.0894
  594loPI   C3A 9497   1.223   6.026   8.448  0.0178 -0.0434 -0.2380
  594loPI   C4A 9498   1.101   6.133   8.012 -0.1077  0.2173 -0.0808
  594loPI   C5A 9499   1.367   6.365   7.740 -0.1322 -0.0655  0.0494
  594loPI   C6A 9500   1.317   6.358   7.258 -0.0415  0.1815 -0.3107
  594loPI   C1B 9501   0.864   6.591   8.943  0.1209  0.2311  0.0367
  594loPI   C2B 9502   0.686   6.128   8.741  0.4369  0.0307  0.2921
  594loPI   C3B 9503   0.369   5.824   8.437  0.0138 -0.2008 -0.1221
  594loPI   C4B 9504  -0.009   5.719   8.501 -0.2957 -0.0335  0.4454
  595loPI    C1 9505   3.856   8.089   9.563  0.2976  0.1158 -0.2238
  595loPI    C2 9506   3.574   8.336   9.424 -0.0972 -0.1205  0.1302
  595loPI    C3 9507   3.687   8.357   9.807 -0.0054 -0.3685  0.1187
  595loPI   PO4 9508   4.031   8.127   9.370  0.1896 -0.0976  0.0969
  595loPI   GL1 9509   4.204   8.194   8.910  0.1187  0.1428 -0.2341
  595loPI   GL2 9510   4.002   8.069   8.821  0.0197  0.0901  0.0867
  595loPI   C1A 9511   4.180   8.488   8.571 -0.0531 -0.2530 -0.0738
  595loPI   C2A 9512   4.169   8.568   8.193  0.0363  0.5497 -0.0822
  595loPI   C3A 9513   4.105   8.295   7.862  0.0134 -0.0727  0.3267
  595loPI   C4A 9514   4.117   8.354   7.392 -0.0309 -0.0830 -0.4006
  595loPI   C5A 9515   4.322   8.709   7.218  0.0631 -0.1716 -0.1646
  595loPI   C6A 9516   4.373   9.129   7.068  0.1762  0.0894  0.0920
  595loPI   C1B 9517   4.141   7.982   8.363  0.1557  0.0040 -0.0782
  595loPI   C2B 9518   4.353   7.779   8.123  0.2346 -0.4000  0.3372
  595loPI   C3B 9519   4.400   7.897   7.648 -0.1233 -0.2232 -0.2211
  595loPI   C4B 9520   4.364   7.893   7.256  0.0293  0.0328 -0.1261
  596loPI    C1 9521   1.775  12.881   9.688  0.0600  0.4302 -0.1076
  596loPI    C2 9522   1.637  12.817  10.058 -0.0012 -0.0093 -0.2017
  596loPI    C3 9523   2.025  12.896  10.001  0.0424 -0.1153 -0.0585
  596loPI   PO4 9524   1.657  12.688   9.579 -0.0308 -0.0593 -0.0730
  596loPI   GL1 9525   1.772  12.583   9.196 -0.0861 -0.0382  0.1342
  596loPI   GL2 9526   1.928  12.947   9.182 -0.0504  0.1926  0.1452
  596loPI   C1A 9527   1.735  12.643   8.755 -0.2370 -0.3087 -0.1205
  596loPI   C2A 9528   1.643  12.891   8.439  0.0626 -0.3581  0.0773
  596loPI   C3A 9529   1.631  13.401   8.395 -0.3781  0.0568 -0.1783
  596loPI   C4A 9530   1.613  13.790   8.329  0.1885  0.0450 -0.1957
  596loPI   C5A 9531   1.552  13.913   7.940  0.0804  0.2187  0.0297
  596loPI   C6A 9532   1.552  14.174   7.566  0.1086  0.0261 -0.2172
  596loPI   C1B 9533   1.808  13.167   8.966  0.0668 -0.0883  0.0968
  596loPI   C2B 9534   2.060  13.385   8.778 -0.1857 -0.1701  0.3586
  596loPI   C3B 9535   2.079  13.805   8.499 -0.0431 -0.2194 -0.1080
  596loPI   C4B 9536   2.183  13.946   8.060  0.0693 -0.2396 -0.1467
  597loPI    C1 9537   0.269   0.215  10.246 -0.2472 -0.2858 -0.1410
  597loPI    C2 9538  -0.023   0.373  10.468  0.0424  0.0692 -0.0024
  597loPI    C3 9539   0.265   0.157  10.642  0.0754  0.0479 -0.0833
  597loPI   PO4 9540   0.340   0.424  10.070  0.1366 -0.0245 -0.0281
  597loPI   GL1 9541   0.524   0.575   9.761  0.0504 -0.2226 -0.3631
  597loPI   GL2 9542   0.686   0.872   9.688  0.1199  0.1487  0.0624
  597loPI   C1A 9543   0.566   0.583   9.294 -0.3144  0.0999  0.0329
  597loPI   C2A 9544   0.894   0.832   8.977  0.1186  0.1379  0.1650
  597loPI   C3A 9545   1.043   0.876   8.560  0.2995 -0.0722 -0.2526
  597loPI   C4A 9546   1.067   0.915   8.065 -0.0281 -0.0401  0.0115
  597loPI   C5A 9547   1.248   0.966   7.606  0.1499 -0.1021  0.3224
  597loPI   C6A 9548   1.409   1.138   7.200 -0.2058  0.0369  0.1740
  597loPI   C1B 9549   0.468   1.073   9.395  0.4219 -0.0650 -0.0894
  597loPI   C2B 9550   0.350   1.008   9.053  0.1609  0.0229  0.1090
  597loPI   C3B 9551   0.453   1.058   8.597  0.1203  0.1703 -0.0217
  597loPI   C4B 9552   0.627   1.205   8.211  0.1388  0.3191  0.0881
  598loPI    C1 9553   3.016   0.692  10.903 -0.0339 -0.2610 -0.0416
  598loPI    C2 9554   2.641   0.722  11.039  0.0245 -0.1893  0.1057
  598loPI    C3 9555   2.880   1.042  11.040 -0.0015 -0.1654 -0.2508
  598loPI   PO4 9556   3.061   0.447  10.727  0.1395 -0.0900  0.3402
  598loPI   GL1 9557   3.151   0.488  10.303 -0.2426 -0.1419  0.2044
  598loPI   GL2 9558   3.076   0.169  10.118  0.3841 -0.0728  0.1431
  598loPI   C1A 9559   3.362   0.518   9.888 -0.1010  0.0914 -0.2145
  598loPI   C2A 9560   3.530   0.479   9.506  0.0244  0.3049  0.0093
  598loPI   C3A 9561   3.597   0.571   9.089 -0.2031 -0.1905  0.1296
  598loPI   C4A 9562   3.586   0.505   8.591 -0.3125 -0.3039 -0.3439
  598loPI   C5A 9563   3.422   0.328   8.191 -0.1796  0.1302  0.1080
  598loPI   C6A 9564   3.473   0.292   7.764  0.1717  0.1739 -0.1598
  598loPI   C1B 9565   3.323   0.044   9.694 -0.0751 -0.2979 -0.0660
  598loPI   C2B 9566   3.213   0.130   9.230  0.2126  0.0656 -0.2231
  598loPI   C3B 9567   3.246   0.155   8.800  0.1012 -0.0950  0.0324
  598loPI   C4B 9568   3.050   0.089   8.442  0.1307 -0.2154 -0.0476
  599loPI    C1 9569   2.068  16.762  10.416 -0.1016 -0.1311  0.1601
  599loPI    C2 9570   2.335  16.469  10.467  0.2809  0.2144  0.1879
  599loPI    C3 9571   1.976  16.444  10.641  0.2576 -0.2949  0.0814
  599loPI   PO4 9572   2.173  16.850  10.171 -0.2304  0.2368  0.0440
  599loPI   GL1 9573   2.186  16.631   9.785 -0.1118 -0.1162  0.0268
  599loPI   GL2 9574   2.193  16.289   9.782 -0.0009 -0.1244  0.1451
  599loPI   C1A 9575   1.923  16.785   9.479  0.2959 -0.0962 -0.3883
  599loPI   C2A 9576   1.739  16.527   9.209  0.1237 -0.1572 -0.4424
  599loPI   C3A 9577   1.834  16.521   8.781  0.0121  0.3058 -0.1340
  599loPI   C4A 9578   1.858  16.737   8.455  0.2286  0.1133 -0.0708
  599loPI   C5A 9579   1.837  16.659   8.005  0.1229  0.1360  0.0321
  599loPI   C6A 9580   1.688  16.401   7.617 -0.2960  0.1182 -0.3258
  599loPI   C1B 9581   2.182  16.389   9.368 -0.1232 -0.1127  0.2781
  599loPI   C2B 9582   2.318  16.341   8.933 -0.0928  0.1270  0.1031
  599loPI   C3B 9583   2.267  16.482   8.520  0.2146 -0.0300 -0.1984
  599loPI   C4B 9584   2.344  16.541   8.114  0.3488 -0.0654  0.0150
  600loPI    C1 9585  18.735  18.722  10.124 -0.0329 -0.3101 -0.1319
  600loPI    C2 9586  18.916  18.495  10.399  0.1103  0.2372  0.2421
  600loPI    C3 9587  18.557  18.655  10.476  0.0939  0.2908  0.0581
  600loPI   PO4 9588  18.940  18.814  10.015  0.1218 -0.0256 -0.2391
  600loPI   GL1 9589  19.005  18.673   9.645  0.2122 -0.2546 -0.1016
  600loPI   GL2 9590  18.924  18.306   9.419 -0.1185 -0.2583 -0.0067
  600loPI   C1A 9591  19.154  18.715   9.223 -0.2786 -0.1774  0.3320
  600loPI   C2A 9592  19.171  18.764   8.812  0.0087  0.1193  0.0313
  600loPI   C3A 9593  19.143  18.924   8.490  0.1116  0.2292 -0.0647
  600loPI   C4A 9594  19.378  19.222   8.370 -0.0160  0.2182  0.2240
  600loPI   C5A 9595  19.676  19.385   8.102 -0.2965 -0.0113  0.0732
  600loPI   C6A 9596  19.890  19.700   7.840 -0.1736  0.0159 -0.0125
  600loPI   C1B 9597  18.920  18.395   8.978  0.0379  0.1060  0.1309
  600loPI   C2B 9598  19.249  18.230   8.711  0.0705 -0.1498 -0.0431
  600loPI   C3B 9599  19.388  18.135   8.287 -0.2368  0.1195  0.0023
  600loPI   C4B 9600  19.530  18.408   7.981  0.0963 -0.0269  0.2075
  601loPI    C1 9601   6.151  15.331  10.038  0.1806 -0.0494 -0.2631
  601loPI    C2 9602   6.487  15.116  10.066  0.1515 -0.0450  0.1843
  601loPI    C3 9603   6.178  15.037  10.307 -0.1397  0.0092 -0.1629
  601loPI   PO4 9604   6.073  15.280   9.753  0.0442 -0.0091 -0.2578
  601loPI   GL1 9605   6.027  15.362   9.436 -0.0938  0.0947 -0.2360
  601loPI   GL2 9606   5.796  15.734   9.554 -0.0168  0.0472  0.0779
  601loPI   C1A 9607   6.118  15.511   9.059  0.0475  0.4462  0.1768
  601loPI   C2A 9608   6.107  15.470   8.636  0.0391  0.0940 -0.2321
  601loPI   C3A 9609   6.029  15.598   8.296 -0.2372  0.0398  0.1872
  601loPI   C4A 9610   5.822  15.598   7.933 -0.1995 -0.0121  0.1299
  601loPI   C5A 9611   5.955  15.489   7.538 -0.0371 -0.2248 -0.0426
  601loPI   C6A 9612   5.879  15.180   7.182 -0.1019  0.2622  0.0107
  601loPI   C1B 9613   5.625  15.556   9.154 -0.3541  0.4261 -0.1952
  601loPI   C2B 9614   5.633  15.463   8.664  0.0051  0.0353 -0.1163
  601loPI   C3B 9615   5.664  15.222   8.209 -0.0616 -0.0408 -0.2378
  601loPI   C4B 9616   5.586  15.084   7.770  0.0905  0.0590 -0.2728
  602loPI    C1 9617  18.567  17.252  10.119  0.1777  0.1679 -0.0001
  602loPI    C2 9618  18.747  17.224  10.475  0.0349  0.0315  0.0626
  602loPI    C3 9619  18.349  17.250  10.454  0.0464  0.0944 -0.0854
  602loPI   PO4 9620  18.732  17.360   9.922  0.3242 -0.1115  0.3387
  602loPI   GL1 9621  18.952  17.574   9.573  0.2386  0.2433 -0.2009
  602loPI   GL2 9622  18.771  17.801   9.369 -0.0302  0.2709 -0.4157
  602loPI   C1A 9623  19.201  17.496   9.278  0.0871 -0.0872 -0.1941
  602loPI   C2A 9624  19.335  17.284   8.912 -0.4208  0.0617  0.1496
  602loPI   C3A 9625  19.369  17.317   8.403  0.1504 -0.0673  0.2411
  602loPI   C4A 9626  19.365  17.539   8.026  0.1404 -0.2076 -0.3349
  602loPI   C5A 9627  19.513  17.715   7.601  0.1708 -0.1466  0.2599
  602loPI   C6A 9628  19.861  17.773   7.302  0.1462 -0.1121 -0.0192
  602loPI   C1B 9629  19.033  17.859   9.017  0.2544 -0.1147 -0.2930
  602loPI   C2B 9630  19.318  17.760   8.723  0.0966  0.6305 -0.1352
  602loPI   C3B 9631  19.070  17.782   8.341  0.1727  0.1702  0.0583
  602loPI   C4B 9632  19.106  17.941   7.902 -0.1100 -0.3609  0.1742
  603loPI    C1 9633  14.828   0.902   9.519  0.0412  0.1591  0.0545
  603loPI    C2 9634  14.750   1.074   9.167 -0.0569  0.0730  0.0338
  603loPI    C3 9635  14.523   1.158   9.485  0.0458  0.1684  0.0827
  603loPI   PO4 9636  15.086   0.872   9.479  0.1951 -0.3529  0.1939
  603loPI   GL1 9637  15.336   0.711   9.058 -0.0655  0.0981 -0.2261
  603loPI   GL2 9638  15.456   0.415   9.206  0.1679  0.0518  0.0176
  603loPI   C1A 9639  15.432   0.669   8.651  0.0283  0.0407  0.0388
  603loPI   C2A 9640  15.496   0.672   8.252  0.1980 -0.2735 -0.1099
  603loPI   C3A 9641  15.627   0.374   7.920  0.1481  0.1537  0.0924
  603loPI   C4A 9642  15.475   0.442   7.638  0.0947 -0.0623  0.0951
  603loPI   C5A 9643  15.388   0.712   7.410 -0.2424 -0.4446  0.0307
  603loPI   C6A 9644  15.029   0.872   7.211  0.0268  0.1176 -0.1231
  603loPI   C1B 9645  15.309   0.183   8.804  0.1166 -0.1190 -0.1302
  603loPI   C2B 9646  15.251   0.251   8.357  0.0074  0.0129  0.1012
  603loPI   C3B 9647  15.017   0.217   7.912  0.0884  0.1755 -0.2103
  603loPI   C4B 9648  14.697   0.105   7.459  0.2181 -0.0264  0.0028
  604loPI    C1 9649   5.288   4.280  10.310  0.1850 -0.0817 -0.2271
  604loPI    C2 9650   5.010   4.270  10.023  0.1396 -0.0261 -0.1852
  604loPI    C3 9651   4.960   4.506  10.342  0.1940 -0.0811 -0.1357
  604loPI   PO4 9652   5.447   4.150  10.151  0.0125 -0.1315  0.1939
  604loPI   GL1 9653   5.397   4.087   9.699 -0.1725 -0.1918 -0.1723
  604loPI   GL2 9654   5.120   3.914   9.523  0.0228 -0.0289  0.0374
  604loPI   C1A 9655   5.708   3.935   9.411  0.0426 -0.1255 -0.0034
  604loPI   C2A 9656   5.890   3.848   9.041  0.0037  0.2825  0.2753
  604loPI   C3A 9657   5.976   3.931   8.682 -0.2842  0.3635  0.2164
  604loPI   C4A 9658   5.907   4.213   8.334  0.0545 -0.0655 -0.1363
  604loPI   C5A 9659   5.841   4.135   7.998 -0.1264  0.0349 -0.2030
  604loPI   C6A 9660   6.018   4.037   7.644 -0.0093  0.1043  0.2616
  604loPI   C1B 9661   5.035   3.754   9.126  0.0113 -0.0874 -0.1855
  604loPI   C2B 9662   5.006   3.778   8.681 -0.0116 -0.3102  0.2173
  604loPI   C3B 9663   5.050   3.985   8.226 -0.1852 -0.0145 -0.0007
  604loPI   C4B 9664   5.227   4.350   7.978 -0.0490  0.1656 -0.0492
  605loPI    C1 9665   7.359  13.571   9.944 -0.0029 -0.4182  0.0292
  605loPI    C2 9666   7.450  13.253  10.169 -0.1452 -0.2890  0.2735
  605loPI    C3 9667   7.274  13.572  10.335 -0.1283 -0.1365  0.0038
  605loPI   PO4 9668   7.432  13.446   9.657  0.1433  0.2547 -0.1771
  605loPI   GL1 9669   7.468  13.620   9.240  0.1806 -0.3208 -0.2100
  605loPI   GL2 9670   7.119  13.657   9.294  0.1603  0.0162  0.2361
  605loPI   C1A 9671   7.745  13.869   8.996 -0.0280 -0.0247 -0.4545
  605loPI   C2A 9672   7.748  13.996   8.527 -0.1875 -0.1129 -0.0411
  605loPI   C3A 9673   7.792  14.156   8.135  0.0765  0.1777  0.0046
  605loPI   C4A 9674   7.724  14.246   7.773  0.3506 -0.0773  0.1414
  605loPI   C5A 9675   7.824  14.511   7.415  0.0498  0.0527  0.2149
  605loPI   C6A 9676   7.618  14.559   7.067 -0.0824 -0.0492 -0.0344
  605loPI   C1B 9677   7.064  13.473   8.886 -0.2099  0.3858  0.3941
  605loPI   C2B 9678   7.302  13.433   8.442  0.0389 -0.3816  0.3092
  605loPI   C3B 9679   7.328  13.367   8.075 -0.0605 -0.0562 -0.1923
  605loPI   C4B 9680   7.372  13.473   7.642 -0.0964  0.0661  0.0303
  606loPI    C1 9681  11.290   6.817  10.557 -0.1758 -0.3677 -0.2415
  606loPI    C2 9682  10.947   6.734  10.747 -0.0457 -0.0290  0.1576
  606loPI    C3 9683  11.197   7.008  10.896  0.2470 -0.0315 -0.3070
  606loPI   PO4 9684  11.145   6.879  10.280  0.1978  0.1658 -0.2088
  606loPI   GL1 9685  11.065   6.697   9.855 -0.0328  0.2277 -0.0455
  606loPI   GL2 9686  11.011   7.004   9.710  0.1087 -0.1165  0.1470
  606loPI   C1A 9687  11.344   6.717   9.499 -0.1870 -0.1263  0.0595
  606loPI   C2A 9688  11.516   6.780   9.109  0.0862 -0.3832  0.1929
  606loPI   C3A 9689  11.510   6.996   8.620  0.0072  0.1711  0.1209
  606loPI   C4A 9690  11.717   7.133   8.243  0.3630  0.1412 -0.3450
  606loPI   C5A 9691  11.788   7.042   7.771  0.0128  0.2239 -0.2936
  606loPI   C6A 9692  12.109   6.801   7.478 -0.1247 -0.0116 -0.1619
  606loPI   C1B 9693  11.085   7.022   9.220 -0.0434  0.0357 -0.0571
  606loPI   C2B 9694  11.119   7.317   8.904  0.3310 -0.2043  0.1433
  606loPI   C3B 9695  11.142   7.376   8.485 -0.2217  0.2879 -0.0943
  606loPI   C4B 9696  10.885   7.369   8.070  0.2252 -0.0181  0.0098
  607loPI    C1 9697  15.511  14.612  10.266 -0.2151  0.2781 -0.0660
  607loPI    C2 9698  15.536  14.813  10.611 -0.0575 -0.0312  0.1074
  607loPI    C3 9699  15.641  14.428  10.596  0.0683  0.0147 -0.3191
  607loPI   PO4 9700  15.649  14.812  10.019  0.1579  0.2118 -0.2194
  607loPI   GL1 9701  15.658  14.583   9.722 -0.0649 -0.0421 -0.1903
  607loPI   GL2 9702  15.713  14.276   9.526 -0.2057 -0.2546  0.3181
  607loPI   C1A 9703  15.946  14.814   9.354 -0.0117  0.1559  0.3880
  607loPI   C2A 9704  15.943  14.840   8.863 -0.4163 -0.1038  0.0758
  607loPI   C3A 9705  15.919  14.906   8.464  0.0139 -0.4286 -0.3205
  607loPI   C4A 9706  15.897  14.707   8.077  0.1247 -0.3269 -0.2369
  607loPI   C5A 9707  15.517  14.679   7.742  0.3347 -0.1609  0.2440
  607loPI   C6A 9708  15.181  14.883   7.524  0.0366 -0.0742 -0.2466
  607loPI   C1B 9709  15.613  14.497   9.127 -0.2096 -0.0434  0.0450
  607loPI   C2B 9710  15.540  14.537   8.722 -0.0717  0.0857 -0.1174
  607loPI   C3B 9711  15.529  14.439   8.360 -0.0502 -0.0099  0.0714
  607loPI   C4B 9712  15.623  14.223   7.930 -0.0624 -0.0342 -0.2122
  608loPI    C1 9713  12.079  18.585   9.691 -0.0794 -0.5151 -0.1368
  608loPI    C2 9714  12.182  18.841   9.401 -0.1792 -0.2340  0.0711
  608loPI    C3 9715  12.434  18.550   9.510  0.0271 -0.0919 -0.0206
  608loPI   PO4 9716  11.772  18.535   9.593  0.1878 -0.1225  0.1285
  608loPI   GL1 9717  11.602  18.630   9.264  0.0910  0.1399 -0.2376
  608loPI   GL2 9718  11.619  18.409   9.114  0.2223 -0.2542  0.0373
  608loPI   C1A 9719  11.846  18.957   8.984  0.1283  0.0992 -0.1697
  608loPI   C2A 9720  12.127  18.921   8.793 -0.2455  0.1033  0.2538
  608loPI   C3A 9721  12.236  19.056   8.286 -0.0148  0.0136 -0.0163
  608loPI   C4A 9722  12.214  18.783   7.855  0.0029 -0.1050  0.2140
  608loPI   C5A 9723  12.244  18.394   7.558  0.0655 -0.1394 -0.2344
  608loPI   C6A 9724  12.063  17.963   7.464 -0.0158  0.1507 -0.2281
  608loPI   C1B 9725  11.682  18.059   8.943  0.2805  0.0808  0.0086
  608loPI   C2B 9726  11.478  17.792   8.655  0.0183 -0.0254  0.0224
  608loPI   C3B 9727  11.666  17.402   8.666 -0.1431 -0.1043  0.0222
  608loPI   C4B 9728  11.862  16.939   8.438 -0.1189 -0.2121 -0.2164
  609POPI    C1 9729   1.396   6.916  10.111  0.1804  0.1796 -0.0128
  609POPI    C2 9730   1.236   7.194   9.871  0.0544  0.0431 -0.0882
  609POPI    C3 9731   1.127   7.175  10.255  0.1587  0.1786 -0.0513
  609POPI   PO4 9732   1.409   6.730   9.847  0.1803  0.0099  0.1017
  609POPI   GL1 9733   1.547   6.510   9.382 -0.0892 -0.1012 -0.4220
  609POPI   GL2 9734   1.646   6.134   9.339 -0.4361 -0.0133 -0.0705
  609POPI   C1A 9735   1.682   6.757   9.193  0.0090 -0.0810 -0.1748
  609POPI   D2A 9736   1.806   7.071   9.028  0.2476  0.2575  0.1385
  609POPI   C3A 9737   1.559   6.934   8.706 -0.3404  0.2102 -0.1625
  609POPI   C4A 9738   1.478   6.971   8.348 -0.2616  0.0666 -0.0784
  609POPI   C1B 9739   1.585   6.294   8.945 -0.1716  0.2751  0.0099
  609POPI   C2B 9740   1.352   6.554   8.571 -0.1975  0.2202  0.0592
  609POPI   C3B 9741   1.163   6.623   8.153  0.0947 -0.1569  0.0078
  609POPI   C4B 9742   0.857   6.539   7.812 -0.2249 -0.2534  0.2942
  610POPI    C1 9743   6.586  18.196  10.179  0.1151 -0.0666 -0.2323
  610POPI    C2 9744   6.283  17.937  10.145  0.0096  0.0240 -0.0071
  610POPI    C3 9745   6.396  18.066  10.506  0.2475  0.0746 -0.0977
  610POPI   PO4 9746   6.511  18.353   9.923  0.2001  0.1154  0.0068
  610POPI   GL1 9747   6.148  18.365   9.657 -0.1437 -0.2316  0.1784
  610POPI   GL2 9748   5.914  18.105   9.777 -0.2349 -0.1446  0.2539
  610POPI   C1A 9749   5.946  18.553   9.280  0.2426  0.0899  0.0766
  610POPI   D2A 9750   5.752  18.541   8.942 -0.0491  0.0198  0.2452
  610POPI   C3A 9751   5.630  18.760   8.598 -0.0452 -0.2670 -0.1074
  610POPI   C4A 9752   5.417  19.035   8.478  0.1140 -0.2533 -0.3274
  610POPI   C1B 9753   5.714  18.137   9.402  0.0015 -0.0652 -0.2144
  610POPI   C2B 9754   5.613  17.992   9.076 -0.2370 -0.0133  0.2381
  610POPI   C3B 9755   5.679  17.711   8.710  0.0672  0.1038 -0.1592
  610POPI   C4B 9756   5.579  17.363   8.485 -0.0789 -0.1182 -0.0885
  611POPI    C1 9757   2.685  10.042   9.991  0.1631  0.0734 -0.2085
  611POPI    C2 9758   2.689   9.653  10.084  0.1299  0.0722 -0.2115
  611POPI    C3 9759   2.375   9.879  10.184  0.1005  0.0741 -0.3076
  611POPI   PO4 9760   2.696  10.048   9.660  0.4376 -0.2108  0.2193
  611POPI   GL1 9761   2.366  10.294   9.339 -0.2504 -0.4122  0.1026
  611POPI   GL2 9762   2.190  10.612   9.212  0.0316 -0.0083 -0.1661
  611POPI   C1A 9763   2.398   9.929   9.036 -0.0440 -0.0465 -0.1084
  611POPI   D2A 9764   2.599   9.963   8.709  0.1762  0.3720  0.3425
  611POPI   C3A 9765   2.858   9.830   8.309  0.0728 -0.0875  0.2479
  611POPI   C4A 9766   2.955   9.873   7.848 -0.0600  0.1813 -0.4902
  611POPI   C1B 9767   2.070  10.620   8.752 -0.3634  0.1174  0.0380
  611POPI   C2B 9768   2.065  10.726   8.360 -0.1302  0.0837 -0.1052
  611POPI   C3B 9769   2.151  10.934   8.057  0.0927 -0.0669 -0.0807
  611POPI   C4B 9770   2.314  11.069   7.778 -0.1084  0.0687  0.0827
  612POPI    C1 9771   6.544  11.656  10.051 -0.1228  0.0132 -0.0201
  612POPI    C2 9772   6.329  11.981  10.143 -0.0692  0.0487 -0.0198
  612POPI    C3 9773   6.536  11.791  10.428  0.0767  0.1435 -0.0610
  612POPI   PO4 9774   6.676  11.705   9.863  0.1378 -0.3007  0.3029
  612POPI   GL1 9775   6.988  11.479   9.494  0.0031 -0.1030  0.1494
  612POPI   GL2 9776   7.135  11.156   9.522 -0.3542  0.1117 -0.1943
  612POPI   C1A 9777   7.075  11.476   8.989  0.2605  0.1663 -0.2036
  612POPI   D2A 9778   7.292  11.532   8.616 -0.0454  0.0576  0.1951
  612POPI   C3A 9779   7.221  11.598   8.117  0.0666  0.0484 -0.1740
  612POPI   C4A 9780   7.007  12.059   7.995  0.2068 -0.0520 -0.2120
  612POPI   C1B 9781   7.436  11.065   9.203 -0.1880 -0.0611  0.1608
  612POPI   C2B 9782   7.571  11.066   8.809 -0.2440  0.2805  0.0287
  612POPI   C3B 9783   7.500  11.067   8.368 -0.1015 -0.0730 -0.1888
  612POPI   C4B 9784   7.508  11.122   8.031 -0.2886 -0.1148  0.3063
  613POPI    C1 9785  18.832   3.364  10.057 -0.0841  0.0054  0.2300
  613POPI    C2 9786  19.027   3.017  10.018 -0.2320 -0.0390 -0.1541
  613POPI    C3 9787  18.713   3.043  10.264 -0.0990 -0.1213  0.0269
  613POPI   PO4 9788  18.742   3.492   9.749  0.0681  0.3218  0.1684
  613POPI   GL1 9789  18.562   3.359   9.331 -0.0160  0.1650 -0.0864
  613POPI   GL2 9790  18.350   3.081   9.324 -0.0169  0.5118 -0.0287
  613POPI   C1A 9791  18.139   3.503   9.171 -0.0047 -0.1572  0.1183
  613POPI   D2A 9792  17.747   3.704   9.181  0.1012  0.3727  0.1655
  613POPI   C3A 9793  17.472   3.492   8.974 -0.0511  0.0702  0.0522
  613POPI   C4A 9794  17.211   3.199   9.071  0.3376  0.0782 -0.1612
  613POPI   C1B 9795  18.344   3.198   8.874 -0.0546  0.0196 -0.4168
  613POPI   C2B 9796  18.392   3.159   8.346  0.0760 -0.2790 -0.0043
  613POPI   C3B 9797  18.098   3.138   7.951  0.2840  0.0666 -0.0776
  613POPI   C4B 9798  17.652   3.204   7.858  0.0712  0.1692 -0.1850
  614POPI    C1 9799  11.197   2.034   9.341 -0.0789  0.0620  0.0755
  614POPI    C2 9800  11.590   2.102   9.313 -0.0857  0.1099  0.0963
  614POPI    C3 9801  11.334   2.314   9.091 -0.0941  0.0164  0.0157
  614POPI   PO4 9802  11.168   1.747   9.297  0.0143 -0.1743  0.0815
  614POPI   GL1 9803  11.252   1.416   9.082 -0.0730 -0.1220  0.0402
  614POPI   GL2 9804  11.474   1.200   9.175  0.0404 -0.0958 -0.0373
  614POPI   C1A 9805  10.830   1.381   8.917  0.1142  0.0460  0.1116
  614POPI   D2A 9806  10.633   1.172   8.591  0.1608  0.0214  0.2186
  614POPI   C3A 9807  10.823   1.240   8.182  0.0569 -0.0027  0.0494
  614POPI   C4A 9808  11.080   1.534   7.963  0.1103  0.2185  0.1384
  614POPI   C1B 9809  11.583   1.065   8.773  0.0041  0.2290  0.0084
  614POPI   C2B 9810  11.400   0.969   8.457  0.2017 -0.1328  0.0804
  614POPI   C3B 9811  11.287   1.040   8.019 -0.0750 -0.0379 -0.2174
  614POPI   C4B 9812  11.036   1.167   7.629  0.0457  0.3373 -0.2276
  615POPI    C1 9813  16.314   0.952   9.963 -0.1334  0.1168  0.0637
  615POPI    C2 9814  16.602   1.165  10.141 -0.0693 -0.0095  0.1131
  615POPI    C3 9815  16.563   0.776  10.222 -0.1897 -0.0157  0.0287
  615POPI   PO4 9816  16.328   1.076   9.693 -0.1168  0.1869 -0.4528
  615POPI   GL1 9817  16.618   0.967   9.369 -0.0005 -0.0969 -0.0693
  615POPI   GL2 9818  16.395   0.771   9.214  0.0818  0.0830 -0.1578
  615POPI   C1A 9819  16.916   1.061   9.017 -0.2753  0.0096 -0.0527
  615POPI   D2A 9820  17.015   1.128   8.603 -0.2199  0.1893  0.0168
  615POPI   C3A 9821  17.025   1.448   8.210  0.2393  0.0108  0.0423
  615POPI   C4A 9822  16.799   1.722   8.045 -0.1430  0.1003 -0.2699
  615POPI   C1B 9823  16.503   0.919   8.757 -0.0031  0.1285  0.0769
  615POPI   C2B 9824  16.474   0.894   8.284 -0.2832  0.0443  0.0258
  615POPI   C3B 9825  16.692   0.868   7.909 -0.3225 -0.1218  0.1639
  615POPI   C4B 9826  17.009   0.917   7.615  0.0153  0.1838 -0.0959
  616POPI    C1 9827   7.809  17.197   9.675 -0.1080 -0.0325  0.1048
  616POPI    C2 9828   7.991  17.454   9.921 -0.2849 -0.1238  0.3355
  616POPI    C3 9829   8.027  17.061   9.981 -0.0402 -0.1573  0.0020
  616POPI   PO4 9830   7.834  17.265   9.497 -0.0935 -0.0574  0.0562
  616POPI   GL1 9831   7.968  17.343   9.138  0.0664 -0.1797 -0.0389
  616POPI   GL2 9832   7.937  17.155   8.926 -0.3953 -0.0572  0.1232
  616POPI   C1A 9833   7.893  17.665   8.807  0.0413 -0.2698 -0.2371
  616POPI   D2A 9834   7.714  17.835   8.337 -0.3070 -0.0249  0.3240
  616POPI   C3A 9835   7.695  17.589   7.977 -0.1514  0.0177  0.1882
  616POPI   C4A 9836   7.876  17.422   7.661  0.0393 -0.1774  0.2052
  616POPI   C1B 9837   7.896  17.219   8.479  0.2264  0.1070 -0.0214
  616POPI   C2B 9838   7.965  17.195   8.128 -0.1927  0.4592  0.0554
  616POPI   C3B 9839   8.330  17.311   7.752 -0.0384  0.0226  0.1806
  616POPI   C4B 9840   8.554  17.346   7.418 -0.3376 -0.1707 -0.3391
  617POPI    C1 9841  10.664   0.520   9.814 -0.1641  0.2926  0.0520
  617POPI    C2 9842  10.854   0.794  10.035  0.1005 -0.0436  0.2515
  617POPI    C3 9843  10.887   0.406  10.126 -0.3700 -0.1378  0.0490
  617POPI   PO4 9844  10.637   0.750   9.553 -0.0778 -0.1752 -0.0426
  617POPI   GL1 9845  10.287   0.756   9.308  0.0260 -0.2240  0.3910
  617POPI   GL2 9846  10.195   0.424   9.162 -0.1387  0.0032 -0.1652
  617POPI   C1A 9847  10.243   1.024   8.947 -0.0045  0.1354 -0.1184
  617POPI   D2A 9848  10.148   1.225   8.547 -0.0053  0.0779 -0.2456
  617POPI   C3A 9849  10.011   1.251   8.197 -0.0452 -0.1483  0.1148
  617POPI   C4A 9850  10.065   1.476   7.874  0.0968 -0.2077 -0.1419
  617POPI   C1B 9851  10.153   0.324   8.745  0.1462  0.1619 -0.3312
  617POPI   C2B 9852  10.000   0.096   8.394  0.0792 -0.3569  0.1792
  617POPI   C3B 9853  10.136  -0.150   8.068 -0.0971  0.0920 -0.0511
  617POPI   C4B 9854  10.001  -0.308   7.735 -0.3788  0.1183  0.0434
  618POPI    C1 9855   9.359  17.911   9.811  0.0704  0.1401  0.0577
  618POPI    C2 9856   9.016  17.917  10.017  0.0090 -0.1729 -0.0293
  618POPI    C3 9857   9.352  18.054  10.185 -0.1568  0.1418  0.0545
  618POPI   PO4 9858   9.319  17.786   9.594  0.1944 -0.2470  0.2160
  618POPI   GL1 9859   9.313  17.612   9.182 -0.1529 -0.0509 -0.1031
  618POPI   GL2 9860   9.461  17.859   9.030 -0.2686  0.1157 -0.1132
  618POPI   C1A 9861   9.424  17.495   8.692 -0.0585  0.2093  0.0632
  618POPI   D2A 9862   9.805  17.358   8.439  0.1901  0.0015 -0.0144
  618POPI   C3A 9863  10.183  17.619   8.377  0.1798 -0.1637  0.1878
  618POPI   C4A 9864  10.523  17.826   8.225 -0.4055  0.2903 -0.0263
  618POPI   C1B 9865   9.265  18.014   8.674 -0.4380 -0.0108  0.0218
  618POPI   C2B 9866   9.000  18.122   8.234 -0.0979  0.0268 -0.0589
  618POPI   C3B 9867   9.130  18.338   7.859  0.0785 -0.4409 -0.2945
  618POPI   C4B 9868   8.939  18.483   7.509  0.0032 -0.0860  0.0940
  619POPI    C1 9869   1.063  12.845   9.996 -0.1052 -0.0564  0.0422
  619POPI    C2 9870   0.912  13.192  10.125 -0.2312 -0.0294 -0.1728
  619POPI    C3 9871   1.263  13.063  10.265 -0.2835  0.0812  0.0659
  619POPI   PO4 9872   1.115  12.901   9.699  0.0629 -0.0687 -0.0006
  619POPI   GL1 9873   1.257  13.096   9.321 -0.1273 -0.0261  0.1245
  619POPI   GL2 9874   1.361  12.846   9.153 -0.1929  0.0415 -0.0181
  619POPI   C1A 9875   1.326  13.478   9.149 -0.0568  0.0158  0.2151
  619POPI   D2A 9876   1.520  13.692   8.934 -0.2164 -0.2431 -0.4000
  619POPI   C3A 9877   1.213  13.582   8.564  0.1224  0.1672  0.0039
  619POPI   C4A 9878   0.767  13.297   8.280 -0.6709  0.1200 -0.0470
  619POPI   C1B 9879   1.304  13.054   8.838 -0.1132 -0.0965  0.1563
  619POPI   C2B 9880   1.142  13.066   8.505 -0.1256 -0.2222 -0.3948
  619POPI   C3B 9881   1.243  13.191   8.200  0.0184 -0.1587 -0.0223
  619POPI   C4B 9882   1.336  13.453   7.841 -0.0486 -0.2342  0.4816
  620POPI    C1 9883  16.248  15.937   9.906  0.0095 -0.2213 -0.0993
  620POPI    C2 9884  16.132  16.310   9.992  0.1095 -0.1141 -0.4122
  620POPI    C3 9885  15.863  16.014   9.982  0.1018 -0.1500  0.3180
  620POPI   PO4 9886  16.537  15.957   9.704  0.4200  0.0500 -0.1689
  620POPI   GL1 9887  16.888  15.683   9.554 -0.0423 -0.2613 -0.1386
  620POPI   GL2 9888  16.655  15.484   9.369  0.2014  0.0656 -0.4622
  620POPI   C1A 9889  16.999  15.766   9.211  0.0254  0.1624  0.0540
  620POPI   D2A 9890  16.923  15.925   8.753 -0.1098  0.2290 -0.1425
  620POPI   C3A 9891  17.026  15.642   8.374  0.0315  0.1108  0.0457
  620POPI   C4A 9892  17.424  15.479   8.141 -0.1359  0.0990 -0.2731
  620POPI   C1B 9893  16.633  15.494   8.926  0.2278 -0.1979 -0.0468
  620POPI   C2B 9894  16.596  15.394   8.477  0.0207 -0.0431  0.3370
  620POPI   C3B 9895  16.624  15.343   8.062 -0.2021  0.2233 -0.2038
  620POPI   C4B 9896  16.487  15.166   7.642  0.0999 -0.1440 -0.2242
  621POPI    C1 9897   5.574   5.682  10.186  0.0212 -0.0982  0.0512
  621POPI    C2 9898   5.671   5.394  10.446  0.2015 -0.0220  0.0707
  621POPI    C3 9899   5.622   5.770  10.574 -0.2236 -0.0740  0.0774
  621POPI   PO4 9900   5.539   5.615   9.872 -0.0215 -0.2032  0.0350
  621POPI   GL1 9901   5.946   5.630   9.493 -0.0384 -0.1545 -0.0400
  621POPI   GL2 9902   6.101   5.312   9.474  0.2727  0.1396 -0.2813
  621POPI   C1A 9903   6.280   5.683   9.256  0.1022 -0.3668 -0.1405
  621POPI   D2A 9904   6.713   5.477   9.140 -0.2268  0.0202  0.1792
  621POPI   C3A 9905   6.684   5.603   8.736  0.2268 -0.1241  0.1423
  621POPI   C4A 9906   6.754   5.932   8.387  0.0066  0.2556  0.1939
  621POPI   C1B 9907   5.830   5.433   9.056 -0.1392 -0.0420  0.4795
  621POPI   C2B 9908   5.591   5.533   8.692  0.0051 -0.4797  0.0892
  621POPI   C3B 9909   5.261   5.688   8.500 -0.2663 -0.2912 -0.1264
  621POPI   C4B 9910   5.156   5.900   8.072  0.1009  0.3717 -0.2047
  622POPI    C1 9911   1.963  14.191  10.221  0.1081  0.0736  0.0746
  622POPI    C2 9912   2.279  14.310  10.435  0.0635 -0.2692  0.3387
  622POPI    C3 9913   1.915  14.304  10.601 -0.0864  0.1149  0.0387
  622POPI   PO4 9914   1.998  14.339   9.922  0.2494 -0.0444  0.0079
  622POPI   GL1 9915   2.264  14.335   9.629  0.1613 -0.0867 -0.0009
  622POPI   GL2 9916   2.447  14.494   9.649 -0.0203 -0.0922 -0.0034
  622POPI   C1A 9917   2.378  14.180   9.243 -0.1295 -0.3686  0.0409
  622POPI   D2A 9918   2.402  14.307   8.852 -0.3303 -0.4170 -0.0775
  622POPI   C3A 9919   2.275  14.458   8.439  0.0894 -0.1119 -0.1424
  622POPI   C4A 9920   2.158  14.702   8.113 -0.1359 -0.0028  0.2215
  622POPI   C1B 9921   2.368  14.706   9.191  0.0838 -0.1852 -0.1790
  622POPI   C2B 9922   2.486  14.783   8.778  0.4074 -0.2784 -0.3111
  622POPI   C3B 9923   2.377  14.939   8.456 -0.0394  0.1450  0.1486
  622POPI   C4B 9924   2.517  15.139   8.173  0.2245 -0.1471 -0.1950
  623POPI    C1 9925  16.312   7.721   9.881 -0.2335  0.0844 -0.0133
  623POPI    C2 9926  16.591   7.503  10.069 -0.0061  0.2410 -0.1637
  623POPI    C3 9927  16.453   7.839  10.237 -0.0626  0.1942 -0.1158
  623POPI   PO4 9928  16.334   7.623   9.603  0.1460  0.0849  0.0317
  623POPI   GL1 9929  16.253   7.767   9.125 -0.3274 -0.1361 -0.0184
  623POPI   GL2 9930  16.571   7.698   9.077 -0.1133  0.1163 -0.4868
  623POPI   C1A 9931  16.166   7.476   8.759  0.0727 -0.0788 -0.3678
  623POPI   D2A 9932  15.905   7.208   8.444  0.0575 -0.0983  0.0342
  623POPI   C3A 9933  15.808   7.299   8.071  0.1163 -0.1327 -0.2258
  623POPI   C4A 9934  15.689   7.488   7.792  0.0084  0.2638  0.1357
  623POPI   C1B 9935  16.779   7.312   8.853  0.0342  0.0600 -0.4864
  623POPI   C2B 9936  16.855   7.086   8.504  0.4305 -0.2672  0.1863
  623POPI   C3B 9937  16.953   6.809   8.185 -0.2280  0.1868 -0.0222
  623POPI   C4B 9938  17.151   6.696   7.809  0.0780  0.0504  0.1133
  624POPI    C1 9939   0.286   3.662  10.166  0.2155  0.1867  0.1052
  624POPI    C2 9940  -0.034   3.565  10.386  0.1801 -0.1563 -0.0908
  624POPI    C3 9941   0.098   3.942  10.380 -0.1633 -0.0300  0.0652
  624POPI   PO4 9942   0.158   3.461   9.904  0.0035 -0.0268 -0.1347
  624POPI   GL1 9943  -0.024   3.242   9.502 -0.1290  0.4259 -0.1105
  624POPI   GL2 9944  -0.182   2.959   9.532 -0.0827 -0.2470 -0.3368
  624POPI   C1A 9945   0.009   3.450   9.056 -0.0339 -0.2880  0.4612
  624POPI   D2A 9946   0.008   3.696   8.562  0.0510  0.4839 -0.1491
  624POPI   C3A 9947   0.368   3.916   8.495  0.1911 -0.2998  0.0179
  624POPI   C4A 9948   0.329   4.036   8.152 -0.1484 -0.2293 -0.2118
  624POPI   C1B 9949  -0.331   2.991   9.037 -0.0110  0.2179 -0.1402
  624POPI   C2B 9950  -0.279   3.246   8.622  0.1322 -0.1384 -0.2651
  624POPI   C3B 9951  -0.204   3.246   8.246 -0.0984  0.3842  0.0461
  624POPI   C4B 9952  -0.433   3.161   7.775  0.0259 -0.0182  0.2981
  625DPPI    C1 9953  15.532  16.074   9.577 -0.1363 -0.0620 -0.2356
  625DPPI    C2 9954  15.160  15.970   9.679 -0.0501 -0.0873  0.0637
  625DPPI    C3 9955  15.471  15.759   9.816  0.0859  0.0700  0.0006
  625DPPI   PO4 9956  15.527  16.290   9.447  0.2340 -0.2661 -0.2061
  625DPPI   GL1 9957  15.686  16.536   9.115  0.0100  0.0523 -0.2051
  625DPPI   GL2 9958  15.743  16.715   8.941  0.0491  0.0154 -0.0198
  625DPPI   C1A 9959  15.381  16.355   8.830 -0.1579  0.1463  0.1508
  625DPPI   C2A 9960  15.323  16.249   8.418  0.1735  0.0480  0.2568
  625DPPI   C3A 9961  15.268  16.554   7.961  0.0026 -0.1778  0.3065
  625DPPI   C4A 9962  15.198  16.691   7.450 -0.1765  0.0788 -0.1270
  625DPPI   C1B 9963  15.831  16.610   8.573  0.1041  0.2742  0.0902
  625DPPI   C2B 9964  15.733  16.531   8.183  0.0414  0.0119 -0.1933
  625DPPI   C3B 9965  16.030  16.638   7.851  0.0884 -0.1755 -0.2202
  625DPPI   C4B 9966  16.183  17.053   7.660  0.1508  0.3504 -0.0847
  626DPPI    C1 9967  11.315   3.712   9.201  0.0069 -0.1377 -0.2151
  626DPPI    C2 9968  11.664   3.570   9.335 -0.0821 -0.0867  0.0765
  626DPPI    C3 9969  11.321   3.454   9.506 -0.1900  0.0776 -0.0251
  626DPPI   PO4 9970  11.300   3.683   9.010  0.0796  0.1366 -0.0265
  626DPPI   GL1 9971  11.142   3.488   8.684 -0.0245  0.1600  0.2780
  626DPPI   GL2 9972  11.258   3.799   8.519  0.2322 -0.0135 -0.3422
  626DPPI   C1A 9973  11.011   3.456   8.236 -0.1588 -0.1084  0.0542
  626DPPI   C2A 9974  11.072   3.514   7.774  0.0092  0.0528 -0.1327
  626DPPI   C3A 9975  10.894   3.630   7.402  0.2567  0.0778  0.0985
  626DPPI   C4A 9976  10.973   3.567   6.932 -0.0809  0.2439  0.0420
  626DPPI   C1B 9977  11.079   3.936   8.140 -0.2858 -0.0342  0.3342
  626DPPI   C2B 9978  11.066   4.233   7.740 -0.2278  0.0417  0.3147
  626DPPI   C3B 9979  10.738   4.590   7.663  0.1710  0.0584  0.1566
  626DPPI   C4B 9980  10.464   4.688   7.991  0.0511 -0.3276  0.2351
  627DPPI    C1 9981  13.649  10.885  10.386 -0.1309 -0.0145 -0.0054
  627DPPI    C2 9982  13.873  10.942  10.712 -0.2208  0.1737  0.0247
  627DPPI    C3 9983  13.576  10.673  10.718  0.1103 -0.2041 -0.0702
  627DPPI   PO4 9984  13.796  10.767  10.241 -0.0409  0.1316  0.0023
  627DPPI   GL1 9985  13.816  10.695   9.841  0.0573 -0.1645  0.1961
  627DPPI   GL2 9986  13.996  10.598   9.611  0.0598 -0.1256  0.1844
  627DPPI   C1A 9987  13.596  10.875   9.461 -0.2135 -0.0798 -0.0286
  627DPPI   C2A 9988  13.723  10.939   9.049 -0.0667  0.2630 -0.1976
  627DPPI   C3A 9989  13.672  11.032   8.673  0.2700  0.0069 -0.4470
  627DPPI   C4A 9990  13.968  10.953   8.465 -0.0100 -0.3411 -0.2214
  627DPPI   C1B 9991  13.888  10.488   9.109  0.2613 -0.1250 -0.1657
  627DPPI   C2B 9992  13.848  10.539   8.638  0.2076  0.4202 -0.4024
  627DPPI   C3B 9993  13.681  10.619   8.205 -0.2897 -0.1046  0.2921
  627DPPI   C4B 9994  14.058  10.819   7.972 -0.0937 -0.2949 -0.2392
  628DPPI    C1 9995  19.014   2.520  10.039  0.3010  0.0442 -0.1155
  628DPPI    C2 9996  18.807   2.548  10.379  0.3622  0.0337 -0.0772
  628DPPI    C3 9997  19.202   2.609  10.380  0.3125  0.3842 -0.2060
  628DPPI   PO4 9998  18.775   2.550   9.875  0.0930 -0.0795 -0.1178
  628DPPI   GL1 9999  18.712   2.461   9.527 -0.3229 -0.0004  0.1208
  628DPPI   GL210000  18.753   2.102   9.475  0.0058  0.1910 -0.1093
  628DPPI   C1A10001  18.558   2.601   9.135 -0.2098  0.1813 -0.0261
  628DPPI   C2A10002  18.519   2.777   8.670  0.1607  0.0249 -0.1580
  628DPPI   C3A10003  18.562   2.707   8.365 -0.2078 -0.0443 -0.0216
  628DPPI   C4A10004  18.951   2.755   8.097  0.0292 -0.1136 -0.0008
  628DPPI   C1B10005  18.725   2.123   9.063  0.2322 -0.1724  0.0360
  628DPPI   C2B10006  18.884   1.987   8.673  0.0761 -0.0475  0.0425
  628DPPI   C3B10007  19.286   1.962   8.406  0.1867 -0.1274  0.3460
  628DPPI   C4B10008  19.703   2.154   8.185 -0.0012  0.0030 -0.1819
  629DPPI    C110009  15.029  18.759   9.925 -0.1154 -0.0761  0.0646
  629DPPI    C210010  15.194  18.396   9.955 -0.1795 -0.1102  0.0058
  629DPPI    C310011  14.976  18.542  10.257  0.1668  0.0403  0.1884
  629DPPI   PO410012  15.001  18.787   9.688 -0.1124  0.1253 -0.0672
  629DPPI   GL110013  14.932  18.537   9.300 -0.1196 -0.3197  0.0677
  629DPPI   GL210014  15.268  18.662   9.155  0.0597  0.1926 -0.0644
  629DPPI   C1A10015  14.560  18.619   9.025 -0.1549  0.0298 -0.0541
  629DPPI   C2A10016  14.393  18.587   8.661 -0.2175 -0.3033  0.0473
  629DPPI   C3A10017  14.413  18.484   8.232 -0.1777 -0.1415  0.1711
  629DPPI   C4A10018  14.623  18.330   7.874  0.0605  0.1831  0.1671
  629DPPI   C1B10019  15.363  18.770   8.754  0.1132 -0.0263  0.1461
  629DPPI   C2B10020  15.324  18.948   8.367 -0.0592  0.0388  0.2071
  629DPPI   C3B10021  15.432  19.029   7.888 -0.1786 -0.0681  0.2872
  629DPPI   C4B10022  15.887  19.091   7.769  0.1670  0.0061  0.1639
  630DPPI    C110023   8.884  17.471   9.870  0.0696  0.0444 -0.1307
  630DPPI    C210024   9.077  17.136   9.972  0.0341  0.0869  0.0802
  630DPPI    C310025   9.231  17.493  10.068 -0.0171  0.1272  0.0135
  630DPPI   PO410026   8.812  17.470   9.630 -0.1599  0.0830 -0.4221
  630DPPI   GL110027   8.734  17.517   9.247  0.1061  0.0776 -0.1115
  630DPPI   GL210028   8.600  17.294   9.053  0.0829 -0.0216  0.1043
  630DPPI   C1A10029   8.906  17.632   8.863  0.0821  0.1894  0.1265
  630DPPI   C2A10030   8.999  17.602   8.477 -0.1751  0.3557  0.0318
  630DPPI   C3A10031   9.075  17.495   8.093  0.0303 -0.0165 -0.0403
  630DPPI   C4A10032   8.928  17.636   7.682  0.0455  0.3256 -0.0259
  630DPPI   C1B10033   8.607  17.250   8.567 -0.0628 -0.0167 -0.0322
  630DPPI   C2B10034   8.828  17.027   8.255 -0.0614  0.0678  0.2766
  630DPPI   C3B10035   8.798  17.089   7.852  0.0889  0.0109 -0.1008
  630DPPI   C4B10036   9.194  17.217   7.674 -0.0330  0.0310 -0.0697
  631DPPI    C110037  12.261   0.313   9.755  0.0452 -0.2946 -0.0259
  631DPPI    C210038  12.330   0.195  10.131  0.1288 -0.0525  0.0365
  631DPPI    C310039  12.557   0.480   9.966  0.1213 -0.1886 -0.2141
  631DPPI   PO410040  12.309   0.136   9.594  0.1607  0.2656 -0.0207
  631DPPI   GL110041  12.063   0.200   9.231 -0.0645 -0.2710 -0.3350
  631DPPI   GL210042  12.365   0.062   9.097 -0.1136 -0.1819 -0.2165
  631DPPI   C1A10043  11.642   0.221   8.883 -0.1709  0.0380 -0.1942
  631DPPI   C2A10044  11.399   0.077   8.520  0.3773  0.0064  0.1263
  631DPPI   C3A10045  11.205   0.073   8.156  0.2726  0.2646 -0.1069
  631DPPI   C4A10046  11.104  -0.092   7.742 -0.0668  0.1248 -0.0506
  631DPPI   C1B10047  12.574   0.049   8.664  0.1371 -0.3856 -0.1647
  631DPPI   C2B10048  12.689  -0.200   8.441  0.1585  0.0303  0.1897
  631DPPI   C3B10049  12.737  -0.496   8.119  0.2715  0.0991 -0.2781
  631DPPI   C4B10050  12.674  -0.696   7.782 -0.3649  0.0880 -0.2059
  632DPPI    C110051  10.896  10.149  10.212  0.0664  0.0517 -0.2905
  632DPPI    C210052  10.577  10.391  10.220 -0.0485 -0.1027 -0.0943
  632DPPI    C310053  10.798  10.339  10.550  0.1086 -0.0918 -0.1966
  632DPPI   PO410054  11.092  10.205  10.053  0.1399 -0.1400  0.1664
  632DPPI   GL110055  11.276  10.363   9.745 -0.4484 -0.0031 -0.0261
  632DPPI   GL210056  11.137  10.074   9.562 -0.0786  0.1184  0.1762
  632DPPI   C1A10057  11.375  10.426   9.275  0.0980  0.2090 -0.0228
  632DPPI   C2A10058  11.341  10.249   8.894  0.2319 -0.0439 -0.0004
  632DPPI   C3A10059  11.476  10.183   8.421  0.2041  0.2983  0.0176
  632DPPI   C4A10060  11.399  10.230   7.937 -0.0604 -0.0793  0.2363
  632DPPI   C1B10061  11.024  10.048   9.273  0.1476 -0.0474 -0.2242
  632DPPI   C2B10062  11.047   9.749   8.930  0.0057  0.2240  0.3091
  632DPPI   C3B10063  11.121   9.720   8.452  0.3964 -0.0478  0.1321
  632DPPI   C4B10064  11.029   9.806   8.031 -0.2194 -0.0832  0.2035
  633DPPI    C110065   0.612   9.003   9.275  0.0809 -0.1103  0.0023
  633DPPI    C210066   0.316   8.988   9.544  0.0822  0.2085  0.0254
  633DPPI    C310067   0.689   9.070   9.662  0.1612 -0.0736 -0.0200
  633DPPI   PO410068   0.454   8.859   9.120 -0.1058 -0.1121 -0.2823
  633DPPI   GL110069   0.565   8.985   8.759 -0.0960  0.1124  0.2849
  633DPPI   GL210070   0.336   8.881   8.622  0.0568  0.1156  0.3014
  633DPPI   C1A10071   0.876   8.867   8.473  0.2733 -0.1136 -0.1759
  633DPPI   C2A10072   0.744   8.940   7.962 -0.0532  0.0190  0.1041
  633DPPI   C3A10073   0.830   8.942   7.519 -0.1135 -0.1189  0.2119
  633DPPI   C4A10074   0.796   8.857   7.034 -0.2973 -0.1181  0.2982
  633DPPI   C1B10075   0.409   8.833   8.263 -0.1618  0.0477  0.0198
  633DPPI   C2B10076   0.226   8.957   7.811  0.0760 -0.1531  0.0423
  633DPPI   C3B10077   0.372   8.755   7.384 -0.0013  0.2076 -0.0835
  633DPPI   C4B10078   0.125   8.547   7.020  0.2534 -0.0727 -0.0463
  634DPPI    C110079  16.267  13.574   9.976 -0.0541 -0.2479  0.0309
  634DPPI    C210080  16.570  13.426  10.190 -0.1607 -0.2318  0.1950
  634DPPI    C310081  16.200  13.284  10.244 -0.2617  0.0795  0.3416
  634DPPI   PO410082  16.408  13.630   9.708 -0.0792  0.0668 -0.4034
  634DPPI   GL110083  16.466  13.386   9.356 -0.1260  0.1155  0.0258
  634DPPI   GL210084  16.767  13.574   9.191 -0.2078 -0.0273  0.0614
  634DPPI   C1A10085  16.221  13.293   8.983 -0.1814  0.0038  0.1203
  634DPPI   C2A10086  16.334  13.473   8.592 -0.0619  0.1017 -0.3552
  634DPPI   C3A10087  16.393  13.482   8.164  0.0918 -0.0759 -0.0251
  634DPPI   C4A10088  16.415  13.635   7.734  0.0582  0.0885  0.4804
  634DPPI   C1B10089  16.750  13.689   8.824  0.1865  0.0458 -0.0429
  634DPPI   C2B10090  16.650  13.835   8.414  0.1305  0.0303 -0.1231
  634DPPI   C3B10091  16.859  13.768   7.982  0.2980  0.2488 -0.0858
  634DPPI   C4B10092  16.835  13.885   7.546 -0.1083  0.1976 -0.0785
  635PYPI    C110093  16.874   6.081  10.188  0.0333 -0.2072  0.0555
  635PYPI    C210094  17.106   6.317  10.413  0.1460 -0.1457 -0.1239
  635PYPI    C310095  17.169   5.922  10.407  0.2011 -0.1372 -0.1167
  635PYPI   PO410096  16.784   6.233  10.008 -0.2512  0.1698 -0.0391
  635PYPI   GL110097  16.832   6.274   9.642 -0.2404 -0.2251 -0.0124
  635PYPI   GL210098  16.467   6.350   9.663  0.2560  0.1720 -0.1608
  635PYPI   C1A10099  16.785   6.289   9.315  0.2473 -0.3538  0.0072
  635PYPI   C2A10100  16.600   6.272   8.887 -0.1223  0.1233 -0.0176
  635PYPI   D3A10101  16.502   6.135   8.500  0.0191 -0.0674  0.0380
  635PYPI   C4A10102  16.146   6.232   8.308 -0.1694  0.1618 -0.0144
  635PYPI   C1B10103  16.298   6.135   9.239  0.0166 -0.3156  0.0773
  635PYPI   C2B10104  16.106   6.019   8.914 -0.0320 -0.0476 -0.0716
  635PYPI   C3B10105  15.788   5.885   8.607  0.3534 -0.0279 -0.0408
  635PYPI   C4B10106  15.782   5.901   8.158  0.1631 -0.4190 -0.0170
  636PYPI    C110107  15.834   7.539   9.869  0.0622 -0.1109  0.0541
  636PYPI    C210108  15.570   7.716  10.112 -0.0623  0.0116 -0.1670
  636PYPI    C310109  15.947   7.657  10.234 -0.1475 -0.0146  0.0889
  636PYPI   PO410110  15.832   7.612   9.598 -0.2308  0.0620 -0.3101
  636PYPI   GL110111  15.733   7.651   9.238  0.1163  0.1525  0.0018
  636PYPI   GL210112  15.669   7.393   8.999  0.2305  0.0466 -0.1637
  636PYPI   C1A10113  15.805   7.840   8.860  0.0709  0.1830  0.3290
  636PYPI   C2A10114  15.881   7.728   8.393  0.1328  0.2086 -0.0021
  636PYPI   D3A10115  16.024   7.794   8.053  0.1543  0.2614  0.0725
  636PYPI   C4A10116  16.190   8.136   7.881  0.2007  0.1277 -0.0289
  636PYPI   C1B10117  15.501   7.443   8.714  0.2160  0.2083 -0.5165
  636PYPI   C2B10118  15.393   7.370   8.371  0.1736 -0.0514 -0.0237
  636PYPI   C3B10119  15.272   7.032   7.949  0.2031 -0.0693 -0.0821
  636PYPI   C4B10120  15.074   6.825   7.714 -0.2213 -0.1112  0.1307
  637PYPI    C110121  14.697  16.211  10.258 -0.1818  0.1089 -0.0887
  637PYPI    C210122  14.345  16.029  10.207 -0.1090 -0.0534 -0.0195
  637PYPI    C310123  14.463  16.139  10.573  0.0084 -0.1975 -0.0132
  637PYPI   PO410124  14.808  16.083  10.026  0.2373  0.1649  0.0117
  637PYPI   GL110125  14.452  16.050   9.685  0.2648 -0.0661  0.2170
  637PYPI   GL210126  14.717  16.129   9.454 -0.1194 -0.1203  0.1410
  637PYPI   C1A10127  14.311  16.064   9.248  0.0537 -0.0447 -0.1006
  637PYPI   C2A10128  14.428  16.150   8.857  0.1353  0.0559 -0.1820
  637PYPI   D3A10129  14.241  16.180   8.503  0.4146  0.4636 -0.2210
  637PYPI   C4A10130  14.384  16.269   8.212 -0.0797  0.0990 -0.0884
  637PYPI   C1B10131  15.071  15.959   9.147 -0.0491  0.2066  0.0044
  637PYPI   C2B10132  14.905  16.022   8.659  0.3866 -0.0472  0.1140
  637PYPI   C3B10133  14.850  16.003   8.243  0.3230 -0.0621 -0.1898
  637PYPI   C4B10134  14.762  16.267   7.886  0.2285 -0.0972  0.0485
  638PYPI    C110135   8.317   4.525   9.761  0.1836  0.0594  0.1203
  638PYPI    C210136   8.193   4.819  10.001  0.0034  0.0131  0.0856
  638PYPI    C310137   8.238   4.449  10.146  0.1383  0.0369  0.1066
  638PYPI   PO410138   8.223   4.738   9.478  0.1714 -0.0610 -0.2303
  638PYPI   GL110139   8.167   4.766   9.128 -0.0181 -0.0575  0.1881
  638PYPI   GL210140   8.485   4.809   9.034 -0.0178  0.1373  0.2123
  638PYPI   C1A10141   8.048   5.052   8.760 -0.0262 -0.0800  0.0774
  638PYPI   C2A10142   8.040   5.252   8.443 -0.2864  0.0681  0.0938
  638PYPI   D3A10143   7.925   5.342   7.983  0.2826 -0.3521  0.0220
  638PYPI   C4A10144   8.041   5.724   7.744 -0.1081 -0.0506  0.0509
  638PYPI   C1B10145   8.275   4.610   8.606  0.0568  0.1198 -0.2491
  638PYPI   C2B10146   8.051   4.809   8.280 -0.0730  0.2993 -0.1795
  638PYPI   C3B10147   7.764   4.864   8.118 -0.1145 -0.0231  0.3467
  638PYPI   C4B10148   7.464   4.774   7.849 -0.0465  0.0022  0.1303
  639PYPI    C110149   9.830  18.652   9.956 -0.2447  0.4251  0.0921
  639PYPI    C210150   9.660  18.296   9.892  0.0772  0.2943 -0.0567
  639PYPI    C310151   9.723  18.424  10.266 -0.1641  0.2575 -0.0021
  639PYPI   PO410152   9.642  18.775   9.685 -0.1570 -0.1433  0.0009
  639PYPI   GL110153   9.500  18.944   9.387  0.1585 -0.1811  0.0317
  639PYPI   GL210154   9.199  18.740   9.281 -0.1234  0.3730  0.0300
  639PYPI   C1A10155   9.488  18.873   8.908  0.1935 -0.1414 -0.2249
  639PYPI   C2A10156   9.254  19.067   8.613  0.2251 -0.3541  0.0683
  639PYPI   D3A10157   9.311  19.238   8.146 -0.0006  0.0371  0.0554
  639PYPI   C4A10158   9.639  19.018   7.997  0.1235 -0.2836  0.1399
  639PYPI   C1B10159   8.918  18.812   8.869  0.4251 -0.2468  0.1778
  639PYPI   C2B10160   8.813  19.083   8.505 -0.2021  0.0970  0.1973
  639PYPI   C3B10161   8.736  19.055   8.074  0.0788 -0.2675 -0.2446
  639PYPI   C4B10162   8.467  19.210   7.710  0.2325 -0.3693  0.1787
  640PYPI    C110163  13.299   6.396  10.313  0.0136 -0.0263 -0.0693
  640PYPI    C210164  13.686   6.302  10.278 -0.0087 -0.0457 -0.2804
  640PYPI    C310165  13.569   6.571  10.551  0.1666  0.0418 -0.2898
  640PYPI   PO410166  13.141   6.449  10.024  0.1004 -0.0167 -0.0683
  640PYPI   GL110167  12.947   6.636   9.716  0.1282 -0.2057  0.0804
  640PYPI   GL210168  13.341   6.744   9.634  0.1631 -0.0168 -0.3554
  640PYPI   C1A10169  12.677   6.712   9.370  0.0550 -0.1477 -0.0298
  640PYPI   C2A10170  12.664   6.838   9.046  0.0211 -0.0441 -0.1379
  640PYPI   D3A10171  12.712   6.807   8.642  0.0432  0.1294 -0.3391
  640PYPI   C4A10172  12.806   7.065   8.264  0.1369  0.1298 -0.0001
  640PYPI   C1B10173  13.525   7.105   9.423  0.0566 -0.1495  0.2805
  640PYPI   C2B10174  13.526   7.157   8.972  0.2489  0.0093 -0.1224
  640PYPI   C3B10175  13.594   7.277   8.545 -0.1762 -0.2081  0.1479
  640PYPI   C4B10176  13.737   7.438   8.140 -0.2046 -0.2840  0.0362
  641ERGO   ROH10177   9.642   3.414   8.903  0.1151 -0.1349 -0.0669
  641ERGO    R110178   9.495   3.310   8.684 -0.0955  0.0395 -0.0134
  641ERGO    R210179   9.280   3.442   8.573  0.0639  0.3405  0.0164
  641ERGO    R310180   9.422   3.412   8.343 -0.0299  0.0923 -0.0106
  641ERGO    R410181   9.143   3.367   8.264 -0.0774  0.2256  0.1067
  641ERGO    R510182   9.311   3.233   8.228 -0.1816  0.0911  0.1410
  641ERGO    C110183   9.196   3.295   7.869 -0.2478 -0.0744  0.1341
  641ERGO    C210184   9.231   3.127   7.562 -0.2012 -0.3209  0.0369
  642ERGO   ROH10185  13.026   1.362   8.932  0.3843 -0.2218  0.0675
  642ERGO    R110186  13.064   1.518   8.698  0.1724 -0.1654  0.0685
  642ERGO    R210187  13.250   1.722   8.684  0.0658 -0.0679 -0.0081
  642ERGO    R310188  13.336   1.584   8.466  0.0073  0.0049 -0.0771
  642ERGO    R410189  13.427   1.859   8.421  0.0556 -0.0030  0.0189
  642ERGO    R510190  13.309   1.738   8.284  0.0144  0.0792 -0.0115
  642ERGO    C110191  13.611   1.810   8.063 -0.0054  0.1031 -0.0301
  642ERGO    C210192  13.745   1.808   7.787  0.1496 -0.0356 -0.0570
  643ERGO   ROH10193  16.359  14.563   9.307  0.2352 -0.1639 -0.0622
  643ERGO    R110194  16.359  14.702   9.060  0.2391 -0.0690 -0.0081
  643ERGO    R210195  16.588  14.815   8.953  0.2861 -0.2326 -0.0701
  643ERGO    R310196  16.522  14.665   8.736  0.0507 -0.0868 -0.1042
  643ERGO    R410197  16.627  14.914   8.625  0.4710 -0.2191 -0.0457
  643ERGO    R510198  16.435  14.823   8.579  0.3136  0.0988 -0.0768
  643ERGO    C110199  16.588  14.831   8.230  0.3579 -0.0744 -0.0636
  643ERGO    C210200  16.760  14.804   7.830  0.1895 -0.3449  0.0673
  644ERGO   ROH10201   6.069  13.087   9.018  0.0314 -0.2407 -0.0318
  644ERGO    R110202   6.032  12.949   8.774  0.2355 -0.0734 -0.1603
  644ERGO    R210203   5.820  13.002   8.605  0.1364 -0.2516 -0.0869
  644ERGO    R310204   6.017  13.036   8.420  0.0706  0.2400 -0.0822
  644ERGO    R410205   5.776  12.980   8.262  0.1829 -0.3306 -0.0888
  644ERGO    R510206   5.967  12.875   8.250  0.4510  0.1201 -0.0958
  644ERGO    C110207   5.936  13.000   7.890  0.1483  0.0848 -0.0856
  644ERGO    C210208   5.892  12.850   7.516  0.0260  0.3858 -0.0281
  645ERGO   ROH10209   0.140  19.127   9.843 -0.1407  0.1162 -0.0734
  645ERGO    R110210   0.170  19.171   9.565 -0.0770  0.1079 -0.0681
  645ERGO    R210211   0.405  19.264   9.453 -0.0278  0.0345 -0.0259
  645ERGO    R310212   0.380  19.042   9.298 -0.0695  0.0425 -0.0307
  645ERGO    R410213   0.462  19.254   9.113 -0.0613  0.0378 -0.0316
  645ERGO    R510214   0.289  19.124   9.092 -0.0789  0.0599 -0.0194
  645ERGO    C110215   0.472  19.041   8.768 -0.1199  0.0474 -0.0395
  645ERGO    C210216   0.689  19.111   8.475  0.0711  0.4672  0.0727
  646ERGO   ROH10217   5.607   9.217   9.313 -0.1334 -0.0255  0.1106
  646ERGO    R110218   5.600   9.122   9.046 -0.0002 -0.1087  0.1360
  646ERGO    R210219   5.445   9.240   8.850 -0.0616 -0.2950  0.0717
  646ERGO    R310220   5.681   9.253   8.717 -0.0445 -0.1341  0.1147
  646ERGO    R410221   5.478   9.322   8.516 -0.0557 -0.2446  0.0844
  646ERGO    R510222   5.631   9.167   8.499  0.0469 -0.1483  0.0978
  646ERGO    C110223   5.720   9.382   8.196 -0.0361 -0.0642  0.1322
  646ERGO    C210224   5.867   9.510   8.001 -0.0251  0.1320  0.0594
  647ERGO   ROH10225  18.650  17.052   9.411 -0.0930  0.0238  0.0641
  647ERGO    R110226  18.722  17.271   9.246 -0.0286 -0.0325  0.0177
  647ERGO    R210227  18.886  17.242   9.025 -0.0142 -0.1230  0.0400
  647ERGO    R310228  18.679  17.364   8.897  0.0252 -0.1074 -0.0090
  647ERGO    R410229  18.889  17.339   8.693  0.0500 -0.1722  0.0257
  647ERGO    R510230  18.784  17.522   8.751  0.0723 -0.1467 -0.0171
  647ERGO    C110231  18.697  17.510   8.380  0.1244 -0.1865 -0.0285
  647ERGO    C210232  18.870  17.414   8.046  0.0711  0.2475 -0.0592
  648ERGO   ROH10233  18.068  10.847   9.255  0.2165 -0.0619  0.0132
  648ERGO    R110234  17.936  10.933   9.020  0.1089 -0.2138  0.0152
  648ERGO    R210235  18.003  11.167   8.889 -0.1122 -0.1676 -0.0338
  648ERGO    R310236  18.028  11.002   8.675  0.0097 -0.1865 -0.0038
  648ERGO    R410237  17.943  11.258   8.561 -0.2809 -0.3118 -0.0439
  648ERGO    R510238  17.849  11.064   8.529 -0.0838 -0.4117  0.0208
  648ERGO    C110239  17.933  11.156   8.169 -0.2646 -0.4135 -0.0214
  648ERGO    C210240  18.072  11.183   7.810  0.0004  0.0570  0.1724
  649ERGO   ROH10241  13.275  16.871   9.373  0.2888  0.0426 -0.0809
  649ERGO    R110242  13.355  16.941   9.111  0.2169 -0.0586 -0.1311
  649ERGO    R210243  13.429  16.753   8.923  0.0600 -0.1402 -0.1153
  649ERGO    R310244  13.238  16.876   8.773  0.0535 -0.0936 -0.0683
  649ERGO    R410245  13.310  16.637   8.620 -0.0879 -0.1396 -0.0576
  649ERGO    R510246  13.308  16.842   8.547 -0.0381 -0.1518 -0.0870
  649ERGO    C110247  13.061  16.684   8.303 -0.1801 -0.0954  0.0199
  649ERGO    C210248  12.850  16.370   8.061 -0.0965 -0.0095 -0.1436
  650ERGO   ROH10249   0.121   5.843   8.967 -0.1152 -0.1572 -0.2395
  650ERGO    R110250   0.024   6.082   8.850 -0.0648 -0.0941 -0.1481
  650ERGO    R210251   0.176   6.311   8.831  0.0014 -0.1526 -0.1228
  650ERGO    R310252   0.112   6.293   8.567 -0.0753 -0.0386 -0.1160
  650ERGO    R410253   0.270   6.539   8.589  0.0237 -0.0771 -0.0459
  650ERGO    R510254   0.072   6.519   8.500 -0.0217  0.0163 -0.0083
  650ERGO    C110255   0.265   6.655   8.201 -0.0352  0.0741  0.0053
  650ERGO    C210256   0.371   6.806   7.924 -0.1874  0.4414 -0.1084
  651ERGO   ROH10257  10.528  14.885   9.314 -0.1064 -0.2721 -0.0367
  651ERGO    R110258  10.497  14.726   9.082 -0.1027 -0.1503 -0.1220
  651ERGO    R210259  10.444  14.836   8.833 -0.0721 -0.0161 -0.0749
  651ERGO    R310260  10.664  14.693   8.760 -0.0783  0.0013 -0.1245
  651ERGO    R410261  10.545  14.779   8.507 -0.2870 -0.2380 -0.1052
  651ERGO    R510262  10.597  14.575   8.563 -0.1799 -0.1749  0.0160
  651ERGO    C110263  10.810  14.613   8.249 -0.4178 -0.3510 -0.1694
  651ERGO    C210264  10.978  14.432   8.004  0.1924 -0.1007 -0.4730
  652ERGO   ROH10265   7.171   6.824   9.239 -0.2305 -0.0253 -0.1540
  652ERGO    R110266   7.347   6.809   9.018 -0.1060  0.0498 -0.0607
  652ERGO    R210267   7.280   6.681   8.782  0.0960 -0.0308 -0.0754
  652ERGO    R310268   7.347   6.921   8.672  0.0033 -0.0063 -0.0796
  652ERGO    R410269   7.239   6.763   8.449 -0.1140  0.0138 -0.0401
  652ERGO    R510270   7.432   6.864   8.455 -0.1199  0.0346 -0.1407
  652ERGO    C110271   7.278   7.035   8.151 -0.3234  0.0628 -0.0235
  652ERGO    C210272   7.283   6.893   7.780 -0.1537  0.0327 -0.2286
  653ERGO   ROH10273  12.021  15.752   9.435 -0.0812  0.0924 -0.1541
  653ERGO    R110274  12.055  15.795   9.158  0.0541  0.0308 -0.1476
  653ERGO    R210275  12.280  15.916   9.053  0.2052 -0.1927 -0.0850
  653ERGO    R310276  12.291  15.690   8.901  0.0443 -0.2205 -0.0572
  653ERGO    R410277  12.326  15.910   8.710  0.0875 -0.2619 -0.1003
  653ERGO    R510278  12.179  15.750   8.698  0.0040 -0.1933 -0.0282
  653ERGO    C110279  12.362  15.695   8.368 -0.1320 -0.3282 -0.0832
  653ERGO    C210280  12.506  15.554   7.956 -0.0221  0.1469  0.0217
  654ERGO   ROH10281   1.186   7.904   9.213 -0.1263  0.1484  0.0894
  654ERGO    R110282   1.180   7.832   8.939 -0.0672  0.0232  0.1194
  654ERGO    R210283   0.984   7.923   8.766 -0.1325 -0.1957  0.0721
  654ERGO    R310284   1.198   8.006   8.620 -0.1886 -0.1011  0.0446
  654ERGO    R410285   0.978   7.983   8.426 -0.1866 -0.2529  0.0632
  654ERGO    R510286   1.175   7.891   8.411 -0.1373 -0.1456  0.0653
  654ERGO    C110287   1.175   8.097   8.091 -0.2707 -0.1974  0.0322
  654ERGO    C210288   1.223   8.329   7.872 -0.4434 -0.0503  0.2740
  655ERGO   ROH10289  10.586  15.387   9.496 -0.0579 -0.0532  0.0146
  655ERGO    R110290  10.663  15.382   9.223 -0.0329  0.0038  0.0204
  655ERGO    R210291  10.549  15.210   9.040  0.1024 -0.0765  0.0092
  655ERGO    R310292  10.501  15.439   8.902 -0.0502 -0.1072  0.0095
  655ERGO    R410293  10.575  15.243   8.697  0.1767 -0.0297  0.0189
  655ERGO    R510294  10.665  15.439   8.727  0.0019  0.0444  0.0585
  655ERGO    C110295  10.544  15.477   8.368  0.0768 -0.0312  0.0248
  655ERGO    C210296  10.529  15.552   8.056 -0.3684  0.2983 -0.4876
  656ERGO   ROH10297  12.248   2.217   8.906 -0.1192  0.1723 -0.0106
  656ERGO    R110298  12.259   2.129   8.638 -0.0550  0.0481  0.0317
  656ERGO    R210299  12.177   1.877   8.560 -0.1620  0.0575  0.1083
  656ERGO    R310300  12.021   2.016   8.386 -0.0131  0.0692 -0.0173
  656ERGO    R410301  12.046   1.748   8.267 -0.2154 -0.0359  0.1731
  656ERGO    R510302  12.091   1.939   8.170 -0.0371 -0.1395  0.0484
  656ERGO    C110303  11.823   1.804   7.933 -0.1068 -0.0792  0.0930
  656ERGO    C210304  11.611   1.498   7.789  0.2402 -0.3220  0.1779
  657ERGO   ROH10305  11.135   4.236   8.918 -0.0726  0.0578 -0.0855
  657ERGO    R110306  11.128   4.259   8.636  0.0695  0.0350 -0.0931
  657ERGO    R210307  10.923   4.386   8.502  0.0373 -0.1343 -0.2210
  657ERGO    R310308  11.126   4.529   8.393 -0.0099  0.0220 -0.1047
  657ERGO    R410309  10.923   4.519   8.183  0.1271 -0.1368 -0.2210
  657ERGO    R510310  11.131   4.461   8.163  0.1802  0.0266 -0.0990
  657ERGO    C110311  11.114   4.731   7.895  0.1350  0.0085 -0.1118
  657ERGO    C210312  11.163   4.934   7.504  0.1395 -0.2123  0.3035
  658ERGO   ROH10313  17.693   0.212   9.682  0.1153  0.3187  0.1215
  658ERGO    R110314  17.685   0.188   9.400  0.0662  0.0201  0.1451
  658ERGO    R210315  17.662   0.407   9.233 -0.0893 -0.1645 -0.0788
  658ERGO    R310316  17.885   0.302   9.119 -0.0572 -0.1621 -0.0203
  658ERGO    R410317  17.774   0.480   8.914  0.0779 -0.0397  0.0060
  658ERGO    R510318  17.825   0.270   8.889  0.0423 -0.0424 -0.0666
  658ERGO    C110319  18.048   0.424   8.621  0.2052  0.0352  0.1101
  658ERGO    C210320  18.249   0.331   8.249 -0.1675 -0.0432 -0.2618
  659ERGO   ROH10321   1.669   4.100   9.356  0.0372  0.1601  0.0204
  659ERGO    R110322   1.619   3.973   9.109  0.0221  0.1834  0.0125
  659ERGO    R210323   1.364   3.921   9.017  0.0223 -0.0188  0.1345
  659ERGO    R310324   1.450   4.057   8.797 -0.2160  0.1162  0.1199
  659ERGO    R410325   1.255   3.863   8.694  0.0646 -0.2043  0.1515
  659ERGO    R510326   1.461   3.891   8.625  0.0231  0.1185  0.1239
  659ERGO    C110327   1.273   3.957   8.300 -0.1345 -0.1856  0.1477
  659ERGO    C210328   1.135   3.915   7.964 -0.1475  0.0463 -0.0203
  660ERGO   ROH10329   4.025   0.751   9.837 -0.1419 -0.3369 -0.1424
  660ERGO    R110330   4.131   0.647   9.596  0.0620 -0.1138 -0.1532
  660ERGO    R210331   4.020   0.700   9.349  0.0336 -0.2007 -0.1576
  660ERGO    R310332   4.272   0.781   9.289 -0.0658  0.1847 -0.0855
  660ERGO    R410333   4.140   0.748   9.029  0.0374  0.0275 -0.1237
  660ERGO    R510334   4.329   0.658   9.092  0.1633  0.2936 -0.0936
  660ERGO    C110335   4.448   0.853   8.786 -0.0536  0.5220 -0.0362
  660ERGO    C210336   4.449   1.006   8.541  0.4776  0.1962 -0.0487
  661ERGO   ROH10337   5.200  17.642   9.498  0.1230  0.0740  0.0595
  661ERGO    R110338   5.151  17.574   9.227  0.0005 -0.0106  0.1022
  661ERGO    R210339   5.032  17.749   9.049  0.0141 -0.0301  0.0783
  661ERGO    R310340   5.254  17.699   8.901 -0.0594 -0.1818  0.0157
  661ERGO    R410341   5.062  17.809   8.710 -0.0508 -0.0672  0.0653
  661ERGO    R510342   5.170  17.622   8.691 -0.1749 -0.1413  0.0439
  661ERGO    C110343   5.288  17.798   8.374 -0.1576 -0.2315 -0.0010
  661ERGO    C210344   5.462  17.774   8.110  0.1527  0.1038 -0.1247
  662ERGO   ROH10345   2.628   0.068   9.837  0.2212 -0.1385 -0.0694
  662ERGO    R110346   2.619   0.041   9.556  0.3311 -0.0522 -0.0813
  662ERGO    R210347   2.492   0.225   9.393  0.0418 -0.2105 -0.0376
  662ERGO    R310348   2.734   0.232   9.268  0.0635  0.2606  0.0127
  662ERGO    R410349   2.540   0.316   9.063 -0.1020 -0.3111 -0.0872
  662ERGO    R510350   2.687   0.155   9.046  0.2796  0.0032  0.0496
  662ERGO    C110351   2.794   0.376   8.753 -0.1653  0.0726 -0.0689
  662ERGO    C210352   2.625   0.444   8.394 -0.3598 -0.0375 -0.0342
  663ERGO   ROH10353   3.115   4.096   9.895  0.0989 -0.2233  0.2495
  663ERGO    R110354   3.217   4.109   9.631 -0.0852 -0.1424  0.1798
  663ERGO    R210355   3.487   4.110   9.577 -0.1165  0.1024  0.0006
  663ERGO    R310356   3.424   3.899   9.417 -0.0323  0.0341  0.0571
  663ERGO    R410357   3.634   4.044   9.271 -0.3082  0.2542 -0.1262
  663ERGO    R510358   3.437   3.988   9.194 -0.3163  0.0468  0.0435
  663ERGO    C110359   3.660   3.807   8.943 -0.3407  0.2784 -0.1470
  663ERGO    C210360   3.727   3.707   8.619  0.0999 -0.0612  0.0476
  664ERGO   ROH10361   7.619   2.776   9.014  0.2254  0.0951 -0.0620
  664ERGO    R110362   7.552   2.680   8.756  0.3445 -0.0659 -0.0334
  664ERGO    R210363   7.696   2.481   8.630  0.2450 -0.3327  0.2695
  664ERGO    R310364   7.452   2.362   8.610  0.1331 -0.0958  0.1681
  664ERGO    R410365   7.604   2.258   8.382  0.1195 -0.2102  0.2036
  664ERGO    R510366   7.409   2.354   8.375  0.2095 -0.0177  0.1480
  664ERGO    C110367   7.322   2.017   8.219 -0.0585  0.0835  0.0700
  664ERGO    C210368   7.368   1.753   7.993  0.1671  0.4155 -0.4149
  665ERGO   ROH10369   3.011  15.876   9.490 -0.2111 -0.3055 -0.0999
  665ERGO    R110370   3.111  15.739   9.264 -0.1784 -0.2304 -0.1321
  665ERGO    R210371   2.950  15.658   9.054 -0.1459 -0.1412 -0.1955
  665ERGO    R310372   3.129  15.798   8.905 -0.1059 -0.0978 -0.1065
  665ERGO    R410373   2.991  15.626   8.713 -0.0734 -0.0129 -0.1991
  665ERGO    R510374   3.206  15.640   8.742 -0.0815 -0.0383 -0.1493
  665ERGO    C110375   3.184  15.738   8.374  0.0064  0.1025 -0.1176
  665ERGO    C210376   2.974  15.846   8.138  0.2714 -0.2943  0.2137
  666ERGO   ROH10377  13.840   2.614   8.700  0.0355 -0.1346 -0.0209
  666ERGO    R110378  13.983   2.705   8.472 -0.1009  0.0291 -0.0418
  666ERGO    R210379  14.073   2.534   8.275  0.2904  0.0930  0.0777
  666ERGO    R310380  13.935   2.701   8.112 -0.0249 -0.2762 -0.0522
  666ERGO    R410381  14.154   2.598   7.946  0.1975  0.0268  0.0405
  666ERGO    R510382  14.104   2.808   7.979 -0.2113 -0.0350 -0.1068
  666ERGO    C110383  14.072   2.792   7.600 -0.1527 -0.3584 -0.1032
  666ERGO    C210384  14.224   2.740   7.280 -0.1278 -0.0208 -0.0516
  667ERGO   ROH10385   6.689  18.631   9.511 -0.2576  0.4226  0.0122
  667ERGO    R110386   6.759  18.569   9.244  0.0180  0.2172  0.1284
  667ERGO    R210387   6.638  18.688   9.026  0.1422 -0.0508 -0.0903
  667ERGO    R310388   6.894  18.748   8.957  0.1717  0.0313  0.0812
  667ERGO    R410389   6.732  18.837   8.729  0.3138 -0.2870 -0.1575
  667ERGO    R510390   6.904  18.702   8.722  0.4054 -0.1973  0.1283
  667ERGO    C110391   7.028  18.979   8.491  0.4415 -0.3474 -0.0359
  667ERGO    C210392   7.220  19.020   8.164  0.0677 -0.3564 -0.3114
  668ERGO   ROH10393   1.716   8.826   9.067 -0.0975 -0.1786  0.0502
  668ERGO    R110394   1.638   8.909   8.808 -0.0267 -0.0512  0.0682
  668ERGO    R210395   1.796   9.072   8.650  0.0491 -0.0290  0.1618
  668ERGO    R310396   1.766   8.871   8.469  0.0268  0.0508  0.0773
  668ERGO    R410397   1.900   9.086   8.321  0.1868  0.0398  0.2080
  668ERGO    R510398   1.716   8.984   8.263  0.1624  0.1473  0.0975
  668ERGO    C110399   1.932   8.906   7.959  0.2462  0.1548  0.1556
  668ERGO    C210400   2.040   8.765   7.523 -0.0724 -0.2188 -0.1637
  669ERGO   ROH10401   7.472  17.270   9.129 -0.1533 -0.0105  0.0709
  669ERGO    R110402   7.401  17.436   8.911  0.0244  0.0182  0.0324
  669ERGO    R210403   7.498  17.394   8.655 -0.0106 -0.1396  0.0395
  669ERGO    R310404   7.234  17.393   8.590 -0.0132  0.1201  0.0395
  669ERGO    R410405   7.372  17.450   8.338  0.0295  0.0917  0.0634
  669ERGO    R510406   7.212  17.568   8.428  0.1367  0.1994  0.1067
  669ERGO    C110407   7.051  17.482   8.093  0.0505  0.4704  0.0773
  669ERGO    C210408   6.812  17.686   7.840  0.4184 -0.1153  0.1570
  670ERGO   ROH10409  17.733   6.783   9.319  0.1936 -0.2835 -0.0453
  670ERGO    R110410  17.795   6.548   9.172  0.0913 -0.1899 -0.2428
  670ERGO    R210411  17.619   6.435   8.992 -0.0619 -0.1056 -0.1519
  670ERGO    R310412  17.830   6.457   8.822 -0.2188  0.0243 -0.3332
  670ERGO    R410413  17.623   6.321   8.666 -0.1683 -0.3694 -0.0636
  670ERGO    R510414  17.827   6.253   8.696 -0.0563 -0.0838 -0.1623
  670ERGO    C110415  17.822   6.276   8.316 -0.3775 -0.4012 -0.1822
  670ERGO    C210416  17.976   6.256   8.042 -0.1326  0.0578 -0.0111
  671ERGO   ROH10417   8.384   8.915   9.284 -0.1584 -0.0807 -0.1940
  671ERGO    R110418   8.531   8.739   9.118 -0.0652 -0.0322 -0.1645
  671ERGO    R210419   8.409   8.570   8.936  0.0229 -0.1225 -0.1438
  671ERGO    R310420   8.578   8.691   8.760 -0.0340 -0.0607 -0.1560
  671ERGO    R410421   8.524   8.428   8.642  0.0811 -0.0889 -0.1372
  671ERGO    R510422   8.720   8.514   8.683  0.0423 -0.0009 -0.1481
  671ERGO    C110423   8.749   8.459   8.307  0.0615 -0.0115 -0.1446
  671ERGO    C210424   8.682   8.374   8.029  0.2265 -0.1033  0.2237
  672ERGO   ROH10425  18.456  12.536   9.258  0.2178  0.2012 -0.0709
  672ERGO    R110426  18.293  12.509   9.029  0.1477  0.0153 -0.0002
  672ERGO    R210427  18.218  12.724   8.873 -0.0944 -0.0805 -0.0176
  672ERGO    R310428  18.324  12.574   8.673 -0.0506 -0.0349 -0.0286
  672ERGO    R410429  18.140  12.759   8.538 -0.2817 -0.2250  0.0088
  672ERGO    R510430  18.142  12.542   8.520 -0.0965 -0.2322  0.0613
  672ERGO    C110431  18.195  12.640   8.155 -0.3497 -0.2665  0.0138
  672ERGO    C210432  18.184  12.479   7.930  0.1658  0.0722  0.1338
  673ERGO   ROH10433  14.324   7.747   9.506 -0.2337  0.3980  0.0478
  673ERGO    R110434  14.444   7.680   9.258 -0.1477  0.2117  0.1379
  673ERGO    R210435  14.298   7.649   9.026 -0.0632  0.0668  0.1043
  673ERGO    R310436  14.474   7.833   8.929 -0.0063 -0.0205  0.0401
  673ERGO    R410437  14.328   7.738   8.693 -0.0481 -0.0486  0.0742
  673ERGO    R510438  14.545   7.742   8.719 -0.0441 -0.1114  0.0649
  673ERGO    C110439  14.511   7.962   8.409  0.0142 -0.1978 -0.0034
  673ERGO    C210440  14.620   8.193   8.142  0.0280  0.2387 -0.0471
  674PSPI    C110441   5.857  17.501   5.388 -0.0145 -0.3391 -0.0352
  674PSPI    C210442   5.902  17.519   4.991  0.1494  0.0167 -0.0048
  674PSPI    C310443   6.138  17.280   5.208  0.1062 -0.1256 -0.1120
  674PSPI   PO410444   5.873  17.799   5.464  0.0613  0.0019 -0.1419
  674PSPI   GL110445   5.718  18.024   5.832  0.0475 -0.0259 -0.0764
  674PSPI   GL210446   5.964  17.886   5.985  0.2999  0.1367 -0.2527
  674PSPI   C1A10447   5.369  18.106   6.184  0.1158  0.0766 -0.2518
  674PSPI   C2A10448   5.427  18.254   6.575 -0.1399  0.2640 -0.0075
  674PSPI   C3A10449   5.543  18.487   6.992  0.0871 -0.1641  0.0141
  674PSPI   C4A10450   5.628  18.460   7.470 -0.0467  0.2818 -0.0853
  674PSPI   C1B10451   5.982  17.955   6.384  0.1050  0.1739  0.0819
  674PSPI   C2B10452   5.951  17.941   6.839  0.1980 -0.0896 -0.1468
  674PSPI   C3B10453   5.759  17.970   7.257 -0.2066  0.1055 -0.0804
  674PSPI   C4B10454   5.344  18.053   7.565  0.0049  0.0154  0.1659
  675PSPI    C110455   6.856   3.279   5.471  0.0544  0.1807  0.1389
  675PSPI    C210456   6.680   3.638   5.494 -0.2068  0.0615  0.0487
  675PSPI    C310457   6.697   3.446   5.144 -0.1749 -0.0672  0.1201
  675PSPI   PO410458   7.081   3.274   5.635  0.2496 -0.0833  0.3431
  675PSPI   GL110459   7.092   3.551   5.925  0.0759  0.0443 -0.1864
  675PSPI   GL210460   6.787   3.443   5.995  0.1236 -0.2140  0.1024
  675PSPI   C1A10461   7.162   3.634   6.397  0.0427  0.0753  0.0537
  675PSPI   C2A10462   6.999   3.493   6.870  0.2012 -0.0581 -0.0056
  675PSPI   C3A10463   6.907   3.267   7.145  0.1663  0.0300 -0.0739
  675PSPI   C4A10464   7.001   2.822   7.263 -0.0013 -0.1201 -0.1978
  675PSPI   C1B10465   6.751   3.386   6.444 -0.0495 -0.0041  0.0891
  675PSPI   C2B10466   6.760   3.055   6.699 -0.0626 -0.2295  0.3007
  675PSPI   C3B10467   6.541   2.857   7.028  0.0678 -0.3163  0.1041
  675PSPI   C4B10468   6.203   3.122   7.217 -0.4117  0.0606 -0.1077
  676PSPI    C110469   8.346  13.014   5.150  0.0141 -0.0770 -0.1913
  676PSPI    C210470   8.260  13.402   5.200 -0.2519 -0.1659  0.0763
  676PSPI    C310471   8.282  13.247   4.832  0.1343  0.1600 -0.0454
  676PSPI   PO410472   8.671  13.033   5.335 -0.2879 -0.2907  0.3890
  676PSPI   GL110473   8.780  13.067   5.852  0.1557 -0.0275 -0.0483
  676PSPI   GL210474   8.961  12.825   5.998  0.2776 -0.3061 -0.1636
  676PSPI   C1A10475   8.706  13.369   6.164  0.1878  0.1901  0.1200
  676PSPI   C2A10476   8.465  13.476   6.501  0.3946  0.1195 -0.3547
  676PSPI   C3A10477   8.242  13.594   6.847 -0.2283  0.2533  0.1156
  676PSPI   C4A10478   8.518  13.919   7.131  0.2811 -0.0566  0.1044
  676PSPI   C1B10479   8.890  13.037   6.475 -0.0198 -0.0045 -0.0006
  676PSPI   C2B10480   8.887  13.251   6.808  0.0812 -0.3005 -0.1096
  676PSPI   C3B10481   8.727  13.430   7.078 -0.1829 -0.0076 -0.0958
  676PSPI   C4B10482   8.416  13.504   7.332  0.3000 -0.0377  0.1806
  677PSPI    C110483   5.557   5.337   5.149  0.1827  0.0470  0.2117
  677PSPI    C210484   5.850   5.516   4.945  0.0687  0.0842  0.0797
  677PSPI    C310485   5.579   5.294   4.752 -0.0981  0.2015  0.1772
  677PSPI   PO410486   5.708   5.242   5.400 -0.0530 -0.3574 -0.0968
  677PSPI   GL110487   5.621   5.466   5.812  0.1386 -0.1132  0.0689
  677PSPI   GL210488   5.961   5.297   5.814  0.0795 -0.1772 -0.3586
  677PSPI   C1A10489   5.371   5.516   6.071 -0.0093 -0.0730  0.2293
  677PSPI   C2A10490   5.163   5.358   6.413  0.1109  0.0637  0.0953
  677PSPI   C3A10491   4.988   5.465   6.757  0.0426 -0.0154 -0.4252
  677PSPI   C4A10492   4.977   5.758   7.139 -0.1697  0.1384 -0.1211
  677PSPI   C1B10493   6.313   5.340   6.145 -0.0924  0.0833  0.0886
  677PSPI   C2B10494   6.682   5.574   6.258 -0.1923 -0.1242  0.1387
  677PSPI   C3B10495   6.898   5.656   6.703  0.1908 -0.1851  0.1520
  677PSPI   C4B10496   6.772   5.593   7.088  0.0628 -0.3429  0.0355
  678PSPI    C110497   9.426   9.221   5.312  0.1959  0.1287 -0.4701
  678PSPI    C210498   9.225   8.879   5.264 -0.0465  0.2241 -0.1681
  678PSPI    C310499   9.624   8.882   5.234 -0.0178 -0.1404  0.1022
  678PSPI   PO410500   9.396   9.338   5.565 -0.0290  0.0296 -0.0832
  678PSPI   GL110501   9.604   9.245   6.002  0.2763  0.0447 -0.1900
  678PSPI   GL210502   9.346   9.444   6.092  0.2091 -0.0234  0.0704
  678PSPI   C1A10503   9.542   9.125   6.470 -0.0177  0.1531  0.2130
  678PSPI   C2A10504   9.371   9.483   6.694  0.0231  0.3250 -0.1930
  678PSPI   C3A10505   9.323   9.854   6.510  0.0394 -0.0236  0.0551
  678PSPI   C4A10506   9.347  10.063   6.027 -0.0252  0.1915 -0.1729
  678PSPI   C1B10507   9.751   9.621   6.300  0.1715  0.0961 -0.3398
  678PSPI   C2B10508   9.952   9.334   6.627  0.2459  0.5537  0.1327
  678PSPI   C3B10509   9.745   9.155   6.946 -0.1527  0.4110  0.2136
  678PSPI   C4B10510   9.526   9.135   7.326  0.0342 -0.3777 -0.1154
  679PSPI    C110511   3.633  11.471   4.767  0.2375 -0.1141 -0.1233
  679PSPI    C210512   3.319  11.470   4.518  0.1993  0.0476 -0.0775
  679PSPI    C310513   3.444  11.128   4.686 -0.1362  0.0247  0.1344
  679PSPI   PO410514   3.549  11.736   4.938  0.4154 -0.1222 -0.0400
  679PSPI   GL110515   3.545  11.654   5.431 -0.0526 -0.2564 -0.2246
  679PSPI   GL210516   3.815  11.416   5.268  0.0060  0.1649  0.1321
  679PSPI   C1A10517   3.524  11.536   5.842 -0.3042 -0.0288  0.1478
  679PSPI   C2A10518   3.304  11.819   6.060 -0.2762 -0.2705 -0.0347
  679PSPI   C3A10519   3.172  11.745   6.406  0.1651  0.2899 -0.0524
  679PSPI   C4A10520   2.905  11.483   6.579 -0.1121 -0.1232 -0.3192
  679PSPI   C1B10521   4.135  11.383   5.597  0.2614 -0.1155  0.2611
  679PSPI   C2B10522   4.126  11.268   6.039  0.2305  0.1682 -0.2841
  679PSPI   C3B10523   4.061  10.879   6.275  0.1149  0.1199  0.0792
  679PSPI   C4B10524   4.109  10.534   6.630 -0.0593  0.0668  0.2426
  680PSPI    C110525  13.591   8.516   5.376 -0.2691 -0.1609 -0.0233
  680PSPI    C210526  13.772   8.637   5.041 -0.0004 -0.0160  0.1701
  680PSPI    C310527  13.394   8.507   5.028  0.0650 -0.1817 -0.2161
  680PSPI   PO410528  13.585   8.710   5.594  0.3784 -0.1387 -0.1430
  680PSPI   GL110529  13.934   8.935   5.939  0.0625  0.3594 -0.0120
  680PSPI   GL210530  14.197   9.255   6.056  0.1697  0.3625  0.1815
  680PSPI   C1A10531  14.035   8.875   6.427 -0.0902 -0.1901 -0.1777
  680PSPI   C2A10532  13.932   8.609   6.748  0.0896  0.0824 -0.1891
  680PSPI   C3A10533  14.109   8.554   7.171  0.1500 -0.1470 -0.3682
  680PSPI   C4A10534  14.297   8.282   7.299  0.0089 -0.0190 -0.1344
  680PSPI   C1B10535  14.426   9.183   6.384  0.3481  0.0553 -0.0701
  680PSPI   C2B10536  14.714   9.426   6.702 -0.1462 -0.0126  0.4578
  680PSPI   C3B10537  14.589   9.293   7.099 -0.2903 -0.1866 -0.2211
  680PSPI   C4B10538  14.558   9.333   7.489 -0.3699 -0.4008  0.0722
  681PSPI    C110539   2.096  12.429   5.266  0.1371  0.1444  0.1877
  681PSPI    C210540   1.961  12.378   5.639  0.0506 -0.0243  0.1343
  681PSPI    C310541   1.849  12.699   5.428 -0.0984 -0.0550  0.1659
  681PSPI   PO410542   2.379  12.436   5.265  0.2981 -0.0565 -0.0201
  681PSPI   GL110543   2.436  12.659   5.640 -0.0440  0.1020  0.1920
  681PSPI   GL210544   2.746  12.437   5.546  0.1895 -0.1829 -0.1747
  681PSPI   C1A10545   2.317  12.401   6.019  0.5079 -0.1497 -0.1542
  681PSPI   C2A10546   2.393  12.350   6.447 -0.0375 -0.2676 -0.3058
  681PSPI   C3A10547   2.143  12.130   6.730  0.0913 -0.0399 -0.1307
  681PSPI   C4A10548   1.794  11.882   6.723 -0.2684  0.0587  0.1780
  681PSPI   C1B10549   2.852  12.675   5.929  0.0973  0.0426  0.4050
  681PSPI   C2B10550   2.857  12.660   6.368 -0.1305  0.1014 -0.0433
  681PSPI   C3B10551   2.770  12.689   6.775  0.0994 -0.1631  0.0206
  681PSPI   C4B10552   2.613  12.263   6.958 -0.2011  0.0888 -0.2739
  682PSPI    C110553  16.048   4.361   5.099  0.0416 -0.3208  0.0399
  682PSPI    C210554  15.842   4.571   5.370  0.0949 -0.1797 -0.0284
  682PSPI    C310555  15.649   4.383   5.074  0.0682  0.0301 -0.1470
  682PSPI   PO410556  16.234   4.275   5.293  0.2055 -0.0248 -0.1662
  682PSPI   GL110557  16.664   4.350   5.422  0.3203 -0.0251 -0.2431
  682PSPI   GL210558  16.799   4.004   5.529  0.1225  0.0304 -0.2183
  682PSPI   C1A10559  16.723   4.471   5.887  0.1355  0.1046 -0.0809
  682PSPI   C2A10560  16.864   4.449   6.232  0.1705 -0.2144  0.1026
  682PSPI   C3A10561  16.925   4.208   6.593 -0.2399 -0.1863 -0.2734
  682PSPI   C4A10562  16.883   3.924   6.837  0.3827  0.2622 -0.1465
  682PSPI   C1B10563  16.749   3.943   6.030  0.0851  0.4042  0.3547
  682PSPI   C2B10564  16.657   3.753   6.392  0.0638 -0.2356  0.1146
  682PSPI   C3B10565  16.568   3.525   6.789 -0.0434  0.5773 -0.0791
  682PSPI   C4B10566  16.390   3.451   7.200 -0.1090  0.0734  0.2319
  683PSPI    C110567  14.272  12.943   5.362 -0.1989 -0.0563  0.1518
  683PSPI    C210568  14.313  13.337   5.307  0.0616 -0.1007  0.0155
  683PSPI    C310569  14.192  13.104   5.005 -0.4692 -0.0772  0.2006
  683PSPI   PO410570  14.480  12.848   5.590  0.2439 -0.0774 -0.0300
  683PSPI   GL110571  14.752  12.849   5.957 -0.1543 -0.2444  0.1572
  683PSPI   GL210572  14.793  13.091   6.168 -0.0589  0.0771 -0.0792
  683PSPI   C1A10573  14.330  12.842   6.225 -0.1566 -0.0737  0.0699
  683PSPI   C2A10574  14.025  12.849   6.545  0.0425  0.0173  0.0598
  683PSPI   C3A10575  13.740  13.024   6.791 -0.1984 -0.1031 -0.2589
  683PSPI   C4A10576  13.608  13.225   7.194  0.1578  0.3027  0.3705
  683PSPI   C1B10577  14.713  12.942   6.585  0.0656 -0.3375  0.0266
  683PSPI   C2B10578  14.507  12.945   6.914  0.1533  0.1232 -0.0908
  683PSPI   C3B10579  14.551  12.773   7.354  0.2464  0.0925 -0.4382
  683PSPI   C4B10580  14.530  12.573   7.856  0.1047 -0.0143 -0.1328
  684PSPI    C110581   4.294   7.184   4.815  0.2368 -0.0966 -0.0859
  684PSPI    C210582   3.922   7.269   4.695  0.1818 -0.1591  0.0378
  684PSPI    C310583   4.025   6.891   4.774  0.1567 -0.0965  0.3835
  684PSPI   PO410584   4.487   7.430   5.040  0.0777 -0.1578 -0.4146
  684PSPI   GL110585   4.549   7.703   5.462 -0.1095  0.0631 -0.2356
  684PSPI   GL210586   4.343   7.387   5.485 -0.3415 -0.0359  0.3366
  684PSPI   C1A10587   4.889   7.846   5.714  0.0044 -0.0123 -0.0564
  684PSPI   C2A10588   5.158   8.110   6.086  0.0713  0.2701 -0.5801
  684PSPI   C3A10589   4.979   7.865   6.404 -0.2537 -0.0528 -0.1294
  684PSPI   C4A10590   4.802   7.462   6.380  0.0014 -0.1297  0.1772
  684PSPI   C1B10591   4.373   7.031   5.927  0.1020  0.2885 -0.1435
  684PSPI   C2B10592   4.462   6.667   6.176 -0.1599  0.1599 -0.2676
  684PSPI   C3B10593   4.787   6.595   6.476 -0.1846  0.3146  0.0210
  684PSPI   C4B10594   4.894   6.738   6.780 -0.3769 -0.2336 -0.0233
  685PSPI    C110595   3.793  14.288   5.172  0.2807 -0.1354  0.1200
  685PSPI    C210596   3.417  14.411   5.232  0.3829  0.0953  0.3073
  685PSPI    C310597   3.637  14.575   4.941  0.2888 -0.1545  0.0907
  685PSPI   PO410598   3.818  14.217   5.530 -0.3352 -0.0184 -0.0231
  685PSPI   GL110599   3.927  14.063   5.944 -0.0546  0.1425 -0.3322
  685PSPI   GL210600   3.652  13.836   5.806  0.2292 -0.1771  0.6370
  685PSPI   C1A10601   3.681  14.245   6.163 -0.0473  0.0969 -0.1188
  685PSPI   C2A10602   3.843  14.563   6.460 -0.1177  0.4616 -0.0831
  685PSPI   C3A10603   4.027  14.772   6.820 -0.1220  0.0394  0.1999
  685PSPI   C4A10604   4.237  14.736   7.217 -0.0684  0.2354  0.2079
  685PSPI   C1B10605   3.845  13.701   6.281  0.1376  0.0239  0.0490
  685PSPI   C2B10606   3.900  13.531   6.689 -0.0046  0.1404  0.1833
  685PSPI   C3B10607   3.832  13.087   6.745  0.1425 -0.1820 -0.0961
  685PSPI   C4B10608   3.877  12.839   6.455 -0.2564  0.1471  0.2325
  686PSPI    C110609  13.551   6.198   5.082  0.0632 -0.2289  0.1143
  686PSPI    C210610  13.742   5.901   4.894  0.2338 -0.1141  0.1032
  686PSPI    C310611  13.866   6.278   4.848 -0.0897 -0.0195 -0.0234
  686PSPI   PO410612  13.590   6.116   5.409 -0.1476 -0.2821  0.3856
  686PSPI   GL110613  13.546   6.033   5.797  0.3233  0.0294  0.2290
  686PSPI   GL210614  13.732   5.760   5.784 -0.1073  0.2344  0.5701
  686PSPI   C1A10615  13.747   6.232   6.147 -0.0861  0.0402  0.0207
  686PSPI   C2A10616  13.431   6.379   6.444 -0.1061  0.2450  0.3893
  686PSPI   C3A10617  13.261   6.660   6.585 -0.0027  0.2570  0.1574
  686PSPI   C4A10618  13.401   7.065   6.713 -0.1966  0.0373 -0.5366
  686PSPI   C1B10619  13.701   5.679   6.233  0.1950  0.2687 -0.1472
  686PSPI   C2B10620  13.764   5.663   6.673 -0.2193  0.1511  0.1654
  686PSPI   C3B10621  13.581   5.623   7.064 -0.0200  0.1115  0.1102
  686PSPI   C4B10622  13.476   5.158   7.196  0.0381 -0.2759 -0.1236
  687PSPI    C110623  18.748   9.399   5.360 -0.0739 -0.0896  0.0656
  687PSPI    C210624  18.648   9.653   5.068  0.1560  0.1148  0.1603
  687PSPI    C310625  18.547   9.734   5.446  0.0349 -0.0487  0.1640
  687PSPI   PO410626  18.653   9.147   5.167  0.2934 -0.0809  0.0891
  687PSPI   GL110627  18.442   8.815   5.387 -0.1991  0.0391 -0.1993
  687PSPI   GL210628  18.766   8.896   5.563  0.0633 -0.2058 -0.3975
  687PSPI   C1A10629  18.352   8.970   5.789 -0.1276  0.1979  0.1827
  687PSPI   C2A10630  18.629   8.981   6.104 -0.1777 -0.1766 -0.1054
  687PSPI   C3A10631  18.611   8.896   6.577 -0.0744 -0.2942 -0.2461
  687PSPI   C4A10632  18.843   9.134   6.928  0.1155  0.2117 -0.2067
  687PSPI   C1B10633  18.547   8.501   5.855  0.2772  0.1195  0.0889
  687PSPI   C2B10634  18.506   8.488   6.260  0.2106 -0.0576  0.1333
  687PSPI   C3B10635  18.767   8.429   6.630  0.0096  0.0383  0.0789
  687PSPI   C4B10636  18.738   8.664   7.032  0.0148  0.3563 -0.1466
  688PSPI    C110637  12.049  11.585   5.437 -0.1373 -0.0770 -0.0904
  688PSPI    C210638  12.233  11.297   5.230 -0.1299 -0.1826  0.0611
  688PSPI    C310639  12.100  11.624   5.043  0.1380 -0.1422 -0.0634
  688PSPI   PO410640  11.864  11.554   5.571  0.1399 -0.0505 -0.0380
  688PSPI   GL110641  12.023  11.506   5.979  0.0227 -0.0820 -0.0226
  688PSPI   GL210642  12.224  11.800   5.872 -0.2553 -0.1159 -0.1739
  688PSPI   C1A10643  11.874  11.869   6.286  0.0402 -0.1450  0.1163
  688PSPI   C2A10644  11.749  11.842   6.727  0.0005 -0.0417  0.2576
  688PSPI   C3A10645  11.850  11.792   7.180 -0.4857  0.1347  0.0242
  688PSPI   C4A10646  11.788  11.871   7.600 -0.0272 -0.2125  0.2068
  688PSPI   C1B10647  12.333  11.754   6.293 -0.2168  0.0197  0.0820
  688PSPI   C2B10648  12.186  11.585   6.642 -0.0065  0.3052 -0.0638
  688PSPI   C3B10649  12.267  11.528   7.108 -0.1742 -0.1774  0.1729
  688PSPI   C4B10650  12.568  11.243   7.545  0.0850  0.1974  0.0055
  689PSPI    C110651  19.010  18.502   5.381 -0.1356 -0.0569  0.0771
  689PSPI    C210652  18.674  18.692   5.486  0.0896  0.2428  0.2745
  689PSPI    C310653  18.977  18.896   5.325  0.2090 -0.0116  0.1705
  689PSPI   PO410654  19.076  18.253   5.647 -0.1371 -0.1428  0.0838
  689PSPI   GL110655  19.068  18.316   6.112  0.2222 -0.0400  0.3327
  689PSPI   GL210656  19.342  18.278   6.237  0.2846 -0.0627  0.0995
  689PSPI   C1A10657  18.791  18.568   6.464  0.0410  0.2695 -0.0569
  689PSPI   C2A10658  18.822  18.743   6.760 -0.0387  0.2265  0.0847
  689PSPI   C3A10659  18.407  18.901   7.079  0.2179  0.0026  0.0593
  689PSPI   C4A10660  18.260  18.941   7.488  0.1730  0.0049  0.1326
  689PSPI   C1B10661  19.145  18.297   6.609 -0.1030 -0.1855 -0.2945
  689PSPI   C2B10662  19.100  18.008   6.918  0.0534  0.0156  0.1614
  689PSPI   C3B10663  19.126  17.889   7.308 -0.0180  0.2089 -0.0690
  689PSPI   C4B10664  18.879  17.730   7.589  0.1878  0.3632  0.3475
  690PSPI    C110665  15.059  11.652   5.887 -0.1322 -0.1917  0.0282
  690PSPI    C210666  15.053  11.593   5.491 -0.0302  0.0667 -0.0139
  690PSPI    C310667  14.814  11.377   5.729 -0.1664 -0.0189 -0.2252
  690PSPI   PO410668  15.123  11.883   5.879 -0.1375  0.0186  0.2070
  690PSPI   GL110669  14.912  12.051   6.140 -0.4277 -0.2571 -0.1315
  690PSPI   GL210670  14.623  11.800   6.171 -0.2305 -0.1290 -0.2734
  690PSPI   C1A10671  14.837  12.414   6.388 -0.2908 -0.4686 -0.0174
  690PSPI   C2A10672  14.804  12.522   6.857 -0.3801 -0.0981  0.0322
  690PSPI   C3A10673  14.856  12.427   7.340  0.0596 -0.1359 -0.1530
  690PSPI   C4A10674  14.996  12.374   7.778  0.1573 -0.1056  0.2613
  690PSPI   C1B10675  14.418  11.718   6.537  0.0634 -0.0720 -0.1241
  690PSPI   C2B10676  14.335  11.571   6.934 -0.3028  0.0221  0.1026
  690PSPI   C3B10677  14.650  11.476   7.290  0.0141 -0.2310 -0.2773
  690PSPI   C4B10678  14.963  11.786   7.414 -0.3643  0.2260  0.0569
  691PSPI    C110679   7.575  18.223   5.313 -0.2996  0.0409  0.3035
  691PSPI    C210680   7.438  18.598   5.341  0.0980  0.2146  0.0244
  691PSPI    C310681   7.558  18.455   4.987  0.2642 -0.0634  0.1897
  691PSPI   PO410682   7.696  18.213   5.593 -0.2046  0.1740  0.2219
  691PSPI   GL110683   7.902  18.333   5.923 -0.2084  0.0934 -0.2951
  691PSPI   GL210684   7.843  17.996   6.049  0.2636 -0.0819  0.0261
  691PSPI   C1A10685   8.001  18.572   6.184  0.3379 -0.0755 -0.1003
  691PSPI   C2A10686   8.147  18.590   6.601  0.0950  0.0504  0.1211
  691PSPI   C3A10687   8.382  18.650   6.922 -0.1020  0.0115  0.3945
  691PSPI   C4A10688   8.524  18.690   7.249 -0.0009  0.0246  0.2419
  691PSPI   C1B10689   7.600  17.770   6.370 -0.3893  0.0675 -0.0870
  691PSPI   C2B10690   7.373  17.799   6.802  0.0954 -0.3042  0.0592
  691PSPI   C3B10691   7.172  17.753   7.083  0.0755 -0.3148  0.3790
  691PSPI   C4B10692   6.778  17.813   7.279 -0.2250 -0.2479  0.0249
  692PSPI    C110693  10.380   4.247   4.758 -0.0397  0.0585  0.1046
  692PSPI    C210694  10.071   4.131   4.533  0.0104 -0.0480  0.0898
  692PSPI    C310695  10.410   4.251   4.359 -0.0241  0.0745  0.1060
  692PSPI   PO410696  10.384   4.020   4.959  0.0050 -0.0731 -0.2635
  692PSPI   GL110697  10.212   3.926   5.434 -0.2603 -0.2621 -0.0383
  692PSPI   GL210698  10.060   3.613   5.422 -0.2328  0.1180  0.2104
  692PSPI   C1A10699  10.355   3.819   5.883  0.1826  0.0453  0.2116
  692PSPI   C2A10700  10.214   3.950   6.275 -0.1979  0.3509 -0.0239
  692PSPI   C3A10701  10.000   3.704   6.577  0.3528 -0.0052 -0.0545
  692PSPI   C4A10702   9.915   3.416   6.958 -0.0534  0.0187 -0.1171
  692PSPI   C1B10703  10.042   3.410   5.762 -0.2323  0.0426 -0.1169
  692PSPI   C2B10704   9.865   3.581   6.037 -0.0728 -0.0486 -0.2218
  692PSPI   C3B10705   9.657   3.896   6.294  0.1373 -0.0154 -0.0845
  692PSPI   C4B10706   9.605   3.978   6.672  0.0828 -0.4203  0.0390
  693PSPI    C110707  10.395  14.778   5.329  0.2788  0.0892  0.1221
  693PSPI    C210708  10.714  14.754   5.089  0.1489 -0.4527 -0.0099
  693PSPI    C310709  10.346  14.728   4.935  0.0365  0.0587  0.1545
  693PSPI   PO410710  10.455  15.058   5.476  0.0505 -0.0548 -0.1490
  693PSPI   GL110711  10.533  15.323   5.830  0.0826 -0.1985 -0.2575
  693PSPI   GL210712  10.427  15.153   5.945  0.0447  0.2048 -0.3341
  693PSPI   C1A10713  10.572  15.672   6.165 -0.2451 -0.1870  0.0490
  693PSPI   C2A10714  10.396  16.026   6.231  0.0678 -0.3712  0.0403
  693PSPI   C3A10715  10.170  16.270   6.564 -0.0411 -0.1476 -0.0357
  693PSPI   C4A10716  10.048  16.673   6.525 -0.2332  0.0965 -0.1059
  693PSPI   C1B10717  10.464  15.195   6.317 -0.3050  0.0102 -0.0573
  693PSPI   C2B10718  10.571  15.556   6.675  0.0973  0.2080  0.0439
  693PSPI   C3B10719  10.534  15.824   7.043  0.0495  0.3500 -0.0512
  693PSPI   C4B10720  10.514  15.700   7.442 -0.1870  0.3692  0.0320
  694POPI    C110721  15.017  15.142   5.061  0.0435 -0.1029 -0.1955
  694POPI    C210722  15.155  15.339   4.741 -0.0006  0.0520 -0.1203
  694POPI    C310723  14.761  15.296   4.795  0.0055  0.0694 -0.0613
  694POPI   PO410724  15.225  15.065   5.247  0.2690  0.1731 -0.1782
  694POPI   GL110725  15.389  14.802   5.713 -0.2062  0.0644 -0.0966
  694POPI   GL210726  15.275  14.492   5.649  0.0313 -0.3118  0.1378
  694POPI   C1A10727  15.501  14.959   6.088 -0.4405 -0.1143 -0.1066
  694POPI   D2A10728  15.710  14.935   6.429  0.1131  0.1200  0.0225
  694POPI   C3A10729  15.651  14.717   6.828  0.3604 -0.0331 -0.3936
  694POPI   C4A10730  15.618  14.560   7.295 -0.2902  0.0492  0.0557
  694POPI   C1B10731  15.033  14.463   6.018 -0.1605  0.1257 -0.0316
  694POPI   C2B10732  14.860  14.552   6.385  0.1304  0.0310  0.1880
  694POPI   C3B10733  14.727  14.674   6.681 -0.1012  0.1216 -0.1407
  694POPI   C4B10734  14.757  14.799   7.157  0.3081 -0.0138  0.0288
  695POPI    C110735  10.585  18.900   5.406  0.2185  0.1429  0.0111
  695POPI    C210736  10.418  18.700   5.103 -0.1240 -0.0883  0.3433
  695POPI    C310737  10.785  18.603   5.229  0.0196  0.0076  0.0102
  695POPI   PO410738  10.498  19.226   5.445 -0.2307 -0.4150  0.1012
  695POPI   GL110739  10.475  19.542   5.784  0.0589 -0.1258 -0.1869
  695POPI   GL210740  10.181  19.556   5.958 -0.1853  0.0207  0.0229
  695POPI   C1A10741  10.503  19.357   6.215  0.3446  0.0815 -0.1087
  695POPI   D2A10742  10.464  19.221   6.605  0.2369  0.0131 -0.1778
  695POPI   C3A10743  10.077  19.191   6.822 -0.1515 -0.1571 -0.3649
  695POPI   C4A10744   9.810  19.470   7.145  0.2755 -0.0763 -0.1858
  695POPI   C1B10745  10.027  19.543   6.392 -0.2107 -0.1406 -0.2772
  695POPI   C2B10746   9.885  19.787   6.800 -0.0689 -0.0104  0.4795
  695POPI   C3B10747   9.701  20.156   7.008 -0.1753  0.0337 -0.0424
  695POPI   C4B10748   9.479  20.415   7.209 -0.1983  0.0920 -0.2579
  696POPI    C110749  16.295   6.564   4.900  0.0696 -0.0276 -0.0177
  696POPI    C210750  15.929   6.457   5.022  0.0615  0.0613  0.0375
  696POPI    C310751  15.975   6.773   4.782  0.0581 -0.2277 -0.3541
  696POPI   PO410752  16.407   6.605   5.216 -0.1030 -0.2873  0.0754
  696POPI   GL110753  16.395   6.459   5.720 -0.0142  0.2098 -0.0934
  696POPI   GL210754  16.249   6.635   5.940 -0.0040  0.0615  0.0611
  696POPI   C1A10755  16.591   6.212   5.859  0.1093 -0.0159  0.1527
  696POPI   D2A10756  16.836   6.161   6.209  0.0549  0.1002 -0.3142
  696POPI   C3A10757  16.888   6.219   6.627  0.1780  0.3426  0.0081
  696POPI   C4A10758  16.887   6.156   7.033 -0.4112  0.0867 -0.0728
  696POPI   C1B10759  16.553   6.583   6.298 -0.4143 -0.1645 -0.1705
  696POPI   C2B10760  16.702   6.661   6.679 -0.4015 -0.0540  0.4922
  696POPI   C3B10761  16.679   6.929   6.994  0.0294 -0.0672 -0.1756
  696POPI   C4B10762  16.447   7.074   7.368  0.1358 -0.0530 -0.0013
  697POPI    C110763  13.088   4.430   4.901 -0.1181 -0.0303 -0.0939
  697POPI    C210764  12.864   4.270   4.611  0.1243 -0.4461 -0.0608
  697POPI    C310765  13.225   4.419   4.526 -0.0683  0.0301 -0.0776
  697POPI   PO410766  13.101   4.236   5.150 -0.0312  0.2933  0.2065
  697POPI   GL110767  13.200   4.214   5.493  0.3246 -0.1194  0.2270
  697POPI   GL210768  13.049   3.861   5.498  0.1141  0.0782  0.0363
  697POPI   C1A10769  13.194   4.472   5.906  0.2359  0.3309  0.2369
  697POPI   D2A10770  13.083   4.462   6.349 -0.1812 -0.2110 -0.0065
  697POPI   C3A10771  13.255   4.688   6.664 -0.0028 -0.1699  0.1486
  697POPI   C4A10772  13.498   5.136   6.732 -0.0068 -0.4712  0.4156
  697POPI   C1B10773  13.091   3.945   5.910 -0.1978 -0.0475 -0.1590
  697POPI   C2B10774  13.158   3.923   6.356  0.4126 -0.1556  0.1837
  697POPI   C3B10775  13.017   3.967   6.698  0.0110  0.2158 -0.2829
  697POPI   C4B10776  13.107   3.666   7.120  0.1214 -0.0619  0.2663
  698POPI    C110777   4.320   4.064   5.304 -0.0707  0.0012  0.0173
  698POPI    C210778   4.292   4.442   5.178  0.4278 -0.0341 -0.2228
  698POPI    C310779   4.086   4.154   4.992  0.0119  0.1182 -0.0113
  698POPI   PO410780   4.300   4.042   5.570  0.3338 -0.0949 -0.1463
  698POPI   GL110781   4.512   4.191   5.867  0.0700  0.1615 -0.1849
  698POPI   GL210782   4.482   3.932   6.093 -0.4763 -0.2044  0.0385
  698POPI   C1A10783   4.282   4.323   6.297 -0.3126  0.0295 -0.1227
  698POPI   D2A10784   4.191   4.258   6.717 -0.2473  0.2820  0.3432
  698POPI   C3A10785   4.125   4.361   7.082  0.2657  0.0937 -0.1396
  698POPI   C4A10786   3.808   4.413   7.248  0.0173  0.2124  0.0597
  698POPI   C1B10787   4.606   3.963   6.473 -0.3568  0.1807  0.3406
  698POPI   C2B10788   4.614   4.067   6.916 -0.1272 -0.0766 -0.1547
  698POPI   C3B10789   4.566   4.257   7.308  0.3004  0.1466  0.0497
  698POPI   C4B10790   4.487   4.250   7.746 -0.2737  0.1429  0.0024
  699POPI    C110791   3.505   7.419   4.900 -0.2788 -0.1038 -0.1121
  699POPI    C210792   3.208   7.629   4.733 -0.0423  0.3623  0.0354
  699POPI    C310793   3.588   7.726   4.657  0.0774 -0.1277 -0.0253
  699POPI   PO410794   3.328   7.275   5.100  0.1031 -0.0145  0.0419
  699POPI   GL110795   3.108   7.294   5.445  0.3194  0.3939 -0.0254
  699POPI   GL210796   2.948   7.490   5.611 -0.4935 -0.1496 -0.0253
  699POPI   C1A10797   3.379   7.111   5.737 -0.4637 -0.3248  0.0301
  699POPI   D2A10798   3.780   6.954   5.958 -0.2634  0.1966  0.1017
  699POPI   C3A10799   3.550   6.708   6.183 -0.3175 -0.0324  0.1295
  699POPI   C4A10800   3.729   6.447   6.405 -0.0474  0.1068 -0.2733
  699POPI   C1B10801   3.041   7.863   5.812 -0.1767 -0.0312 -0.0417
  699POPI   C2B10802   3.051   8.053   6.171  0.1615  0.2101  0.3170
  699POPI   C3B10803   3.185   8.278   6.471  0.0038  0.0887  0.4255
  699POPI   C4B10804   3.121   8.548   6.895  0.1319  0.0116  0.2291
  700POPI    C110805  13.297  18.619   5.307  0.0651  0.0952  0.1615
  700POPI    C210806  13.086  18.807   5.024  0.0437  0.1103  0.1874
  700POPI    C310807  13.486  18.819   5.018  0.0462 -0.0150  0.0721
  700POPI   PO410808  13.115  18.387   5.310  0.1048 -0.0258 -0.1956
  700POPI   GL110809  13.197  18.066   5.653 -0.1544 -0.0468 -0.0377
  700POPI   GL210810  13.512  18.027   5.514 -0.0238 -0.0410  0.0655
  700POPI   C1A10811  13.098  18.360   6.008 -0.0286  0.2134  0.1053
  700POPI   D2A10812  13.080  18.401   6.481  0.0391 -0.0502 -0.1061
  700POPI   C3A10813  13.242  18.066   6.735  0.1192  0.1289  0.0850
  700POPI   C4A10814  13.321  17.641   6.936 -0.1123  0.0281  0.3983
  700POPI   C1B10815  13.533  18.462   5.822  0.0383  0.1947  0.0402
  700POPI   C2B10816  13.548  18.389   6.287 -0.2610 -0.0125 -0.1998
  700POPI   C3B10817  13.561  18.448   6.740 -0.0773  0.3155 -0.0181
  700POPI   C4B10818  13.329  18.401   7.164  0.0554 -0.3401 -0.2345
  701POPI    C110819  18.971   6.496   4.967  0.1423  0.1662  0.2021
  701POPI    C210820  19.251   6.341   4.727 -0.0742 -0.1846  0.1687
  701POPI    C310821  19.008   6.628   4.591  0.4740  0.3626  0.3002
  701POPI   PO410822  18.917   6.338   5.107  0.0040  0.2190  0.0023
  701POPI   GL110823  19.028   6.405   5.578  0.0623  0.0357  0.1477
  701POPI   GL210824  19.281   6.756   5.585 -0.1715 -0.0755  0.1783
  701POPI   C1A10825  18.764   6.865   5.713 -0.0669  0.1082  0.1337
  701POPI   D2A10826  18.772   7.279   5.948  0.1141 -0.0260 -0.1512
  701POPI   C3A10827  18.500   7.566   6.179 -0.3997 -0.1303  0.0881
  701POPI   C4A10828  18.458   8.023   6.141  0.0070  0.1530 -0.0070
  701POPI   C1B10829  19.295   6.596   5.968 -0.1372 -0.0251 -0.2528
  701POPI   C2B10830  19.063   6.332   6.239 -0.1113  0.0599 -0.0019
  701POPI   C3B10831  19.115   6.375   6.684 -0.2197  0.1039 -0.0284
  701POPI   C4B10832  19.238   6.244   7.181 -0.2328  0.1414 -0.1406
  702POPI    C110833   5.436  17.213   5.293  0.0360  0.1598 -0.1179
  702POPI    C210834   5.321  16.872   5.118  0.0561  0.1630 -0.1374
  702POPI    C310835   5.710  16.966   5.137  0.0762  0.0301  0.1530
  702POPI   PO410836   5.212  17.238   5.514  0.0221 -0.0022  0.2671
  702POPI   GL110837   5.132  17.091   5.927 -0.1554  0.0645  0.0243
  702POPI   GL210838   4.962  16.804   6.016 -0.3832 -0.2091  0.0134
  702POPI   C1A10839   5.358  16.996   6.309 -0.0980  0.1401  0.2933
  702POPI   D2A10840   5.230  16.884   6.757 -0.0753 -0.0068  0.1234
  702POPI   C3A10841   5.562  16.652   7.071  0.0210 -0.0836  0.0363
  702POPI   C4A10842   5.387  16.491   7.602  0.3396 -0.4315  0.0145
  702POPI   C1B10843   4.908  16.852   6.422  0.1346  0.0342 -0.1281
  702POPI   C2B10844   4.793  17.045   6.797  0.1354 -0.2277  0.1174
  702POPI   C3B10845   5.043  17.114   7.173 -0.3590 -0.2024 -0.0015
  702POPI   C4B10846   5.018  17.152   7.659  0.1826  0.1498  0.0858
  703POPI    C110847   7.767   8.158   5.314  0.0547  0.0235 -0.1764
  703POPI    C210848   7.604   8.447   5.537  0.2025 -0.1278  0.1341
  703POPI    C310849   7.874   8.539   5.257 -0.3334  0.1153 -0.3225
  703POPI   PO410850   7.684   7.941   5.569 -0.0138  0.2482  0.0959
  703POPI   GL110851   7.476   7.922   5.876  0.2584  0.0486 -0.0489
  703POPI   GL210852   7.202   7.751   5.755 -0.0418  0.0462  0.1238
  703POPI   C1A10853   7.216   7.980   6.220 -0.0018 -0.0373  0.2389
  703POPI   D2A10854   7.038   8.287   6.409  0.0749 -0.0623  0.4366
  703POPI   C3A10855   6.687   8.589   6.252 -0.0968  0.1471  0.2295
  703POPI   C4A10856   6.513   8.772   5.908 -0.1184  0.3242 -0.0246
  703POPI   C1B10857   6.823   8.067   5.964 -0.0619 -0.0491  0.0076
  703POPI   C2B10858   6.585   8.118   6.267 -0.0055 -0.2033 -0.4859
  703POPI   C3B10859   6.580   8.237   6.666 -0.1372  0.0523 -0.5815
  703POPI   C4B10860   6.615   8.276   7.106  0.0988 -0.0908  0.1050
  704POPI    C110861   0.436  13.109   5.339  0.1261 -0.0518  0.1168
  704POPI    C210862   0.592  13.454   5.209 -0.0774 -0.0867 -0.2319
  704POPI    C310863   0.742  13.106   5.081  0.1233 -0.1316  0.1144
  704POPI   PO410864   0.251  13.315   5.602  0.1152  0.1077  0.0322
  704POPI   GL110865   0.185  13.244   5.945  0.1038  0.1807 -0.1276
  704POPI   GL210866   0.376  13.499   6.053  0.1004 -0.2289 -0.0713
  704POPI   C1A10867   0.277  13.086   6.297 -0.0938 -0.2054  0.0743
  704POPI   D2A10868   0.138  13.008   6.639 -0.0915  0.3317  0.0380
  704POPI   C3A10869   0.310  13.321   6.915  0.0956 -0.0806 -0.1869
  704POPI   C4A10870   0.310  13.480   7.397 -0.0368  0.1532 -0.2025
  704POPI   C1B10871   0.488  13.605   6.530  0.2571 -0.0507  0.0911
  704POPI   C2B10872   0.620  13.677   7.045  0.0681  0.1963  0.0609
  704POPI   C3B10873   0.831  13.865   7.355 -0.0987 -0.0204 -0.0216
  704POPI   C4B10874   1.086  13.942   7.735 -0.1404 -0.0106  0.1041
  705POPI    C110875  10.260  13.059   5.423  0.1514 -0.1906  0.0681
  705POPI    C210876  10.514  13.318   5.255  0.1502 -0.2208  0.0196
  705POPI    C310877  10.215  13.162   5.039  0.1063 -0.2055  0.0693
  705POPI   PO410878  10.343  13.150   5.699  0.1743 -0.1130  0.2746
  705POPI   GL110879  10.333  13.334   6.106  0.0441  0.2325 -0.1526
  705POPI   GL210880  10.248  13.627   6.051  0.1415  0.1394 -0.2076
  705POPI   C1A10881  10.434  13.306   6.533  0.0233  0.1749  0.1226
  705POPI   D2A10882  10.394  13.040   6.910 -0.4782  0.0840 -0.0539
  705POPI   C3A10883  10.615  13.036   7.344  0.1532  0.0649 -0.1071
  705POPI   C4A10884  10.874  13.152   7.645 -0.4033 -0.0050 -0.3175
  705POPI   C1B10885  10.038  13.870   6.404  0.1732 -0.3374 -0.0347
  705POPI   C2B10886   9.959  13.962   6.754 -0.1516  0.0995  0.1331
  705POPI   C3B10887   9.825  14.000   7.182 -0.0717  0.1386 -0.3310
  705POPI   C4B10888   9.614  14.118   7.573  0.1922  0.4922 -0.1757
  706POPI    C110889  18.576   2.124   5.414 -0.0272 -0.2393  0.0664
  706POPI    C210890  18.464   1.989   5.054  0.1602  0.0042 -0.0861
  706POPI    C310891  18.524   2.381   5.111 -0.0910 -0.0047  0.2729
  706POPI   PO410892  18.717   1.866   5.466 -0.0534 -0.0449 -0.1778
  706POPI   GL110893  18.695   1.679   5.861  0.1780  0.0573  0.1455
  706POPI   GL210894  18.935   1.387   6.034  0.1826 -0.2646  0.1250
  706POPI   C1A10895  18.512   1.620   6.247 -0.0024 -0.3000 -0.1151
  706POPI   D2A10896  18.525   1.514   6.668 -0.0613  0.2348  0.2794
  706POPI   C3A10897  18.070   1.304   6.841  0.2754 -0.4095  0.0864
  706POPI   C4A10898  17.948   1.052   7.215 -0.0722 -0.1008 -0.0234
  706POPI   C1B10899  18.605   1.144   6.314  0.2624 -0.1941 -0.0758
  706POPI   C2B10900  18.434   0.986   6.603  0.0388  0.2626 -0.2515
  706POPI   C3B10901  18.339   0.746   6.958 -0.1375 -0.3687 -0.5099
  706POPI   C4B10902  18.421   0.732   7.389  0.0389 -0.0822  0.1489
  707POPI    C110903  18.686  16.254   5.141  0.1097 -0.0934 -0.0881
  707POPI    C210904  18.558  16.615   5.025 -0.0754 -0.0996  0.0915
  707POPI    C310905  18.372  16.285   4.896  0.0002 -0.1253  0.0475
  707POPI   PO410906  18.734  16.229   5.403  0.2517  0.0583 -0.1521
  707POPI   GL110907  18.599  16.175   5.869  0.1220  0.0530  0.1258
  707POPI   GL210908  18.279  16.000   5.886 -0.0364 -0.0766  0.4031
  707POPI   C1A10909  18.471  16.490   6.102  0.0641 -0.2193 -0.0710
  707POPI   D2A10910  18.595  16.662   6.489  0.0397  0.0791  0.0262
  707POPI   C3A10911  19.031  16.663   6.627  0.0263  0.3618  0.0379
  707POPI   C4A10912  19.311  16.411   6.700  0.2696  0.0349 -0.4062
  707POPI   C1B10913  18.202  16.016   6.253  0.3359 -0.1968  0.0041
  707POPI   C2B10914  18.078  15.905   6.563 -0.0343  0.1234 -0.0193
  707POPI   C3B10915  17.914  15.916   7.006 -0.0393  0.0307  0.2874
  707POPI   C4B10916  17.663  15.979   7.268  0.1904  0.0742  0.0192
  708POPI    C110917  11.983  12.884   5.191 -0.0679  0.2092  0.0736
  708POPI    C210918  11.648  13.035   5.033  0.0908  0.2745 -0.2082
  708POPI    C310919  11.931  13.280   5.174  0.0427  0.2206 -0.0146
  708POPI   PO410920  11.940  12.624   5.365  0.2483  0.1729  0.1510
  708POPI   GL110921  12.006  12.589   5.743 -0.1170  0.5707  0.2005
  708POPI   GL210922  12.111  12.773   6.003  0.0476 -0.0837  0.1727
  708POPI   C1A10923  11.851  12.311   6.061  0.2074 -0.1357 -0.1193
  708POPI   D2A10924  11.960  12.283   6.561 -0.1795 -0.2818  0.1780
  708POPI   C3A10925  11.875  12.292   6.946 -0.0966 -0.3988 -0.0746
  708POPI   C4A10926  11.960  12.498   7.291  0.2543  0.0699 -0.1421
  708POPI   C1B10927  12.288  12.614   6.302 -0.0129 -0.1606  0.0472
  708POPI   C2B10928  12.356  12.690   6.675  0.1565 -0.0327  0.1957
  708POPI   C3B10929  12.419  12.636   7.067  0.0041  0.1977  0.1085
  708POPI   C4B10930  12.412  12.626   7.616 -0.2911 -0.2037  0.0936
  709POPI    C110931   6.285   4.978   5.161  0.1990  0.4215  0.0043
  709POPI    C210932   6.227   4.762   4.829 -0.1338  0.2994  0.1376
  709POPI    C310933   5.932   4.989   4.974  0.0037  0.3398  0.3593
  709POPI   PO410934   6.497   4.807   5.351 -0.0366 -0.1426 -0.0559
  709POPI   GL110935   6.482   4.675   5.678  0.4271 -0.0139  0.0180
  709POPI   GL210936   6.613   4.512   5.780 -0.0041 -0.0766 -0.0399
  709POPI   C1A10937   6.290   4.853   5.994 -0.0736  0.2126  0.0767
  709POPI   D2A10938   6.106   4.907   6.362  0.1616  0.1390 -0.2602
  709POPI   C3A10939   6.194   4.908   6.849  0.1250  0.2915 -0.0829
  709POPI   C4A10940   6.295   4.918   7.240  0.1666  0.1496  0.0330
  709POPI   C1B10941   6.604   4.512   6.206 -0.0765  0.1745 -0.2116
  709POPI   C2B10942   6.657   4.593   6.650  0.2859 -0.1046  0.1389
  709POPI   C3B10943   6.832   4.884   6.933  0.2663  0.0748 -0.0992
  709POPI   C4B10944   7.084   5.245   6.901 -0.1129 -0.0906  0.0616
  710POPI    C110945  16.191   4.826   5.066  0.1156 -0.2474 -0.0180
  710POPI    C210946  16.510   4.957   4.863  0.0672 -0.0355  0.0395
  710POPI    C310947  16.168   5.164   4.853 -0.0418 -0.2119  0.0535
  710POPI   PO410948  16.311   4.781   5.282  0.1178 -0.0798  0.0632
  710POPI   GL110949  16.261   4.652   5.675  0.0368 -0.1895  0.0704
  710POPI   GL210950  16.588   4.994   5.685  0.0766 -0.0464  0.0179
  710POPI   C1A10951  16.254   4.563   6.067  0.0691  0.1056  0.0316
  710POPI   D2A10952  16.376   4.234   6.272  0.2194 -0.2298 -0.0217
  710POPI   C3A10953  16.428   4.060   6.682 -0.1187  0.2188 -0.1722
  710POPI   C4A10954  16.358   3.983   7.141 -0.2644 -0.0769  0.0731
  710POPI   C1B10955  16.601   4.990   6.138  0.1373  0.1799  0.0147
  710POPI   C2B10956  16.831   4.976   6.619  0.2791 -0.0339 -0.0206
  710POPI   C3B10957  16.879   5.129   6.983 -0.0116  0.1225 -0.0194
  710POPI   C4B10958  16.734   5.461   7.268  0.0497  0.0879 -0.4167
  711POPI    C110959  18.708   4.973   4.658 -0.0166  0.2342 -0.1130
  711POPI    C210960  18.957   4.663   4.613  0.2152  0.4314 -0.2084
  711POPI    C310961  18.753   4.804   4.299 -0.1648  0.1529 -0.0944
  711POPI   PO410962  18.784   5.132   4.865  0.0216 -0.0949  0.1754
  711POPI   GL110963  18.786   5.596   5.079 -0.1915  0.1237 -0.1364
  711POPI   GL210964  18.711   5.859   5.230 -0.0754 -0.0612 -0.1262
  711POPI   C1A10965  18.567   5.537   5.563 -0.2650 -0.1535  0.0413
  711POPI   D2A10966  18.251   5.889   5.870  0.0517 -0.0540  0.1904
  711POPI   C3A10967  18.461   6.119   6.280  0.3486 -0.1350  0.2454
  711POPI   C4A10968  18.641   6.496   6.477  0.1068  0.2296  0.1445
  711POPI   C1B10969  18.473   6.014   5.486  0.1218 -0.0890  0.1125
  711POPI   C2B10970  18.514   6.332   5.673  0.0171  0.0645  0.1933
  711POPI   C3B10971  18.720   6.453   5.952  0.2207  0.2757  0.0473
  711POPI   C4B10972  18.896   6.868   6.181  0.2361  0.1634 -0.0474
  712POPI    C110973   2.163  10.455   4.853  0.1905  0.2231  0.0989
  712POPI    C210974   1.795  10.538   4.719  0.0867  0.0483  0.2699
  712POPI    C310975   2.107  10.758   4.598  0.0618 -0.3486 -0.5850
  712POPI   PO410976   2.177  10.198   4.922  0.0314  0.2479 -0.2831
  712POPI   GL110977   2.210  10.096   5.364  0.1834  0.0846 -0.0304
  712POPI   GL210978   2.005  10.355   5.379  0.0408  0.0700  0.1272
  712POPI   C1A10979   2.438   9.709   5.418  0.1685  0.0057 -0.0294
  712POPI   D2A10980   2.723   9.443   5.564  0.2621  0.0339  0.3335
  712POPI   C3A10981   2.838   9.433   5.914  0.0745 -0.2885 -0.1881
  712POPI   C4A10982   3.158   9.306   6.226 -0.3779 -0.0806  0.1737
  712POPI   C1B10983   1.831  10.136   5.707  0.1568 -0.3525  0.1002
  712POPI   C2B10984   1.915  10.112   6.164 -0.1798  0.0432 -0.2284
  712POPI   C3B10985   2.095   9.748   6.609 -0.1978  0.0524  0.3451
  712POPI   C4B10986   1.857   9.634   6.958 -0.1969 -0.3935 -0.3725
  713POPI    C110987   1.605   7.411   4.932  0.3421 -0.2113 -0.1821
  713POPI    C210988   1.800   7.272   5.252  0.2297 -0.0345 -0.0349
  713POPI    C310989   1.960   7.232   4.888  0.3630 -0.2281  0.0434
  713POPI   PO410990   1.374   7.470   5.067  0.1532  0.2028  0.1735
  713POPI   GL110991   1.253   7.765   5.451 -0.1714  0.1790 -0.2273
  713POPI   GL210992   1.406   7.901   5.300  0.2804  0.1108 -0.2139
  713POPI   C1A10993   1.320   7.677   5.876  0.0405  0.0371 -0.0159
  713POPI   D2A10994   1.299   7.700   6.314  0.2649  0.1747 -0.0688
  713POPI   C3A10995   1.552   7.569   6.576  0.0670 -0.0387  0.2724
  713POPI   C4A10996   1.533   7.413   6.933  0.1364  0.0318  0.1377
  713POPI   C1B10997   1.659   7.983   5.691  0.1500  0.0360 -0.1071
  713POPI   C2B10998   1.644   7.953   6.123  0.1479 -0.0748 -0.0982
  713POPI   C3B10999   1.551   8.241   6.418  0.2525 -0.0829 -0.1900
  713POPI   C4B11000   1.582   8.428   6.813 -0.2171 -0.1335 -0.0154
  714POPI    C111001   7.462  11.063   5.118  0.1256  0.1084  0.0398
  714POPI    C211002   7.077  11.159   5.076  0.0754 -0.0328  0.1674
  714POPI    C311003   7.349  11.309   4.825 -0.0885 -0.0916 -0.0488
  714POPI   PO411004   7.622  11.075   5.321 -0.0302  0.1608  0.2151
  714POPI   GL111005   7.612  11.317   5.663  0.1803 -0.0569 -0.2263
  714POPI   GL211006   7.548  11.491   5.744 -0.1523  0.1394  0.1545
  714POPI   C1A11007   7.504  10.972   6.004 -0.0172 -0.1940 -0.0301
  714POPI   D2A11008   7.812  10.876   6.295  0.0662 -0.4637  0.0184
  714POPI   C3A11009   8.155  11.066   6.529 -0.0996 -0.1519 -0.0572
  714POPI   C4A11010   8.470  11.218   6.801 -0.3527  0.0409 -0.1830
  714POPI   C1B11011   7.259  11.346   6.155 -0.0687 -0.4735  0.2136
  714POPI   C2B11012   7.130  11.410   6.601 -0.1353 -0.2296  0.0865
  714POPI   C3B11013   7.048  11.279   7.017  0.2382  0.0049  0.0087
  714POPI   C4B11014   7.059  11.353   7.490 -0.2896  0.1709  0.2990
  715POPI    C111015  10.494  16.486   5.666  0.1493 -0.0231  0.0260
  715POPI    C211016  10.143  16.677   5.664  0.1406 -0.0383  0.0890
  715POPI    C311017  10.177  16.324   5.848  0.2364  0.0534  0.2492
  715POPI   PO411018  10.775  16.626   5.706  0.1210 -0.0909 -0.4286
  715POPI   GL111019  11.200  16.700   5.873 -0.4571 -0.3039 -0.1233
  715POPI   GL211020  11.449  16.556   5.818  0.0423 -0.0160 -0.0273
  715POPI   C1A11021  11.153  16.580   6.261 -0.0054 -0.0889 -0.2857
  715POPI   D2A11022  11.019  16.586   6.746 -0.1724  0.1173  0.1440
  715POPI   C3A11023  11.262  16.666   7.117  0.0471 -0.3520  0.3242
  715POPI   C4A11024  11.563  16.765   7.452 -0.3430 -0.2438  0.1176
  715POPI   C1B11025  11.397  16.168   6.088  0.3992  0.2827  0.0475
  715POPI   C2B11026  11.375  16.252   6.581  0.1054 -0.0944 -0.2248
  715POPI   C3B11027  11.158  16.137   6.971 -0.0193 -0.3098 -0.0463
  715POPI   C4B11028  10.933  15.981   7.287 -0.3350 -0.1306 -0.0160
  716POPI    C111029   8.756   7.018   5.423  0.0477  0.0864 -0.0648
  716POPI    C211030   8.665   7.244   5.106 -0.0894  0.1221 -0.0008
  716POPI    C311031   8.402   6.975   5.241 -0.0858  0.1995  0.1631
  716POPI   PO411032   8.953   7.249   5.603 -0.0222 -0.0101  0.1015
  716POPI   GL111033   8.880   7.501   6.029 -0.0353 -0.1482  0.1111
  716POPI   GL211034   8.799   7.697   5.752 -0.2137  0.1715 -0.1010
  716POPI   C1A11035   8.820   7.748   6.485  0.0189  0.0735 -0.1706
  716POPI   D2A11036   8.741   7.705   6.888 -0.0194  0.3597 -0.1199
  716POPI   C3A11037   8.918   8.084   7.133  0.1167  0.1273  0.4933
  716POPI   C4A11038   9.237   8.532   7.215 -0.4225  0.2003 -0.2137
  716POPI   C1B11039   8.434   7.814   6.093 -0.0078  0.3332 -0.0057
  716POPI   C2B11040   8.217   7.617   6.337  0.2178 -0.1662 -0.1480
  716POPI   C3B11041   8.101   7.691   6.733 -0.0223 -0.0278 -0.0284
  716POPI   C4B11042   8.311   7.624   7.141  0.1348 -0.1496  0.0969
  717POPI    C111043  17.167  17.913   5.638  0.0930 -0.2654 -0.2245
  717POPI    C211044  17.394  17.717   5.902  0.0424 -0.1921 -0.1262
  717POPI    C311045  17.400  17.611   5.516  0.3867 -0.0699 -0.1577
  717POPI   PO411046  16.990  18.011   5.750  0.1170  0.2496  0.3811
  717POPI   GL111047  16.747  18.064   6.006  0.4121  0.0449  0.0383
  717POPI   GL211048  16.967  17.767   6.160  0.2418 -0.0244 -0.0420
  717POPI   C1A11049  16.534  18.409   6.006 -0.2463  0.2032 -0.1044
  717POPI   D2A11050  16.308  18.750   6.278  0.0431 -0.0551  0.0023
  717POPI   C3A11051  16.209  18.883   6.771 -0.3277  0.2725 -0.1611
  717POPI   C4A11052  16.018  19.034   7.237 -0.1679 -0.3680  0.1017
  717POPI   C1B11053  16.948  17.498   6.556  0.0644  0.0969  0.0980
  717POPI   C2B11054  17.358  17.387   6.831 -0.1090 -0.1893  0.0771
  717POPI   C3B11055  17.673  17.361   7.007  0.0400 -0.4437  0.0992
  717POPI   C4B11056  17.982  17.349   7.166  0.3549 -0.0514  0.0493
  718POPI    C111057  11.406  17.561   5.514 -0.1213  0.2036  0.0503
  718POPI    C211058  11.724  17.337   5.422 -0.2138  0.0418  0.1208
  718POPI    C311059  11.409  17.348   5.176 -0.2291  0.0557  0.1410
  718POPI   PO411060  11.467  17.494   5.796  0.0746  0.1593  0.1690
  718POPI   GL111061  11.132  17.419   6.034  0.2299  0.0868 -0.0308
  718POPI   GL211062  11.184  17.592   6.278 -0.1226 -0.1978  0.0309
  718POPI   C1A11063  11.140  17.119   6.387 -0.2237 -0.0541 -0.2586
  718POPI   D2A11064  11.012  17.101   6.864 -0.2725 -0.1977  0.0203
  718POPI   C3A11065  10.894  17.095   7.317  0.1336  0.0776  0.0866
  718POPI   C4A11066  10.898  17.014   7.817 -0.3963 -0.1075  0.0874
  718POPI   C1B11067  11.399  17.496   6.646 -0.2934  0.0292  0.3085
  718POPI   C2B11068  11.526  17.290   7.041  0.1192  0.0904 -0.0454
  718POPI   C3B11069  11.796  17.180   7.362  0.0230  0.2707 -0.0753
  718POPI   C4B11070  12.111  17.022   7.547  0.2896 -0.1461 -0.1797
  719POPI    C111071   7.132   4.545   4.745 -0.0696  0.0952 -0.0062
  719POPI    C211072   7.477   4.724   4.652 -0.0096  0.0406  0.1099
  719POPI    C311073   7.138   4.841   4.475  0.0565  0.1461  0.0517
  719POPI   PO411074   7.119   4.301   5.048 -0.3381 -0.2894 -0.2019
  719POPI   GL111075   7.249   4.246   5.501 -0.0890  0.1562 -0.1776
  719POPI   GL211076   7.195   4.499   5.738 -0.0900  0.0484  0.0947
  719POPI   C1A11077   7.237   4.004   5.843  0.2126 -0.0289  0.0674
  719POPI   D2A11078   7.560   3.923   6.050  0.0241  0.1398 -0.1367
  719POPI   C3A11079   7.590   3.933   6.514 -0.1708  0.1768 -0.4482
  719POPI   C4A11080   7.848   4.104   6.880  0.1597  0.0590  0.1493
  719POPI   C1B11081   7.103   4.425   6.211 -0.0405  0.1849  0.2158
  719POPI   C2B11082   7.210   4.498   6.639 -0.3681 -0.1334 -0.3508
  719POPI   C3B11083   7.037   4.478   7.014  0.0436 -0.0783  0.1541
  719POPI   C4B11084   7.012   4.193   7.286  0.1909  0.2352  0.3206
  720POPI    C111085  11.278  10.728   5.408  0.3885  0.0073  0.2230
  720POPI    C211086  11.484  11.071   5.411  0.3881  0.0102  0.0466
  720POPI    C311087  11.422  10.878   5.066  0.0087  0.0621  0.0815
  720POPI   PO411088  11.121  10.821   5.650 -0.0611  0.3533 -0.2650
  720POPI   GL111089  10.995  10.514   5.971  0.1169 -0.1364 -0.0025
  720POPI   GL211090  11.051  10.175   6.077 -0.0624 -0.0758  0.1509
  720POPI   C1A11091  10.961  10.661   6.299  0.0644  0.0981  0.1032
  720POPI   D2A11092  10.752  10.850   6.535 -0.3409  0.0301 -0.0090
  720POPI   C3A11093  10.930  10.775   6.930  0.0762  0.0816 -0.1199
  720POPI   C4A11094  10.859  10.551   7.239 -0.0315  0.0047 -0.1113
  720POPI   C1B11095  10.755  10.221   6.306  0.2030 -0.1473  0.3638
  720POPI   C2B11096  10.697  10.411   6.731  0.0932  0.0555 -0.4037
  720POPI   C3B11097  10.396  10.534   7.070  0.1977  0.3696  0.0368
  720POPI   C4B11098  10.109  10.619   7.485 -0.3013  0.0686 -0.5355
  721POPI    C111099  13.730   1.686   4.903  0.3273 -0.0838 -0.0982
  721POPI    C211100  13.816   1.945   4.611 -0.1262  0.2111  0.0193
  721POPI    C311101  13.588   1.625   4.534  0.1293  0.0415 -0.0444
  721POPI   PO411102  13.614   1.774   5.059  0.0723  0.3301 -0.0557
  721POPI   GL111103  13.537   1.826   5.570  0.1602 -0.3452 -0.1635
  721POPI   GL211104  13.382   1.516   5.482 -0.4687  0.3582 -0.3778
  721POPI   C1A11105  13.767   1.525   5.838 -0.0990  0.2895 -0.2398
  721POPI   D2A11106  14.047   1.155   5.961 -0.7188 -0.0069  0.0786
  721POPI   C3A11107  14.306   1.191   6.346  0.2580  0.0632  0.0960
  721POPI   C4A11108  14.037   1.236   6.782 -0.0798  0.1880 -0.1402
  721POPI   C1B11109  13.197   1.647   5.824  0.0051  0.1706 -0.0616
  721POPI   C2B11110  13.363   1.820   6.247  0.2220 -0.2536  0.1740
  721POPI   C3B11111  13.283   1.998   6.595 -0.2548 -0.1156 -0.3752
  721POPI   C4B11112  13.420   1.855   7.034  0.2348 -0.2004 -0.0393
  722POPI    C111113  18.210   4.804   4.716  0.0401  0.1791 -0.2948
  722POPI    C211114  18.442   4.505   4.584  0.0585 -0.0009  0.1285
  722POPI    C311115  18.097   4.587   4.400  0.2386 -0.0267 -0.2281
  722POPI   PO411116  18.268   4.801   5.017  0.1101 -0.2117 -0.1301
  722POPI   GL111117  18.396   4.691   5.541 -0.0654 -0.1805  0.1691
  722POPI   GL211118  18.658   4.515   5.632  0.2566  0.0383  0.0243
  722POPI   C1A11119  18.404   4.934   5.831  0.0583  0.3303 -0.4165
  722POPI   D2A11120  18.509   4.944   6.255  0.0453 -0.1123  0.3119
  722POPI   C3A11121  19.013   4.975   6.446  0.0006 -0.1229 -0.0627
  722POPI   C4A11122  19.317   4.996   6.674 -0.0650  0.0650 -0.0587
  722POPI   C1B11123  18.609   4.452   6.043  0.1082 -0.4592  0.0160
  722POPI   C2B11124  18.664   4.557   6.535 -0.0227  0.2992  0.0688
  722POPI   C3B11125  18.627   4.785   6.805 -0.0741  0.2338 -0.2012
  722POPI   C4B11126  18.322   4.905   7.206  0.1766 -0.0334 -0.0368
  723POPI    C111127  16.718   0.135   5.168 -0.0302  0.1055  0.0615
  723POPI    C211128  16.934  -0.153   4.993 -0.0790 -0.0866  0.3114
  723POPI    C311129  17.052   0.228   4.968 -0.0327 -0.1213 -0.0520
  723POPI   PO411130  16.737  -0.134   5.476 -0.0731 -0.2314 -0.1271
  723POPI   GL111131  16.960  -0.285   5.767  0.1258  0.0670  0.0873
  723POPI   GL211132  17.229  -0.214   5.870  0.2354  0.0410 -0.3254
  723POPI   C1A11133  16.791  -0.261   6.192 -0.0080  0.0650  0.1000
  723POPI   D2A11134  16.781  -0.241   6.662 -0.0198  0.3437  0.2878
  723POPI   C3A11135  16.527  -0.083   7.052  0.0179 -0.0498 -0.0857
  723POPI   C4A11136  16.480   0.086   7.426 -0.3511 -0.3999 -0.2032
  723POPI   C1B11137  17.276  -0.390   6.374 -0.2664  0.3146  0.0616
  723POPI   C2B11138  17.251  -0.382   6.854 -0.1761  0.1512 -0.2588
  723POPI   C3B11139  16.843  -0.488   7.090 -0.1760 -0.2703 -0.1496
  723POPI   C4B11140  16.397  -0.495   7.256  0.2274 -0.0853  0.0562
  724POPI    C111141  17.949  17.737   5.468 -0.1188  0.0972  0.0748
  724POPI    C211142  18.074  18.100   5.582  0.1459 -0.0833  0.3783
  724POPI    C311143  18.114  17.985   5.201 -0.3050  0.3491  0.1892
  724POPI   PO411144  17.887  17.658   5.756 -0.1707 -0.0105 -0.2282
  724POPI   GL111145  17.910  17.771   6.106 -0.2729 -0.1025 -0.0345
  724POPI   GL211146  18.264  17.863   5.971  0.1391  0.0405 -0.0702
  724POPI   C1A11147  17.747  17.933   6.475 -0.2403 -0.0808  0.1839
  724POPI   D2A11148  17.666  17.839   6.877 -0.1176 -0.0583  0.4683
  724POPI   C3A11149  17.605  18.017   7.099 -0.0044 -0.4000 -0.0853
  724POPI   C4A11150  17.632  18.417   7.460 -0.0214  0.2519  0.2132
  724POPI   C1B11151  18.353  17.591   6.257  0.4274  0.0701  0.0394
  724POPI   C2B11152  18.427  17.192   6.464 -0.0630 -0.0640 -0.0425
  724POPI   C3B11153  18.244  16.876   6.762  0.1142  0.3093  0.0988
  724POPI   C4B11154  17.837  16.935   6.826 -0.1364 -0.2087  0.0316
  725POPI    C111155  12.192  17.281   5.245 -0.2242 -0.0252  0.0897
  725POPI    C211156  12.562  17.262   5.094 -0.2291 -0.0729  0.0836
  725POPI    C311157  12.310  16.956   5.044 -0.1981 -0.1305  0.2740
  725POPI   PO411158  12.212  17.536   5.445 -0.0015  0.0343  0.0678
  725POPI   GL111159  12.074  17.515   5.839 -0.1227  0.1673  0.1660
  725POPI   GL211160  11.851  17.774   6.009 -0.1735 -0.0355  0.1887
  725POPI   C1A11161  12.298  17.704   6.139  0.1424  0.2302  0.1807
  725POPI   D2A11162  12.150  17.897   6.506 -0.2817  0.2174  0.1475
  725POPI   C3A11163  12.402  17.668   6.831  0.0119 -0.0837  0.1281
  725POPI   C4A11164  12.756  17.732   6.951  0.1372 -0.0291 -0.0584
  725POPI   C1B11165  11.683  17.905   6.355  0.0918  0.0573 -0.0989
  725POPI   C2B11166  11.688  17.896   6.756  0.1679  0.0173  0.2146
  725POPI   C3B11167  11.951  18.096   6.950 -0.0872  0.3549  0.3298
  725POPI   C4B11168  12.397  18.218   7.142 -0.0221 -0.0555 -0.2729
  726POPI    C111169   0.362  11.369   4.894 -0.0105 -0.1533 -0.0022
  726POPI    C211170   0.631  11.374   5.190 -0.0083 -0.2155 -0.0031
  726POPI    C311171   0.730  11.511   4.828 -0.0255 -0.0954  0.0372
  726POPI   PO411172   0.178  11.455   5.038 -0.1810 -0.0426  0.1514
  726POPI   GL111173  -0.023  11.292   5.445  0.2332  0.2195  0.2100
  726POPI   GL211174   0.263  11.199   5.493 -0.1211 -0.0758 -0.0723
  726POPI   C1A11175  -0.316  11.106   5.693  0.3797 -0.1814  0.2287
  726POPI   D2A11176  -0.712  11.156   5.969  0.1594  0.2069  0.3378
  726POPI   C3A11177  -0.706  11.537   5.965 -0.1790 -0.3340 -0.0638
  726POPI   C4A11178  -0.812  11.849   5.664 -0.0074  0.0059  0.0930
  726POPI   C1B11179   0.097  11.222   5.942  0.1806  0.1601  0.0558
  726POPI   C2B11180  -0.110  11.099   6.249 -0.0254  0.0413  0.3477
  726POPI   C3B11181  -0.043  11.137   6.662 -0.0852  0.3933  0.0903
  726POPI   C4B11182  -0.282  11.120   6.934 -0.0862  0.1922 -0.0555
  727POPI    C111183   4.127  14.823   5.179  0.2230  0.3324  0.0065
  727POPI    C211184   4.206  14.502   4.954 -0.1576  0.0431  0.2701
  727POPI    C311185   4.116  14.851   4.781  0.2947  0.0239 -0.0203
  727POPI   PO411186   4.307  14.707   5.378  0.2823 -0.1266 -0.1726
  727POPI   GL111187   4.319  14.420   5.724 -0.5421  0.2106 -0.0216
  727POPI   GL211188   4.001  14.572   5.937  0.2164 -0.0260 -0.0249
  727POPI   C1A11189   4.415  14.399   6.215 -0.0114 -0.1354 -0.0930
  727POPI   D2A11190   4.560  14.401   6.482  0.1974  0.2220  0.0163
  727POPI   C3A11191   4.505  14.687   6.801 -0.0216  0.1209  0.1827
  727POPI   C4A11192   4.425  15.148   6.921  0.0175 -0.1637  0.0090
  727POPI   C1B11193   4.233  14.851   6.148 -0.2227 -0.1719 -0.2536
  727POPI   C2B11194   4.517  15.174   6.346  0.0130  0.0876  0.0530
  727POPI   C3B11195   4.493  15.670   6.303  0.1136 -0.1841  0.0990
  727POPI   C4B11196   4.684  15.943   6.007  0.1986  0.1232 -0.2421
  728POPI    C111197  13.095  15.128   5.215  0.2001 -0.1760  0.0954
  728POPI    C211198  13.250  15.269   4.874 -0.0126  0.1467  0.1275
  728POPI    C311199  13.055  14.919   4.876 -0.0659  0.1733 -0.0962
  728POPI   PO411200  12.960  15.393   5.340 -0.0388  0.2574  0.3576
  728POPI   GL111201  12.924  15.402   5.826 -0.2697 -0.0326 -0.1111
  728POPI   GL211202  13.137  15.733   5.796 -0.1476  0.2115 -0.3705
  728POPI   C1A11203  12.983  15.617   6.223 -0.0679 -0.0375  0.0667
  728POPI   D2A11204  13.332  15.588   6.612  0.1064 -0.0605 -0.1844
  728POPI   C3A11205  13.374  15.183   6.857 -0.2091 -0.1960 -0.2440
  728POPI   C4A11206  13.229  14.739   6.735 -0.0836 -0.0460 -0.2027
  728POPI   C1B11207  13.566  15.685   6.202  0.2577 -0.1287 -0.1381
  728POPI   C2B11208  13.799  15.669   6.421 -0.3563  0.0946  0.1830
  728POPI   C3B11209  13.787  15.695   6.817 -0.3334  0.1505  0.1456
  728POPI   C4B11210  13.668  15.655   7.250  0.2882  0.2105  0.2983
  729POPI    C111211   0.042   4.570   5.418  0.0703 -0.0532  0.0112
  729POPI    C211212   0.057   4.460   5.034  0.2357 -0.1915  0.0561
  729POPI    C311213  -0.203   4.284   5.282 -0.0535  0.0797 -0.0481
  729POPI   PO411214   0.319   4.603   5.438 -0.1448  0.2124 -0.0802
  729POPI   GL111215   0.576   4.895   5.701  0.2172 -0.0017 -0.1770
  729POPI   GL211216   0.323   4.580   5.902 -0.4106  0.3031  0.0240
  729POPI   C1A11217   0.917   4.792   5.945  0.1948  0.4266 -0.3311
  729POPI   D2A11218   1.033   4.840   6.438 -0.2554 -0.0105  0.0052
  729POPI   C3A11219   1.183   5.042   6.809  0.1579 -0.0995  0.1607
  729POPI   C4A11220   1.275   5.212   7.207  0.0702 -0.0895 -0.2688
  729POPI   C1B11221   0.448   4.665   6.282 -0.1608 -0.2136 -0.2792
  729POPI   C2B11222   0.490   4.605   6.718  0.3500 -0.0504  0.3251
  729POPI   C3B11223   0.279   4.766   7.099 -0.1428  0.0400  0.2405
  729POPI   C4B11224  -0.138   4.859   7.132  0.4202 -0.2187 -0.2640
  730POPI    C111225  11.293   8.173   5.508  0.1851  0.2106  0.0425
  730POPI    C211226  11.594   8.167   5.244  0.1536 -0.1404  0.0100
  730POPI    C311227  11.291   8.424   5.197  0.2091 -0.1160 -0.2280
  730POPI   PO411228  11.403   8.116   5.710 -0.2329  0.1290 -0.0610
  730POPI   GL111229  11.464   8.155   6.092 -0.1030 -0.1864 -0.1952
  730POPI   GL211230  11.422   8.452   6.214  0.0192  0.1183 -0.0024
  730POPI   C1A11231  11.569   7.986   6.578  0.2963  0.2154 -0.1735
  730POPI   D2A11232  11.862   7.950   6.919  0.2119 -0.1074 -0.1065
  730POPI   C3A11233  12.025   8.279   6.925 -0.0784 -0.1141  0.2869
  730POPI   C4A11234  12.210   8.718   6.810  0.2205 -0.3237 -0.0945
  730POPI   C1B11235  11.121   8.312   6.434  0.0525 -0.2664 -0.1770
  730POPI   C2B11236  11.141   8.143   6.789 -0.1683 -0.1685 -0.0347
  730POPI   C3B11237  11.144   8.222   7.186  0.1607 -0.3166 -0.4904
  730POPI   C4B11238  11.209   8.080   7.613 -0.0781 -0.2260  0.1182
  731POPI    C111239  11.021   1.672   5.270 -0.1980 -0.2230 -0.3395
  731POPI    C211240  11.130   2.048   5.353  0.0446 -0.3634  0.0014
  731POPI    C311241  10.762   1.972   5.214 -0.0309 -0.0103 -0.0003
  731POPI   PO411242  11.111   1.512   5.497 -0.1293  0.1548 -0.0899
  731POPI   GL111243  11.273   1.454   5.846 -0.2753 -0.2178  0.0371
  731POPI   GL211244  11.532   1.593   5.938  0.2715 -0.0652  0.0649
  731POPI   C1A11245  11.269   1.390   6.283 -0.4184  0.2444 -0.0604
  731POPI   D2A11246  11.342   1.449   6.691  0.3340 -0.2705  0.2314
  731POPI   C3A11247  11.237   1.582   7.088 -0.2163 -0.2892  0.2316
  731POPI   C4A11248  11.359   1.682   7.416  0.3037 -0.2178  0.1808
  731POPI   C1B11249  11.408   1.867   6.291  0.4004 -0.1021  0.0161
  731POPI   C2B11250  11.228   1.998   6.678  0.3194  0.0427 -0.0980
  731POPI   C3B11251  11.140   2.156   7.124  0.1356  0.3399  0.0416
  731POPI   C4B11252  10.919   2.395   7.376 -0.5040  0.0569  0.0906
  732POPI    C111253   6.355   2.693   5.483  0.0423  0.0265 -0.0406
  732POPI    C211254   6.631   2.514   5.254  0.0852 -0.0428  0.0645
  732POPI    C311255   6.590   2.912   5.245 -0.1459 -0.0701 -0.3204
  732POPI   PO411256   6.417   2.660   5.697 -0.1449 -0.0021 -0.0269
  732POPI   GL111257   6.241   2.853   6.030  0.2067 -0.1375 -0.3100
  732POPI   GL211258   6.586   2.962   6.155 -0.0495  0.2812  0.0050
  732POPI   C1A11259   6.161   3.337   6.223 -0.3217  0.1435  0.0581
  732POPI   D2A11260   6.268   3.720   6.396 -0.2830  0.1521  0.1475
  732POPI   C3A11261   6.203   3.857   6.764  0.3067 -0.0894 -0.3300
  732POPI   C4A11262   6.067   3.962   7.142  0.0825 -0.0498  0.0893
  732POPI   C1B11263   6.827   2.672   6.413 -0.1393 -0.5108 -0.3509
  732POPI   C2B11264   6.922   2.583   6.840  0.3795  0.0898  0.0223
  732POPI   C3B11265   7.303   2.373   7.178 -0.1949  0.1228  0.1657
  732POPI   C4B11266   7.332   2.146   7.650  0.0683 -0.0402  0.0981
  733POPI    C111267  16.457   7.531   5.197  0.1625  0.2258 -0.0007
  733POPI    C211268  16.129   7.741   5.106 -0.1224 -0.1891  0.0414
  733POPI    C311269  16.317   7.529   4.822  0.1558  0.1032  0.0018
  733POPI   PO411270  16.695   7.650   5.238 -0.0412 -0.0312 -0.1223
  733POPI   GL111271  16.843   7.611   5.532  0.0930  0.0864 -0.0299
  733POPI   GL211272  17.063   7.828   5.629  0.1059  0.0200 -0.2708
  733POPI   C1A11273  16.589   7.701   5.949 -0.4690  0.1390  0.0413
  733POPI   D2A11274  16.735   7.975   6.360  0.0814 -0.2566 -0.0038
  733POPI   C3A11275  16.945   7.677   6.589 -0.0258  0.0918 -0.2016
  733POPI   C4A11276  17.040   7.676   6.997  0.2491  0.0693 -0.2114
  733POPI   C1B11277  17.105   7.604   6.078  0.0576  0.2866  0.1440
  733POPI   C2B11278  17.280   7.241   6.233 -0.0916  0.0919  0.1571
  733POPI   C3B11279  17.147   6.953   6.530 -0.2390 -0.2588 -0.1418
  733POPI   C4B11280  17.174   6.633   6.846 -0.0304 -0.0323  0.1255
  734POPI    C111281   9.678   6.098   4.736  0.1365 -0.0571 -0.0887
  734POPI    C211282   9.708   5.724   4.597 -0.0559 -0.1484  0.1100
  734POPI    C311283   9.355   5.862   4.727 -0.0577  0.2082 -0.2525
  734POPI   PO411284   9.815   6.099   4.927  0.0864 -0.3929  0.1117
  734POPI   GL111285   9.972   5.875   5.263  0.0496 -0.3681 -0.0548
  734POPI   GL211286   9.819   5.937   5.568  0.0449  0.1785 -0.0497
  734POPI   C1A11287  10.010   5.482   5.558  0.0321  0.0080 -0.1854
  734POPI   D2A11288  10.326   5.388   5.739 -0.0936  0.1396 -0.2360
  734POPI   C3A11289  10.392   5.312   6.186 -0.0253 -0.0558 -0.4512
  734POPI   C4A11290  10.689   5.346   6.475 -0.2261  0.0072  0.3160
  734POPI   C1B11291  10.138   5.908   5.962  0.1774 -0.2340 -0.0091
  734POPI   C2B11292  10.198   5.779   6.311 -0.0586  0.2232 -0.1829
  734POPI   C3B11293  10.437   5.743   6.659  0.1579 -0.1341  0.2011
  734POPI   C4B11294  10.573   5.515   6.955 -0.1615  0.1759  0.0895
  735POPI    C111295  10.120   1.857   5.366  0.2727  0.0986 -0.0891
  735POPI    C211296   9.968   1.545   5.564  0.2610  0.1554 -0.0086
  735POPI    C311297  10.182   1.485   5.232  0.3824  0.0522  0.0871
  735POPI   PO411298  10.327   1.980   5.485  0.0199 -0.0569  0.4382
  735POPI   GL111299  10.642   2.330   5.559 -0.2799 -0.4977  0.1116
  735POPI   GL211300  10.747   2.161   5.764 -0.2311 -0.0736  0.3432
  735POPI   C1A11301  10.610   2.728   5.827 -0.3641  0.0093  0.0615
  735POPI   D2A11302  10.707   2.945   6.146 -0.0216 -0.0008 -0.1187
  735POPI   C3A11303  11.006   3.030   6.355  0.1288  0.2508 -0.0200
  735POPI   C4A11304  10.984   3.096   6.741 -0.0119 -0.0610  0.1854
  735POPI   C1B11305  10.508   2.416   6.164  0.0288  0.3817 -0.0419
  735POPI   C2B11306  10.203   2.409   6.550 -0.3776 -0.0134 -0.0765
  735POPI   C3B11307  10.266   2.491   6.953  0.1581  0.0299  0.1858
  735POPI   C4B11308  10.495   2.792   7.214 -0.1265  0.5305 -0.0942
  736POPI    C111309  18.462  15.535   5.504  0.0692  0.1414 -0.0093
  736POPI    C211310  18.356  15.857   5.292  0.1003  0.0842 -0.1126
  736POPI    C311311  18.085  15.670   5.519  0.0850  0.1890 -0.0437
  736POPI   PO411312  18.640  15.652   5.710  0.2241 -0.0271  0.1400
  736POPI   GL111313  18.581  15.652   6.100 -0.0768  0.0930  0.0025
  736POPI   GL211314  18.304  15.521   6.339 -0.2263  0.0327  0.1379
  736POPI   C1A11315  18.773  15.607   6.441  0.2093  0.0036 -0.2078
  736POPI   D2A11316  19.035  15.468   6.601  0.2206 -0.3599 -0.2644
  736POPI   C3A11317  19.273  15.455   6.926  0.0014  0.3419  0.2167
  736POPI   C4A11318  19.627  15.487   7.185  0.1475  0.0555 -0.0859
  736POPI   C1B11319  18.435  15.498   6.766  0.1270  0.2414  0.1348
  736POPI   C2B11320  18.279  15.464   7.192  0.0895 -0.4872 -0.3978
  736POPI   C3B11321  17.913  15.521   7.310 -0.0458 -0.1204  0.0301
  736POPI   C4B11322  17.648  15.644   7.696  0.2246  0.3141  0.1396
  737POPI    C111323   1.460   0.009   5.513 -0.1148 -0.0573 -0.0108
  737POPI    C211324   1.517  -0.386   5.543  0.0597 -0.0361 -0.0546
  737POPI    C311325   1.148  -0.235   5.571 -0.0042 -0.1990 -0.0051
  737POPI   PO411326   1.681   0.096   5.721  0.3632 -0.2219 -0.0444
  737POPI   GL111327   1.731   0.349   6.013  0.3320 -0.1365  0.0846
  737POPI   GL211328   2.103   0.374   6.125 -0.0571 -0.0796  0.4707
  737POPI   C1A11329   1.616   0.654   6.443  0.0826 -0.1838  0.0304
  737POPI   D2A11330   1.370   0.690   6.841  0.1542 -0.0030 -0.1864
  737POPI   C3A11331   1.090   0.422   6.671  0.1341 -0.0164 -0.2291
  737POPI   C4A11332   0.821   0.384   6.438  0.0011 -0.6144  0.0501
  737POPI   C1B11333   2.168   0.284   6.602 -0.1783 -0.1308 -0.0630
  737POPI   C2B11334   2.280   0.309   7.072  0.0462 -0.0967 -0.1206
  737POPI   C3B11335   1.967   0.412   7.329 -0.1146 -0.4481 -0.1429
  737POPI   C4B11336   1.665   0.709   7.441 -0.1045 -0.1613  0.2325
  738POPI    C111337   3.606   0.492   5.879 -0.0093  0.1307  0.0489
  738POPI    C211338   3.346   0.266   6.083  0.1224  0.0659  0.1467
  738POPI    C311339   3.486   0.140   5.731  0.0270  0.0979  0.0970
  738POPI   PO411340   3.784   0.524   6.034  0.4819  0.3245 -0.1632
  738POPI   GL111341   3.833   0.453   6.458  0.1292  0.1055 -0.0579
  738POPI   GL211342   3.542   0.523   6.589  0.1533  0.2048  0.1771
  738POPI   C1A11343   3.652   0.035   6.557  0.0991 -0.0247  0.0042
  738POPI   D2A11344   3.554  -0.400   6.442  0.0261  0.0884  0.0946
  738POPI   C3A11345   3.410  -0.690   6.831 -0.1886  0.0526  0.0814
  738POPI   C4A11346   3.228  -0.785   7.255  0.2595  0.1376  0.1744
  738POPI   C1B11347   3.635   0.303   6.974 -0.0514  0.1762 -0.2129
  738POPI   C2B11348   3.731   0.120   7.315  0.0816  0.1358  0.2611
  738POPI   C3B11349   3.729  -0.140   7.637 -0.2586  0.0469  0.0412
  738POPI   C4B11350   3.877  -0.508   7.753  0.1066  0.3066 -0.1550
  739POPI    C111351  16.206  17.341   5.054  0.1894  0.4516  0.0127
  739POPI    C211352  16.060  17.189   4.714  0.0229  0.1519  0.2133
  739POPI    C311353  16.441  17.311   4.732  0.0543  0.1003 -0.0576
  739POPI   PO411354  16.108  17.111   5.229  0.1094  0.1405 -0.1953
  739POPI   GL111355  16.337  17.097   5.675  0.0566 -0.0352  0.3463
  739POPI   GL211356  16.619  17.025   5.631 -0.2169  0.1069  0.0055
  739POPI   C1A11357  16.334  16.970   6.142 -0.3490  0.1884  0.1323
  739POPI   D2A11358  16.026  16.634   6.338  0.0532  0.0566  0.3161
  739POPI   C3A11359  15.854  16.661   6.801  0.1295 -0.0997 -0.0120
  739POPI   C4A11360  15.650  16.449   7.203 -0.1074 -0.0743 -0.0604
  739POPI   C1B11361  16.654  16.676   5.858 -0.3126  0.0774 -0.3609
  739POPI   C2B11362  16.805  16.407   6.201 -0.1199  0.0809  0.2080
  739POPI   C3B11363  16.654  16.042   6.370 -0.0190 -0.2286 -0.0616
  739POPI   C4B11364  16.367  15.753   6.216  0.1423  0.0189 -0.0913
  740POPI    C111365  17.574  13.969   5.385 -0.2474  0.0040  0.1270
  740POPI    C211366  17.774  14.027   5.044  0.0398 -0.1990  0.2561
  740POPI    C311367  17.641  14.340   5.254 -0.0750 -0.0713 -0.0019
  740POPI   PO411368  17.730  13.681   5.397 -0.2116  0.0800 -0.2016
  740POPI   GL111369  17.872  13.545   5.801  0.1208  0.1519 -0.0804
  740POPI   GL211370  17.685  13.799   5.881 -0.0650  0.1359  0.4955
  740POPI   C1A11371  18.198  13.403   6.124 -0.1066  0.0664  0.0554
  740POPI   D2A11372  18.215  13.304   6.474  0.0209  0.3496 -0.1069
  740POPI   C3A11373  18.541  13.546   6.758 -0.0256 -0.4057 -0.4368
  740POPI   C4A11374  18.697  13.736   7.143  0.0504  0.0672  0.0682
  740POPI   C1B11375  17.710  13.649   6.267 -0.2870  0.1853 -0.2397
  740POPI   C2B11376  17.805  13.617   6.672 -0.0116 -0.2684 -0.4989
  740POPI   C3B11377  17.599  13.869   6.811  0.3636 -0.0995 -0.1345
  740POPI   C4B11378  17.212  14.011   6.870  0.1361  0.0001  0.0580
  741POPS   CNO11379   0.776   2.132   5.842  0.2256  0.2726 -0.0594
  741POPS   PO411380   1.198   2.083   6.002  0.1346 -0.0304 -0.2937
  741POPS   GL111381   0.813   2.144   6.308 -0.0605 -0.0692  0.1898
  741POPS   GL211382   0.636   1.822   6.347  0.3271 -0.1675  0.1306
  741POPS   C1A11383   0.827   2.105   6.805 -0.0930  0.0186  0.0868
  741POPS   D2A11384   1.034   2.160   7.206 -0.0665  0.0100  0.3100
  741POPS   C3A11385   1.145   2.501   7.529 -0.2186 -0.0335  0.0830
  741POPS   C4A11386   1.402   2.721   7.537 -0.1303 -0.0224 -0.1845
  741POPS   C1B11387   0.519   1.656   6.752 -0.0037 -0.3196 -0.3053
  741POPS   C2B11388   0.174   1.622   7.047 -0.0470  0.3539  0.1326
  741POPS   C3B11389   0.208   1.730   7.472  0.1083 -0.1546 -0.1410
  741POPS   C4B11390   0.151   1.908   7.867 -0.1083 -0.1334  0.0735
  742POPS   CNO11391  12.624  10.382   5.605  0.0947  0.0100  0.2125
  742POPS   PO411392  12.471  10.032   5.594  0.0442 -0.0478 -0.0580
  742POPS   GL111393  12.333  10.178   6.035  0.0326  0.0529  0.0228
  742POPS   GL211394  12.509  10.450   6.180  0.1177 -0.2036 -0.1429
  742POPS   C1A11395  12.100  10.367   6.396 -0.1239 -0.1849 -0.0806
  742POPS   D2A11396  12.069  10.415   6.817  0.0345 -0.2245  0.0261
  742POPS   C3A11397  11.767  10.279   7.140  0.0959 -0.1897 -0.0085
  742POPS   C4A11398  11.664  10.168   7.482 -0.1976  0.0706  0.0252
  742POPS   C1B11399  12.505  10.606   6.656  0.0819 -0.0477  0.0079
  742POPS   C2B11400  12.572  10.495   7.050  0.0018  0.1949  0.0097
  742POPS   C3B11401  12.613  10.315   7.445  0.1623  0.2333 -0.2497
  742POPS   C4B11402  12.457  10.313   7.773 -0.1171  0.3731 -0.2152
  743POPS   CNO11403   5.822   2.225   5.115 -0.4350 -0.0838 -0.0047
  743POPS   PO411404   5.821   2.493   5.311  0.2063  0.0310 -0.3297
  743POPS   GL111405   5.924   2.621   5.711  0.1638  0.3375 -0.0913
  743POPS   GL211406   5.623   2.744   5.705  0.0293 -0.1364 -0.1801
  743POPS   C1A11407   5.769   2.918   6.130  0.0726  0.1820  0.4047
  743POPS   D2A11408   5.840   2.995   6.542 -0.1013  0.1381  0.0510
  743POPS   C3A11409   6.236   3.074   6.636 -0.1348 -0.2327  0.2399
  743POPS   C4A11410   6.475   3.455   6.810  0.0375 -0.0110 -0.2750
  743POPS   C1B11411   5.298   2.733   6.051 -0.2538 -0.2467  0.1941
  743POPS   C2B11412   5.084   2.479   6.327 -0.2310 -0.1482 -0.1429
  743POPS   C3B11413   5.138   2.410   6.916 -0.1444  0.0944 -0.0233
  743POPS   C4B11414   5.234   2.203   7.318 -0.3314  0.0704 -0.4582
  744POPS   CNO11415  10.260  10.680   5.323 -0.1514  0.1742  0.3041
  744POPS   PO411416  10.473  10.562   5.696  0.0945 -0.3280 -0.3269
  744POPS   GL111417  10.402  10.484   6.109  0.0015 -0.0642 -0.1942
  744POPS   GL211418  10.350  10.713   6.313 -0.1318  0.4007  0.1556
  744POPS   C1A11419  10.068  10.314   6.403  0.8016 -0.0291 -0.0915
  744POPS   D2A11420   9.798  10.032   6.519  0.2360 -0.0482  0.1597
  744POPS   C3A11421   9.839   9.729   6.908 -0.2207  0.1084  0.3852
  744POPS   C4A11422   9.832   9.515   7.296  0.2520  0.2252  0.3821
  744POPS   C1B11423  10.189  10.814   6.739 -0.2437  0.1226  0.0434
  744POPS   C2B11424   9.882  10.871   7.090  0.1531  0.2335  0.0587
  744POPS   C3B11425   9.531  10.921   7.305 -0.2782 -0.0170 -0.3072
  744POPS   C4B11426   9.070  10.928   7.110 -0.0252 -0.0646 -0.0723
  745POPS   CNO11427   9.165   4.397   4.567 -0.1133 -0.1060  0.1369
  745POPS   PO411428   9.368   4.748   4.884  0.0471 -0.0478 -0.1736
  745POPS   GL111429   9.394   5.079   5.089 -0.0126 -0.1835  0.2937
  745POPS   GL211430   9.371   5.324   4.911  0.0861  0.2169  0.2672
  745POPS   C1A11431   9.606   5.254   5.420 -0.1025  0.1188 -0.0399
  745POPS   D2A11432   9.452   5.483   5.751 -0.2298  0.1226 -0.0489
  745POPS   C3A11433   9.476   5.105   6.056 -0.5596 -0.1282 -0.1441
  745POPS   C4A11434   9.652   4.982   6.534  0.0603 -0.1699  0.1240
  745POPS   C1B11435   9.071   5.225   5.373 -0.1504 -0.1132 -0.0970
  745POPS   C2B11436   9.111   4.995   5.766  0.1503  0.0097  0.0694
  745POPS   C3B11437   9.166   4.763   6.079 -0.0382 -0.0809 -0.1254
  745POPS   C4B11438   9.000   4.371   6.374  0.2049  0.1581  0.0399
  746POPS   CNO11439  15.352   2.112   4.992 -0.1477  0.0837  0.1335
  746POPS   PO411440  15.754   2.233   5.154 -0.1366  0.2160  0.0480
  746POPS   GL111441  15.739   2.077   5.507 -0.0768  0.2286  0.0014
  746POPS   GL211442  15.480   2.289   5.770 -0.1788  0.1297  0.0653
  746POPS   C1A11443  15.819   1.938   5.894  0.0267 -0.3206 -0.0499
  746POPS   D2A11444  15.528   1.776   6.176 -0.0472  0.3289  0.1379
  746POPS   C3A11445  15.713   1.968   6.595  0.0175 -0.0157  0.0004
  746POPS   C4A11446  15.736   2.197   6.952 -0.1654 -0.0147 -0.0823
  746POPS   C1B11447  15.507   2.246   6.301 -0.0708  0.1317  0.0113
  746POPS   C2B11448  15.284   2.250   6.667 -0.4265 -0.0324 -0.0305
  746POPS   C3B11449  15.258   2.347   7.135 -0.2700 -0.0373  0.1125
  746POPS   C4B11450  15.070   2.639   7.328 -0.2771 -0.2368  0.3392
  747POPS   CNO11451   1.127  15.972   5.305  0.1010  0.0634 -0.0936
  747POPS   PO411452   1.201  15.524   5.435 -0.1045 -0.0955 -0.2436
  747POPS   GL111453   0.986  15.155   5.660  0.0716 -0.1525  0.0608
  747POPS   GL211454   0.764  15.183   5.859  0.2354  0.0506  0.0319
  747POPS   C1A11455   1.156  14.877   5.938 -0.0901  0.0884  0.0006
  747POPS   D2A11456   1.065  14.841   6.335 -0.0771 -0.1969 -0.0636
  747POPS   C3A11457   0.688  15.119   6.464  0.1510 -0.0204  0.1840
  747POPS   C4A11458   0.487  15.226   6.771 -0.1564  0.0783 -0.2484
  747POPS   C1B11459   0.647  14.808   6.067 -0.1096  0.0171  0.1652
  747POPS   C2B11460   0.366  14.695   6.435 -0.2417  0.0414 -0.3109
  747POPS   C3B11461   0.309  14.551   6.924 -0.3533 -0.0250 -0.2762
  747POPS   C4B11462   0.022  14.387   6.935  0.5687 -0.0255 -0.0344
  748POPS   CNO11463   7.961  13.949   4.334 -0.0093 -0.2819  0.2501
  748POPS   PO411464   7.695  14.138   4.635 -0.0166  0.0158 -0.0946
  748POPS   GL111465   7.683  13.832   4.999  0.0617  0.0007 -0.5364
  748POPS   GL211466   7.407  13.932   5.212 -0.3796  0.0002  0.2355
  748POPS   C1A11467   7.811  13.885   5.499 -0.3389 -0.2632  0.3283
  748POPS   D2A11468   7.906  13.943   5.939  0.2071  0.4831 -0.2099
  748POPS   C3A11469   7.997  14.224   6.250 -0.1030 -0.0482  0.2093
  748POPS   C4A11470   8.362  14.500   6.521 -0.3418 -0.0449  0.4460
  748POPS   C1B11471   7.186  13.685   5.629  0.3509 -0.2123  0.0741
  748POPS   C2B11472   7.151  13.376   5.950  0.1216 -0.0757 -0.0004
  748POPS   C3B11473   6.940  13.294   6.320  0.2627  0.0262  0.0739
  748POPS   C4B11474   6.744  13.073   6.551 -0.1249 -0.0565 -0.3474
  749POPS   CNO11475   7.244   3.763   5.460  0.2343  0.0542  0.3038
  749POPS   PO411476   7.605   3.569   5.241 -0.2779  0.0284  0.0533
  749POPS   GL111477   7.694   3.580   5.619 -0.1263  0.0174  0.0979
  749POPS   GL211478   7.915   3.842   5.704  0.1876  0.1696 -0.0581
  749POPS   C1A11479   7.538   3.404   6.041  0.0055 -0.1298  0.1632
  749POPS   D2A11480   7.626   3.461   6.431 -0.0098  0.2172  0.1090
  749POPS   C3A11481   7.769   3.236   6.638  0.1622 -0.0661 -0.1362
  749POPS   C4A11482   7.708   2.971   6.283 -0.1679  0.0403  0.3849
  749POPS   C1B11483   8.045   4.011   6.062  0.1033 -0.1626  0.0575
  749POPS   C2B11484   8.102   4.108   6.449  0.0657 -0.0379 -0.0805
  749POPS   C3B11485   8.284   4.093   6.793 -0.0441  0.0338 -0.1609
  749POPS   C4B11486   8.634   3.856   6.939 -0.1172 -0.1430  0.0620
  750POPS   CNO11487  18.529  13.676   5.488  0.1130 -0.2599  0.2448
  750POPS   PO411488  18.736  14.113   5.367  0.2190 -0.0973  0.0658
  750POPS   GL111489  18.756  13.989   5.817 -0.0304  0.1406 -0.2309
  750POPS   GL211490  19.068  13.779   5.990  0.0272  0.2124  0.1790
  750POPS   C1A11491  18.616  14.153   6.219  0.1646 -0.0266 -0.4968
  750POPS   D2A11492  18.444  14.477   6.620 -0.2235 -0.0728  0.0650
  750POPS   C3A11493  18.741  14.615   6.952  0.1441 -0.2183 -0.1179
  750POPS   C4A11494  18.752  14.700   7.329 -0.0323  0.1494 -0.2304
  750POPS   C1B11495  19.188  13.496   6.364  0.2376  0.3551 -0.3873
  750POPS   C2B11496  19.026  13.477   6.800  0.0973  0.0913  0.1249
  750POPS   C3B11497  19.064  13.337   7.249  0.1071  0.1946  0.0766
  750POPS   C4B11498  18.769  13.208   7.575  0.1491  0.1029 -0.0236
  751POPS   CNO11499  10.564   2.768   4.730 -0.2912  0.2405  0.0835
  751POPS   PO411500  10.962   2.947   4.870  0.3122  0.1066  0.0532
  751POPS   GL111501  11.162   3.094   5.232  0.0254  0.0735 -0.1728
  751POPS   GL211502  10.984   2.974   5.598  0.0693 -0.2235  0.0538
  751POPS   C1A11503  11.447   3.179   5.552 -0.0355  0.1074 -0.0167
  751POPS   D2A11504  11.474   2.901   5.827  0.0878 -0.1031  0.0419
  751POPS   C3A11505  11.106   2.644   6.034 -0.2442 -0.0218 -0.3251
  751POPS   C4A11506  10.851   2.570   6.439 -0.1606  0.0495  0.2504
  751POPS   C1B11507  10.949   3.213   5.918  0.0059 -0.1229 -0.0086
  751POPS   C2B11508  10.708   3.520   6.099  0.0977  0.3342  0.2676
  751POPS   C3B11509  10.385   3.400   6.329 -0.0964 -0.1353 -0.0521
  751POPS   C4B11510  10.379   3.371   6.839 -0.2709  0.2009  0.0789
  752POPS   CNO11511   5.123  10.347   4.847  0.2345  0.0357  0.3343
  752POPS   PO411512   4.655  10.182   4.986  0.1079 -0.1249  0.0349
  752POPS   GL111513   4.681  10.335   5.334  0.0224  0.0637 -0.0875
  752POPS   GL211514   4.860  10.579   5.443 -0.0515 -0.1173  0.0943
  752POPS   C1A11515   4.506  10.433   5.797 -0.0411  0.1126  0.0315
  752POPS   D2A11516   4.383  10.506   6.141  0.1306 -0.0467  0.1480
  752POPS   C3A11517   4.700  10.444   6.459  0.3979  0.0524  0.0675
  752POPS   C4A11518   4.830  10.318   6.889  0.1493 -0.1572  0.4461
  752POPS   C1B11519   4.791  10.990   5.574  0.2022  0.3105  0.2564
  752POPS   C2B11520   4.605  11.469   5.611 -0.3225  0.3824 -0.0652
  752POPS   C3B11521   4.421  11.646   6.024 -0.0607  0.0058 -0.3251
  752POPS   C4B11522   4.124  11.570   6.544  0.2606  0.0226  0.2319
  753POPS   CNO11523  17.362  10.535   4.880  0.0752 -0.1399 -0.2706
  753POPS   PO411524  17.776  10.652   4.716 -0.1004 -0.2605  0.2126
  753POPS   GL111525  17.699  10.779   5.151  0.1926  0.1232  0.1185
  753POPS   GL211526  17.844  11.105   5.153  0.0579 -0.1301 -0.1720
  753POPS   C1A11527  17.746  10.700   5.644 -0.1068 -0.1111  0.0107
  753POPS   D2A11528  17.989  10.922   5.899 -0.0152  0.3089  0.3693
  753POPS   C3A11529  17.769  10.833   6.172 -0.0846 -0.0748 -0.0827
  753POPS   C4A11530  17.441  10.562   6.014 -0.0291 -0.1611  0.0479
  753POPS   C1B11531  17.582  11.211   5.515 -0.3020  0.6564 -0.1777
  753POPS   C2B11532  17.397  11.062   5.961 -0.0226  0.1185  0.2369
  753POPS   C3B11533  17.048  10.866   6.100  0.1261 -0.2529  0.1840
  753POPS   C4B11534  16.865  10.464   6.129  0.3326  0.2503 -0.1109
  754POPS   CNO11535  12.625   3.064   5.322  0.0904 -0.1824 -0.0457
  754POPS   PO411536  13.018   2.916   5.000 -0.1260 -0.1456  0.1958
  754POPS   GL111537  13.042   2.680   5.374 -0.1246 -0.1211 -0.2041
  754POPS   GL211538  13.055   2.875   5.573 -0.0382 -0.0577 -0.0437
  754POPS   C1A11539  12.823   2.345   5.616 -0.2634  0.0624  0.2077
  754POPS   D2A11540  12.435   2.200   5.828  0.0955  0.1985 -0.2252
  754POPS   C3A11541  12.349   1.973   6.171  0.2595 -0.0056  0.0139
  754POPS   C4A11542  12.415   1.519   6.323 -0.2301 -0.0169  0.0825
  754POPS   C1B11543  13.137   3.143   5.926  0.1691 -0.3600  0.1592
  754POPS   C2B11544  13.177   3.416   6.224  0.2134 -0.0893  0.3982
  754POPS   C3B11545  13.128   3.359   6.655  0.2096  0.1320 -0.2703
  754POPS   C4B11546  13.018   3.150   6.959  0.0073 -0.0218  0.2361
  755POPS   CNO11547   8.396   6.430   5.063  0.0640 -0.3442 -0.0764
  755POPS   PO411548   8.072   6.627   5.382 -0.2367 -0.0636 -0.0325
  755POPS   GL111549   8.032   6.643   5.805 -0.0121  0.2211 -0.2239
  755POPS   GL211550   7.744   6.840   5.820  0.2194  0.2002 -0.0457
  755POPS   C1A11551   7.913   6.459   6.192  0.0795 -0.0211 -0.1603
  755POPS   D2A11552   7.952   6.388   6.520 -0.2902  0.1121 -0.3241
  755POPS   C3A11553   8.043   6.526   6.905 -0.0560  0.2115 -0.2547
  755POPS   C4A11554   8.064   6.653   7.284  0.0187  0.2285 -0.5050
  755POPS   C1B11555   7.493   6.993   6.098  0.1022 -0.0297 -0.0269
  755POPS   C2B11556   7.454   7.183   6.558  0.1806  0.0945  0.1539
  755POPS   C3B11557   7.359   7.179   7.000 -0.0429  0.0434 -0.1015
  755POPS   C4B11558   7.562   7.126   7.403  0.2571  0.0714  0.0951
  756POPS   CNO11559  12.754  11.877   5.771 -0.0861  0.1774  0.0303
  756POPS   PO411560  13.132  12.052   5.779 -0.1691  0.1445  0.1376
  756POPS   GL111561  13.179  11.820   6.119 -0.0311  0.0612 -0.1410
  756POPS   GL211562  13.509  11.979   6.199  0.0625  0.1095 -0.2906
  756POPS   C1A11563  12.959  11.814   6.388  0.5116 -0.2837 -0.0229
  756POPS   D2A11564  12.677  11.577   6.622  0.3010  0.0543  0.3337
  756POPS   C3A11565  12.796  11.340   6.966 -0.0069 -0.1518  0.0187
  756POPS   C4A11566  13.006  11.462   7.280 -0.1349  0.2644  0.1827
  756POPS   C1B11567  13.473  11.753   6.530  0.0426 -0.1039  0.1390
  756POPS   C2B11568  13.596  11.663   6.987  0.1700  0.5046  0.0588
  756POPS   C3B11569  13.491  11.657   7.441 -0.1705 -0.0111 -0.1110
  756POPS   C4B11570  13.266  11.600   7.707 -0.1477  0.0331 -0.2166
  757POPS   CNO11571  13.983  17.448   5.473 -0.2044  0.0886  0.3423
  757POPS   PO411572  13.561  17.597   5.280 -0.0699  0.0630 -0.0276
  757POPS   GL111573  13.504  17.524   5.634  0.2210  0.1345 -0.3004
  757POPS   GL211574  13.284  17.335   5.727  0.0399  0.1373 -0.0236
  757POPS   C1A11575  13.813  17.346   5.931 -0.1389  0.1135  0.1068
  757POPS   D2A11576  14.075  17.572   6.268  0.2006 -0.0076 -0.2573
  757POPS   C3A11577  13.818  17.923   6.575 -0.1651 -0.1745  0.1263
  757POPS   C4A11578  13.771  18.042   7.053  0.2459 -0.3457  0.1740
  757POPS   C1B11579  13.189  17.310   6.097  0.0042 -0.3278 -0.0786
  757POPS   C2B11580  13.070  17.180   6.479  0.1273  0.2931 -0.0683
  757POPS   C3B11581  12.751  17.142   6.844 -0.0392  0.0510  0.0181
  757POPS   C4B11582  12.468  16.807   6.977  0.0189 -0.1876 -0.0354
  758POPS   CNO11583   9.913  14.583   5.400  0.0317  0.0120 -0.0501
  758POPS   PO411584   9.509  14.615   5.632 -0.0858  0.1558 -0.1171
  758POPS   GL111585   9.716  14.518   5.989 -0.3330  0.1028 -0.1513
  758POPS   GL211586   9.907  14.776   6.208  0.0025 -0.1114  0.0500
  758POPS   C1A11587   9.794  14.332   6.404 -0.1049 -0.3073  0.0503
  758POPS   D2A11588  10.060  14.450   6.711  0.2300 -0.2267  0.3508
  758POPS   C3A11589  10.123  14.761   7.009 -0.0207  0.0369  0.0090
  758POPS   C4A11590  10.411  14.829   7.269  0.0929 -0.0100 -0.0103
  758POPS   C1B11591  10.002  15.046   6.556 -0.1010  0.4243  0.4207
  758POPS   C2B11592  10.119  15.293   6.817 -0.0238 -0.2523  0.1966
  758POPS   C3B11593  10.108  15.597   7.117  0.2910 -0.0598 -0.2150
  758POPS   C4B11594   9.966  15.682   7.533  0.2727  0.2745  0.0189
  759POPS   CNO11595  19.033   2.205   5.133 -0.0236  0.1177 -0.0909
  759POPS   PO411596  19.296   1.844   5.353 -0.0862 -0.0322 -0.2263
  759POPS   GL111597  19.296   1.849   5.847  0.0167 -0.1917 -0.0285
  759POPS   GL211598  19.319   1.649   6.145  0.1250 -0.1515  0.0698
  759POPS   C1A11599  18.992   1.998   6.118  0.1007 -0.4312 -0.3016
  759POPS   D2A11600  18.901   2.244   6.581 -0.1393  0.0584 -0.0952
  759POPS   C3A11601  18.691   2.586   6.462  0.0388 -0.1318  0.2622
  759POPS   C4A11602  18.461   2.964   6.597  0.2582 -0.1106  0.3047
  759POPS   C1B11603  19.035   1.654   6.432 -0.0159 -0.3535  0.0382
  759POPS   C2B11604  18.873   1.790   6.785 -0.0145  0.1245 -0.1509
  759POPS   C3B11605  18.860   1.480   7.095 -0.1134  0.1305 -0.2878
  759POPS   C4B11606  18.655   1.147   7.153 -0.0664  0.1889  0.2156
  760POPS   CNO11607  11.630   1.748   5.430 -0.1407  0.1187  0.0952
  760POPS   PO411608  12.014   1.773   5.440  0.3415 -0.0569 -0.0046
  760POPS   GL111609  11.996   1.657   5.863  0.1162 -0.0272 -0.2277
  760POPS   GL211610  11.832   1.951   6.074 -0.1671  0.0385 -0.3181
  760POPS   C1A11611  11.920   1.483   6.178 -0.2251  0.2895 -0.2271
  760POPS   D2A11612  11.911   1.268   6.596  0.0485 -0.0039  0.0380
  760POPS   C3A11613  12.073   1.293   6.932  0.2318  0.0093 -0.1467
  760POPS   C4A11614  11.967   1.029   7.262  0.0215 -0.1412 -0.0244
  760POPS   C1B11615  12.021   1.932   6.545 -0.1384 -0.0045 -0.0960
  760POPS   C2B11616  12.299   1.833   6.706  0.0463  0.4423 -0.2081
  760POPS   C3B11617  12.422   1.643   7.107  0.3115  0.1268  0.0258
  760POPS   C4B11618  12.573   1.625   7.460  0.0929 -0.0829 -0.2433
  761POPS   CNO11619  17.387   3.741   5.531 -0.1102  0.1444  0.0934
  761POPS   PO411620  17.736   3.997   5.276  0.0679  0.3569 -0.0776
  761POPS   GL111621  17.813   4.050   5.728 -0.3128  0.2257 -0.0554
  761POPS   GL211622  17.613   4.269   5.724  0.1267 -0.2814 -0.2631
  761POPS   C1A11623  17.780   4.012   6.186 -0.1382  0.1868  0.1889
  761POPS   D2A11624  17.804   4.213   6.612  0.0785  0.1071  0.2568
  761POPS   C3A11625  17.434   4.016   6.864  0.0538  0.1034  0.0930
  761POPS   C4A11626  17.263   3.904   7.336  0.0001 -0.0656 -0.0220
  761POPS   C1B11627  17.623   4.554   6.067 -0.0649  0.2335 -0.1295
  761POPS   C2B11628  17.591   4.873   6.431  0.2244  0.2775 -0.2243
  761POPS   C3B11629  17.657   5.162   6.670 -0.1604 -0.1986  0.0308
  761POPS   C4B11630  17.362   5.338   6.894 -0.1313 -0.3231 -0.3077
  762POPS   CNO11631  11.850   0.424   5.118  0.0274  0.2057 -0.1588
  762POPS   PO411632  11.601   0.678   5.347  0.2509 -0.3213 -0.1959
  762POPS   GL111633  11.451   0.422   5.695  0.0690  0.0072  0.0810
  762POPS   GL211634  11.535   0.166   5.511 -0.0096  0.0054 -0.3428
  762POPS   C1A11635  11.386   0.424   6.180 -0.2054  0.1860 -0.1478
  762POPS   D2A11636  11.380   0.379   6.652  0.1915  0.0671  0.0170
  762POPS   C3A11637  11.629   0.207   6.906 -0.0326  0.0269 -0.1137
  762POPS   C4A11638  11.679  -0.130   7.076  0.1168 -0.0881 -0.2381
  762POPS   C1B11639  11.783   0.230   5.964  0.4675  0.0918 -0.1821
  762POPS   C2B11640  11.876   0.337   6.424  0.0557  0.2192  0.2884
  762POPS   C3B11641  12.122   0.312   6.732  0.1037  0.0855  0.4470
  762POPS   C4B11642  12.069   0.391   7.176  0.0753  0.0584  0.1814
  763POPS   CNO11643  11.153   7.189   5.345 -0.1262  0.2107  0.2041
  763POPS   PO411644  10.998   7.592   5.542 -0.0808  0.0791  0.2095
  763POPS   GL111645  10.842   7.715   5.950 -0.1024 -0.1678 -0.1587
  763POPS   GL211646  10.654   7.415   6.103 -0.1298  0.1700 -0.2354
  763POPS   C1A11647  11.036   7.818   6.344  0.1962  0.1882 -0.1518
  763POPS   D2A11648  11.081   7.637   6.757 -0.0288  0.0690  0.1988
  763POPS   C3A11649  10.954   7.773   7.055 -0.1213 -0.0475 -0.0349
  763POPS   C4A11650  11.114   7.624   7.472 -0.0666 -0.2724 -0.2297
  763POPS   C1B11651  10.727   7.435   6.465  0.0421 -0.0154 -0.1778
  763POPS   C2B11652  10.579   7.425   6.901 -0.0759  0.2058 -0.0673
  763POPS   C3B11653  10.642   7.435   7.310 -0.1587  0.2544 -0.1438
  763POPS   C4B11654  10.927   7.191   7.589  0.2670 -0.2902  0.2919
  764POPS   CNO11655  14.467  18.133   5.114 -0.0983  0.0346  0.2931
  764POPS   PO411656  14.742  17.856   5.283 -0.2169 -0.0016  0.1258
  764POPS   GL111657  14.934  17.838   5.623  0.1885 -0.2735 -0.4077
  764POPS   GL211658  15.263  17.748   5.761 -0.4308 -0.2097  0.0176
  764POPS   C1A11659  14.905  18.033   5.894  0.1487  0.2041 -0.0842
  764POPS   D2A11660  15.071  18.110   6.277  0.2989  0.0879  0.0339
  764POPS   C3A11661  15.490  17.950   6.486 -0.0620 -0.0024 -0.0879
  764POPS   C4A11662  15.884  18.039   6.676 -0.0330 -0.1889  0.0273
  764POPS   C1B11663  15.276  17.680   6.120  0.2798 -0.2908 -0.0163
  764POPS   C2B11664  15.478  17.481   6.376  0.0151  0.0416  0.0532
  764POPS   C3B11665  15.586  17.453   6.724  0.1031  0.0935 -0.3069
  764POPS   C4B11666  15.872  17.271   7.109 -0.2479  0.0484 -0.0134
  765POPS   CNO11667  14.731  10.961   5.033 -0.0952  0.0803 -0.1206
  765POPS   PO411668  14.614  10.825   5.443 -0.0176  0.0162 -0.1025
  765POPS   GL111669  14.459  10.708   5.836  0.0486  0.1583  0.0971
  765POPS   GL211670  14.322  10.417   5.955 -0.1823 -0.0087 -0.0607
  765POPS   C1A11671  14.634  10.627   6.364  0.0024 -0.3291 -0.1457
  765POPS   D2A11672  14.445  10.558   6.690 -0.2297 -0.0385  0.0841
  765POPS   C3A11673  14.290  10.132   6.795 -0.0756 -0.0622 -0.1936
  765POPS   C4A11674  14.544   9.786   7.046 -0.2399 -0.2337 -0.1470
  765POPS   C1B11675  14.169  10.339   6.323 -0.0461 -0.2066 -0.0090
  765POPS   C2B11676  13.905  10.061   6.426 -0.1291  0.2997 -0.0683
  765POPS   C3B11677  13.685   9.864   6.387 -0.0528  0.0914  0.2177
  765POPS   C4B11678  13.768   9.323   6.455 -0.3150  0.3234  0.2677
  766POPS   CNO11679   1.669   5.742   5.128 -0.0019 -0.0714  0.1811
  766POPS   PO411680   1.443   5.449   5.351  0.2571 -0.0851  0.0730
  766POPS   GL111681   1.585   5.348   5.726 -0.2359  0.1361  0.1042
  766POPS   GL211682   1.902   5.221   5.755  0.0566 -0.2358  0.1546
  766POPS   C1A11683   1.581   5.511   6.163  0.1084 -0.1968  0.0814
  766POPS   D2A11684   1.379   5.771   6.425 -0.1159  0.0213 -0.0625
  766POPS   C3A11685   1.224   5.555   6.829 -0.0783 -0.3026 -0.0906
  766POPS   C4A11686   1.400   5.684   7.256 -0.3347  0.2403  0.1717
  766POPS   C1B11687   2.056   5.436   6.033  0.1692  0.1389  0.1686
  766POPS   C2B11688   2.124   5.387   6.456 -0.1769  0.0653 -0.1832
  766POPS   C3B11689   2.479   5.339   6.652 -0.0484  0.0624  0.0863
  766POPS   C4B11690   2.772   5.502   6.981  0.0134 -0.0052  0.0228
  767POPS   CNO11691   2.976   6.796   4.948  0.1829  0.0303 -0.2478
  767POPS   PO411692   2.615   6.606   5.170  0.2941 -0.0138  0.0130
  767POPS   GL111693   2.641   6.979   5.394 -0.1940  0.0273  0.3401
  767POPS   GL211694   2.418   6.803   5.594 -0.0991 -0.0619  0.1167
  767POPS   C1A11695   2.798   7.034   5.852 -0.0908  0.2185 -0.1117
  767POPS   D2A11696   3.171   7.064   6.225  0.3442 -0.3208 -0.1955
  767POPS   C3A11697   2.940   6.779   6.456 -0.1380  0.1946 -0.2436
  767POPS   C4A11698   2.790   6.515   6.775  0.4607 -0.1032 -0.2730
  767POPS   C1B11699   2.385   6.774   6.003 -0.2607  0.1634  0.0500
  767POPS   C2B11700   2.471   6.776   6.434  0.2385  0.1131  0.1835
  767POPS   C3B11701   2.467   6.940   6.881  0.1729  0.1532  0.2025
  767POPS   C4B11702   2.666   7.273   7.216 -0.1571  0.1809  0.0774
  768POPS   CNO11703  15.504  10.162   5.264 -0.0017 -0.0318  0.3717
  768POPS   PO411704  15.423  10.509   5.577  0.1551  0.2268 -0.0427
  768POPS   GL111705  15.298  10.292   5.948 -0.3239  0.0395  0.0190
  768POPS   GL211706  14.936  10.433   6.097  0.1645 -0.2206  0.2468
  768POPS   C1A11707  15.369  10.230   6.403 -0.2459 -0.1211 -0.0880
  768POPS   D2A11708  15.395  10.163   6.876  0.1272  0.0887 -0.0426
  768POPS   C3A11709  15.207   9.794   7.086 -0.1947  0.3630 -0.1736
  768POPS   C4A11710  14.947   9.663   7.288  0.0449  0.0893 -0.0493
  768POPS   C1B11711  14.857  10.150   6.528 -0.0285  0.0167  0.1996
  768POPS   C2B11712  14.778  10.247   6.911  0.1231  0.1473 -0.1801
  768POPS   C3B11713  14.738  10.135   7.411  0.1125  0.4608 -0.0969
  768POPS   C4B11714  14.328  10.165   7.669  0.1457  0.2408  0.0217
  769POPS   CNO11715   1.056   8.745   4.870  0.2819 -0.1204 -0.1449
  769POPS   PO411716   1.299   8.877   5.104 -0.1955  0.0445 -0.0524
  769POPS   GL111717   1.441   8.828   5.459  0.3964  0.0095  0.0902
  769POPS   GL211718   1.598   8.532   5.499  0.0635 -0.0605 -0.3372
  769POPS   C1A11719   1.233   8.987   5.864  0.1244  0.1790  0.1488
  769POPS   D2A11720   1.102   9.149   6.182 -0.2131 -0.0131 -0.1563
  769POPS   C3A11721   1.188   9.408   6.603 -0.0430  0.0504 -0.0888
  769POPS   C4A11722   1.013   9.357   7.062  0.1558 -0.0149  0.1483
  769POPS   C1B11723   1.598   8.417   5.951 -0.0705 -0.0530  0.1224
  769POPS   C2B11724   1.487   8.728   6.197  0.1306 -0.2432 -0.1103
  769POPS   C3B11725   1.278   8.798   6.482  0.1494 -0.0527  0.4939
  769POPS   C4B11726   1.261   8.920   6.896  0.1322 -0.3516  0.1112
  770POPS   CNO11727  18.803   2.586   5.441 -0.2821 -0.0111  0.1385
  770POPS   PO411728  19.101   2.722   5.755 -0.1301  0.1737 -0.1387
  770POPS   GL111729  19.071   2.687   6.142  0.0263  0.4023 -0.1651
  770POPS   GL211730  18.898   2.995   6.164 -0.3459 -0.0826  0.0684
  770POPS   C1A11731  19.159   2.666   6.561 -0.1244 -0.0006  0.2417
  770POPS   D2A11732  18.914   2.760   6.930  0.1897  0.0109  0.0310
  770POPS   C3A11733  18.948   2.661   7.398 -0.1702  0.1670  0.1104
  770POPS   C4A11734  19.159   2.763   7.687 -0.3075 -0.1327  0.0044
  770POPS   C1B11735  18.888   3.149   6.540 -0.1940 -0.1145 -0.1540
  770POPS   C2B11736  18.697   3.274   6.878  0.0710 -0.0694  0.0313
  770POPS   C3B11737  18.303   3.522   6.986 -0.0361 -0.1557 -0.0723
  770POPS   C4B11738  18.008   3.402   7.236  0.0092 -0.0845  0.2672
  771POPS   CNO11739   5.617   3.485   5.439  0.1829 -0.0186 -0.1544
  771POPS   PO411740   5.440   3.646   5.704  0.2341 -0.3612  0.2817
  771POPS   GL111741   5.397   3.690   6.159 -0.0352 -0.4464  0.0508
  771POPS   GL211742   5.381   3.448   6.276 -0.2284 -0.2861  0.2392
  771POPS   C1A11743   5.769   3.531   6.536  0.0300 -0.2838  0.0420
  771POPS   D2A11744   5.948   3.450   6.932 -0.3146 -0.0398 -0.0867
  771POPS   C3A11745   5.660   3.116   7.064  0.3192 -0.0698 -0.2642
  771POPS   C4A11746   5.452   2.837   7.025 -0.0695 -0.4727  0.3357
  771POPS   C1B11747   5.318   3.434   6.743  0.0203 -0.0676 -0.0100
  771POPS   C2B11748   5.435   3.631   7.049  0.0224 -0.0598  0.1173
  771POPS   C3B11749   5.675   3.628   7.298 -0.1171  0.0684 -0.0821
  771POPS   C4B11750   6.099   3.587   7.539 -0.1194  0.0432 -0.0669
  772POPS   CNO11751  16.432   1.208   5.511 -0.1070 -0.0863  0.0318
  772POPS   PO411752  16.151   0.993   5.249 -0.3100 -0.2727 -0.0108
  772POPS   GL111753  15.871   1.136   5.579 -0.3568 -0.1243 -0.5246
  772POPS   GL211754  15.737   1.474   5.689 -0.2498  0.1121  0.0976
  772POPS   C1A11755  15.598   1.101   6.008  0.1603 -0.1072  0.0513
  772POPS   D2A11756  15.511   0.779   6.381 -0.1763 -0.1907 -0.2357
  772POPS   C3A11757  15.541   0.967   6.766 -0.0472  0.1444 -0.3942
  772POPS   C4A11758  15.852   0.871   7.031 -0.0318  0.2288  0.0224
  772POPS   C1B11759  16.108   1.480   5.883 -0.3340  0.0305 -0.2084
  772POPS   C2B11760  16.080   1.713   6.302 -0.2694  0.2644 -0.0708
  772POPS   C3B11761  16.228   1.954   6.582 -0.1285 -0.1156 -0.2159
  772POPS   C4B11762  16.227   2.156   7.025  0.3229  0.2429  0.0189
  773POPS   CNO11763   5.470   0.228   5.661 -0.4546 -0.0089 -0.0216
  773POPS   PO411764   5.660  -0.072   5.374 -0.1954  0.1316  0.0595
  773POPS   GL111765   5.868  -0.132   5.769 -0.1178 -0.2335  0.2930
  773POPS   GL211766   6.105  -0.362   5.853  0.0508  0.3879  0.1666
  773POPS   C1A11767   5.899  -0.079   6.192 -0.2486 -0.0909  0.3397
  773POPS   D2A11768   6.115   0.004   6.573  0.0339 -0.0167  0.0952
  773POPS   C3A11769   6.218  -0.097   6.944 -0.0361 -0.0641  0.3431
  773POPS   C4A11770   6.283  -0.402   7.291  0.0552  0.2270 -0.0166
  773POPS   C1B11771   6.371  -0.283   6.264  0.0581  0.1253 -0.0029
  773POPS   C2B11772   6.485  -0.411   6.652  0.0178  0.2828  0.0144
  773POPS   C3B11773   6.530  -0.676   6.986 -0.0324 -0.2588  0.0058
  773POPS   C4B11774   6.742  -0.810   7.319  0.2466 -0.0018  0.0939
  774POPS   CNO11775   3.772   1.850   5.568  0.3922  0.3255 -0.2086
  774POPS   PO411776   3.683   2.192   5.827  0.0875  0.0803 -0.1017
  774POPS   GL111777   3.721   2.224   6.299  0.0388 -0.1945 -0.0492
  774POPS   GL211778   3.889   2.579   6.320 -0.0039 -0.0060 -0.0856
  774POPS   C1A11779   3.746   2.049   6.643  0.0818 -0.2204  0.1593
  774POPS   D2A11780   3.625   2.010   6.970 -0.1918 -0.2167  0.0433
  774POPS   C3A11781   3.947   2.017   7.408 -0.2648 -0.1746 -0.0420
  774POPS   C4A11782   4.126   2.347   7.717  0.1826  0.0435 -0.2774
  774POPS   C1B11783   4.078   2.786   6.587 -0.0153 -0.1894 -0.2268
  774POPS   C2B11784   4.432   2.845   6.840  0.2450 -0.0843  0.1460
  774POPS   C3B11785   4.476   2.990   7.192 -0.3220  0.0468  0.2892
  774POPS   C4B11786   4.698   3.184   7.586  0.1745  0.1997 -0.1250
  775POPS   CNO11787   8.527  16.862   4.795 -0.0954 -0.1582  0.1348
  775POPS   PO411788   8.586  17.050   5.231  0.2126 -0.1338 -0.3216
  775POPS   GL111789   8.541  16.733   5.514  0.1486 -0.1377  0.1707
  775POPS   GL211790   8.772  16.822   5.688 -0.0803  0.0623  0.1515
  775POPS   C1A11791   8.440  16.438   5.845  0.0388 -0.0267  0.0472
  775POPS   D2A11792   8.201  16.285   6.148 -0.0863  0.2872  0.2814
  775POPS   C3A11793   8.225  15.868   6.389 -0.0761  0.0044 -0.0984
  775POPS   C4A11794   8.463  15.537   6.230 -0.1575 -0.4851 -0.1761
  775POPS   C1B11795   8.820  17.052   6.009 -0.0569  0.0792 -0.0548
  775POPS   C2B11796   8.741  17.127   6.453 -0.0069  0.3445  0.0087
  775POPS   C3B11797   8.654  17.220   6.905  0.2373 -0.1540  0.1981
  775POPS   C4B11798   8.916  17.635   7.093 -0.2043  0.3831  0.0324
  776POPS   CNO11799   2.144  10.883   5.070 -0.1961 -0.2305  0.0628
  776POPS   PO411800   1.795  11.136   4.939 -0.0728  0.2479  0.2807
  776POPS   GL111801   1.900  11.143   5.466 -0.1079  0.2261  0.0581
  776POPS   GL211802   1.980  10.864   5.561  0.0499 -0.2083 -0.0483
  776POPS   C1A11803   1.707  11.294   5.854 -0.2091  0.1080  0.0505
  776POPS   D2A11804   1.447  11.011   6.160  0.1111  0.0971  0.3397
  776POPS   C3A11805   1.335  10.605   6.210 -0.0843 -0.5668 -0.1478
  776POPS   C4A11806   1.501  10.299   6.538  0.1222  0.2831  0.0540
  776POPS   C1B11807   2.308  10.607   5.722  0.2984  0.2299 -0.2811
  776POPS   C2B11808   2.342  10.196   5.817 -0.4152 -0.2027 -0.3686
  776POPS   C3B11809   2.260   9.855   5.978 -0.1041  0.1812  0.0047
  776POPS   C4B11810   2.466   9.564   6.255 -0.1725  0.0965  0.0791
  777POPS   CNO11811   6.244  11.348   5.203  0.2935 -0.1988 -0.1525
  777POPS   PO411812   5.867  11.531   5.201 -0.2447  0.0424  0.2163
  777POPS   GL111813   5.905  11.500   5.630  0.0861 -0.0772  0.0242
  777POPS   GL211814   5.767  11.817   5.670 -0.1586  0.1109 -0.0272
  777POPS   C1A11815   5.981  11.291   6.048 -0.3614  0.0292  0.1545
  777POPS   D2A11816   5.766  11.381   6.398  0.1731  0.1234  0.4032
  777POPS   C3A11817   5.351  11.498   6.421 -0.1129 -0.0578 -0.1454
  777POPS   C4A11818   5.146  11.733   6.675 -0.1126  0.2987  0.2462
  777POPS   C1B11819   5.994  11.790   5.974 -0.2199 -0.1063 -0.1321
  777POPS   C2B11820   5.930  11.839   6.358  0.0525  0.0728 -0.1001
  777POPS   C3B11821   5.616  11.907   6.653  0.0545  0.0020  0.1510
  777POPS   C4B11822   5.542  11.872   6.985  0.1930 -0.1148  0.0008
  778POPS   CNO11823  15.126  16.596   5.333  0.1015  0.1028  0.2014
  778POPS   PO411824  15.229  17.034   5.197 -0.0852  0.5499 -0.0780
  778POPS   GL111825  15.192  17.293   5.516  0.3114  0.0650 -0.2232
  778POPS   GL211826  14.976  17.341   5.792  0.3643  0.3122 -0.2214
  778POPS   C1A11827  15.446  17.254   5.925  0.0188  0.2883  0.2684
  778POPS   D2A11828  15.836  17.241   6.075  0.0154  0.1110 -0.1612
  778POPS   C3A11829  15.985  17.109   6.512  0.1292 -0.0579  0.3045
  778POPS   C4A11830  16.234  17.035   6.757 -0.3225 -0.1926 -0.2401
  778POPS   C1B11831  15.036  17.223   6.189 -0.1077 -0.2121 -0.1372
  778POPS   C2B11832  15.122  17.235   6.667  0.1975  0.0214  0.1505
  778POPS   C3B11833  15.209  17.304   7.089 -0.0546 -0.1707  0.0603
  778POPS   C4B11834  15.246  17.189   7.471 -0.0181  0.0560  0.0348
  779POPS   CNO11835   2.116   4.895   5.187 -0.0699  0.1445  0.2063
  779POPS   PO411836   2.406   5.142   5.248 -0.0237 -0.1370  0.0801
  779POPS   GL111837   2.444   5.026   5.687 -0.2415  0.1972 -0.1570
  779POPS   GL211838   2.481   5.299   5.817 -0.0247  0.1439 -0.1228
  779POPS   C1A11839   2.337   4.981   6.169 -0.5022 -0.1886  0.1057
  779POPS   D2A11840   2.300   4.894   6.556 -0.1209  0.0581 -0.0314
  779POPS   C3A11841   2.065   5.101   6.863  0.1017 -0.2494 -0.0842
  779POPS   C4A11842   1.823   5.241   7.142 -0.2261  0.2174  0.1362
  779POPS   C1B11843   2.531   5.520   6.150 -0.0192 -0.0598 -0.1039
  779POPS   C2B11844   2.407   5.821   6.546 -0.0423  0.1604  0.0653
  779POPS   C3B11845   2.515   5.964   6.946 -0.1275  0.0519  0.3298
  779POPS   C4B11846   2.333   5.995   7.346 -0.0998 -0.0631 -0.0390
  780POPS   CNO11847  11.649  10.669   5.695 -0.0138 -0.0566  0.0156
  780POPS   PO411848  12.161  10.584   5.779 -0.3319 -0.1713  0.1847
  780POPS   GL111849  12.035  10.767   6.161 -0.1584 -0.0235 -0.1946
  780POPS   GL211850  11.870  11.062   6.189 -0.1404  0.2556  0.1098
  780POPS   C1A11851  11.873  10.810   6.615  0.1996  0.1053 -0.0323
  780POPS   D2A11852  11.750  10.790   7.129 -0.0642 -0.1048 -0.0762
  780POPS   C3A11853  11.404  11.002   7.150  0.0390 -0.2419  0.0140
  780POPS   C4A11854  11.208  11.402   7.095 -0.0440 -0.1403  0.0176
  780POPS   C1B11855  11.777  11.328   6.581 -0.0056  0.1105 -0.2950
  780POPS   C2B11856  11.734  11.358   6.984 -0.0171  0.2287  0.0300
  780POPS   C3B11857  11.620  11.376   7.477  0.1080  0.0273 -0.2541
  780POPS   C4B11858  11.187  11.377   7.626 -0.3982 -0.2194 -0.0087
  781POPS   CNO11859   9.422   0.409   4.946 -0.0295  0.1038  0.3907
  781POPS   PO411860   9.194   0.217   5.400  0.1299 -0.0963  0.4320
  781POPS   GL111861   9.076   0.447   5.756 -0.0126 -0.0656  0.0035
  781POPS   GL211862   9.122   0.272   6.031 -0.0956  0.0333  0.0833
  781POPS   C1A11863   8.953   0.777   6.004 -0.0061  0.1737 -0.0507
  781POPS   D2A11864   8.473   0.966   6.086  0.2331  0.0595  0.0543
  781POPS   C3A11865   8.561   1.277   6.393 -0.0773  0.1033 -0.2889
  781POPS   C4A11866   8.879   1.565   6.557  0.0038  0.1584 -0.1413
  781POPS   C1B11867   9.233   0.584   6.379  0.2804 -0.3310  0.1323
  781POPS   C2B11868   9.388   0.742   6.699  0.0627  0.2446 -0.1617
  781POPS   C3B11869   9.386   0.563   7.142 -0.2930 -0.0157  0.1167
  781POPS   C4B11870   9.646   0.785   7.473  0.1350  0.0109 -0.0959
  782POPS   CNO11871   3.138  13.298   5.325 -0.0322 -0.1994 -0.3095
  782POPS   PO411872   2.922  13.660   5.414  0.0830  0.0940  0.0240
  782POPS   GL111873   3.180  13.661   5.735  0.5489  0.1722 -0.0761
  782POPS   GL211874   3.093  13.468   5.874  0.0194 -0.1847  0.2303
  782POPS   C1A11875   3.617  13.320   5.997 -0.0471 -0.1462 -0.3620
  782POPS   D2A11876   3.993  13.178   6.102  0.0396 -0.1576 -0.2291
  782POPS   C3A11877   4.142  12.754   5.966 -0.0228  0.1833 -0.2627
  782POPS   C4A11878   4.438  12.723   5.594 -0.1315 -0.2834 -0.2372
  782POPS   C1B11879   2.847  13.611   6.193  0.3743 -0.2357 -0.2056
  782POPS   C2B11880   2.736  13.696   6.625  0.0877  0.0775 -0.0714
  782POPS   C3B11881   2.456  14.033   6.746  0.2644  0.0927  0.0589
  782POPS   C4B11882   2.115  14.264   7.022  0.1686  0.0531 -0.1172
  783POPS   CNO11883   3.340   0.814   6.160  0.1848 -0.1273 -0.0378
  783POPS   PO411884   3.349   1.173   5.985 -0.3867 -0.2816  0.1546
  783POPS   GL111885   3.358   1.259   6.372  0.1005 -0.3454 -0.1874
  783POPS   GL211886   3.504   1.610   6.476  0.1409  0.1398  0.0035
  783POPS   C1A11887   2.981   1.475   6.563  0.4585 -0.1132  0.0684
  783POPS   D2A11888   2.701   1.655   6.789 -0.0020 -0.0467  0.0838
  783POPS   C3A11889   2.647   1.968   7.129  0.2583 -0.2735  0.0392
  783POPS   C4A11890   2.789   2.045   7.554 -0.0051 -0.4739 -0.2598
  783POPS   C1B11891   3.248   1.956   6.636  0.0956  0.0021 -0.0314
  783POPS   C2B11892   2.893   2.135   6.562  0.0767 -0.1974 -0.1515
  783POPS   C3B11893   2.748   2.528   6.848 -0.3361 -0.0978  0.1845
  783POPS   C4B11894   2.617   2.938   6.875  0.1514  0.1163 -0.0513
  784POPS   CNO11895   4.397  11.037   4.677  0.2864 -0.0140  0.1048
  784POPS   PO411896   4.118  11.324   4.900  0.2589 -0.1593 -0.2716
  784POPS   GL111897   4.157  10.974   5.263 -0.2782 -0.2035 -0.1470
  784POPS   GL211898   4.356  10.725   5.354 -0.0744  0.0792 -0.3334
  784POPS   C1A11899   3.806  10.980   5.619 -0.1552  0.1348 -0.0579
  784POPS   D2A11900   3.620  11.068   5.990 -0.2618 -0.1712  0.0587
  784POPS   C3A11901   3.647  11.256   6.397 -0.1990  0.2522  0.1192
  784POPS   C4A11902   3.561  11.250   6.744  0.1245 -0.1647  0.2696
  784POPS   C1B11903   4.255  10.892   5.727  0.1437  0.0291 -0.0791
  784POPS   C2B11904   4.522  10.975   6.062 -0.0006  0.1033 -0.2974
  784POPS   C3B11905   4.414  11.133   6.426 -0.0201  0.1268 -0.0259
  784POPS   C4B11906   4.044  11.117   6.809 -0.0227  0.0958  0.1247
  785POPS   CNO11907   4.232   0.733   5.763  0.0124  0.0141  0.0026
  785POPS   PO411908   4.541   0.624   5.895 -0.2791 -0.1387 -0.2707
  785POPS   GL111909   4.879   0.812   6.224  0.2856  0.3273  0.2514
  785POPS   GL211910   4.814   1.011   6.318  0.2172 -0.1939 -0.1655
  785POPS   C1A11911   5.216   0.580   6.450  0.0118  0.2402  0.1408
  785POPS   D2A11912   5.386   0.346   6.800  0.2951  0.2310  0.0285
  785POPS   C3A11913   5.762   0.301   6.902  0.1222 -0.1148  0.0680
  785POPS   C4A11914   6.084   0.233   7.279 -0.0556 -0.0466 -0.1316
  785POPS   C1B11915   4.491   1.255   6.625  0.0828 -0.2217 -0.3792
  785POPS   C2B11916   4.199   1.135   7.092 -0.1077  0.1590 -0.0693
  785POPS   C3B11917   3.836   1.131   7.409 -0.0792  0.1618  0.0364
  785POPS   C4B11918   3.496   1.163   7.658 -0.1685  0.1227  0.0152
  786POPS   CNO11919  10.001   8.474   5.268  0.1525  0.1844  0.0181
  786POPS   PO411920  10.341   8.264   5.498 -0.2517  0.1543 -0.0924
  786POPS   GL111921  10.492   8.456   5.888 -0.1893  0.4215  0.1504
  786POPS   GL211922  10.229   8.293   6.098  0.1122 -0.0253  0.2186
  786POPS   C1A11923  10.667   8.116   6.269  0.0566  0.0748 -0.0166
  786POPS   D2A11924  10.690   8.014   6.691  0.1862 -0.0243  0.0425
  786POPS   C3A11925  10.412   8.012   7.025  0.2330  0.0232 -0.1146
  786POPS   C4A11926  10.234   7.670   7.244 -0.3575  0.2518 -0.3530
  786POPS   C1B11927  10.329   8.259   6.564  0.2909  0.1984 -0.1894
  786POPS   C2B11928  10.058   8.372   6.844 -0.1510 -0.0818  0.4049
  786POPS   C3B11929   9.692   8.269   7.051  0.0563  0.0070  0.2058
  786POPS   C4B11930   9.269   8.102   7.439 -0.3289 -0.2582 -0.0965
  787POPS   CNO11931   6.738  16.209   5.517  0.3705 -0.1239 -0.3201
  787POPS   PO411932   6.234  16.155   5.568 -0.0705 -0.1571  0.1960
  787POPS   GL111933   6.394  16.179   5.945  0.0724 -0.2908 -0.1371
  787POPS   GL211934   6.259  16.009   6.045 -0.0724  0.0891 -0.3473
  787POPS   C1A11935   6.836  16.054   6.027 -0.0381  0.1462  0.3843
  787POPS   D2A11936   7.082  15.866   6.415 -0.2040 -0.1127  0.0530
  787POPS   C3A11937   6.972  15.943   6.767  0.0726  0.0319  0.1661
  787POPS   C4A11938   7.084  15.736   7.273 -0.0243  0.1307 -0.0978
  787POPS   C1B11939   6.443  16.075   6.505 -0.1328  0.1953 -0.2481
  787POPS   C2B11940   6.255  16.124   6.939 -0.1469 -0.0262  0.1200
  787POPS   C3B11941   6.138  15.970   7.359  0.4843  0.1334  0.4117
  787POPS   C4B11942   5.670  16.049   7.551 -0.0720  0.0108  0.0631
  788POPS   CNO11943   0.829  18.567   5.190 -0.0988  0.0914  0.2054
  788POPS   PO411944   0.768  18.612   5.703  0.2516 -0.3022 -0.0564
  788POPS   GL111945   0.967  18.833   6.033  0.1856  0.4087 -0.0295
  788POPS   GL211946   0.952  19.127   6.027  0.1801 -0.0643 -0.0683
  788POPS   C1A11947   1.111  18.839   6.444  0.2949 -0.4063 -0.1681
  788POPS   D2A11948   1.262  19.004   6.810 -0.0757  0.2062 -0.3399
  788POPS   C3A11949   1.381  18.892   7.197  0.0252  0.0120 -0.3307
  788POPS   C4A11950   1.398  18.905   7.646  0.0294 -0.2337 -0.0508
  788POPS   C1B11951   1.404  19.220   6.315  0.1958 -0.3641  0.0662
  788POPS   C2B11952   1.664  19.348   6.568 -0.1308 -0.3278 -0.1734
  788POPS   C3B11953   1.617  19.403   6.964  0.0759 -0.1431 -0.2640
  788POPS   C4B11954   1.519  19.340   7.415  0.0229 -0.2137 -0.1292
  789POPS   CNO11955  12.846   5.623   5.392 -0.2535  0.1822  0.2030
  789POPS   PO411956  12.505   5.457   5.609 -0.0852  0.2339  0.0609
  789POPS   GL111957  12.484   5.154   5.974  0.0160 -0.2946  0.1154
  789POPS   GL211958  12.186   5.101   6.024 -0.0100  0.1022  0.3083
  789POPS   C1A11959  12.546   5.238   6.371  0.0357 -0.2020  0.2085
  789POPS   D2A11960  12.421   5.498   6.692 -0.2057  0.1600 -0.2736
  789POPS   C3A11961  12.334   5.396   7.164  0.0303 -0.0551  0.0687
  789POPS   C4A11962  11.970   5.406   7.345  0.1250  0.1219  0.0910
  789POPS   C1B11963  12.024   5.270   6.475 -0.1340 -0.2488 -0.0681
  789POPS   C2B11964  11.889   5.529   6.764 -0.2486  0.2760 -0.1701
  789POPS   C3B11965  11.592   5.365   7.026 -0.2033 -0.0240  0.3312
  789POPS   C4B11966  11.305   5.419   7.310 -0.0434  0.0323 -0.3353
  790POPS   CNO11967  16.275  14.138   5.627 -0.0131  0.2281 -0.0267
  790POPS   PO411968  16.255  14.551   5.332 -0.2216 -0.2971 -0.1380
  790POPS   GL111969  16.313  14.609   5.779 -0.1682  0.0377 -0.0445
  790POPS   GL211970  16.534  14.530   5.926  0.1267 -0.0090  0.1925
  790POPS   C1A11971  16.115  14.758   6.101 -0.1376 -0.0846 -0.2792
  790POPS   D2A11972  16.071  14.600   6.438  0.2080 -0.1306 -0.1882
  790POPS   C3A11973  16.176  14.871   6.820 -0.0421  0.2162  0.0412
  790POPS   C4A11974  16.128  14.958   7.204 -0.1200 -0.2230 -0.2504
  790POPS   C1B11975  16.555  14.519   6.373  0.0243  0.1683 -0.1903
  790POPS   C2B11976  16.297  14.370   6.780  0.0224  0.0695  0.0794
  790POPS   C3B11977  16.081  14.492   7.130  0.0363  0.1457  0.1092
  790POPS   C4B11978  16.066  14.530   7.593 -0.0080  0.0983  0.0894
  791POPS   CNO11979  10.986  11.280   5.309 -0.3631  0.2085 -0.4252
  791POPS   PO411980  10.887  11.732   5.383  0.0403 -0.0777 -0.2885
  791POPS   GL111981  10.702  11.435   5.709 -0.1950 -0.2910 -0.0040
  791POPS   GL211982  11.038  11.296   5.808 -0.1956 -0.1553 -0.1620
  791POPS   C1A11983  10.763  11.567   6.168 -0.2387  0.1889 -0.2724
  791POPS   D2A11984  10.570  11.608   6.611  0.0607  0.1056 -0.1839
  791POPS   C3A11985  10.116  11.596   6.764  0.0874  0.1513  0.1569
  791POPS   C4A11986   9.878  11.316   6.842 -0.2805 -0.0799  0.2323
  791POPS   C1B11987  11.049  11.179   6.236  0.0657  0.2086 -0.3583
  791POPS   C2B11988  10.939  11.306   6.710  0.2954 -0.0425 -0.0868
  791POPS   C3B11989  10.740  11.633   7.047 -0.2173 -0.1272  0.1296
  791POPS   C4B11990  10.877  11.700   7.338  0.1004 -0.0582  0.0005
  792POPS   CNO11991  18.770  17.305   5.500 -0.2641  0.0674  0.0753
  792POPS   PO411992  18.642  16.893   5.491  0.3287 -0.1680 -0.2686
  792POPS   GL111993  18.228  16.884   5.714  0.3619  0.0683  0.0544
  792POPS   GL211994  17.959  16.655   5.780  0.0251  0.1889 -0.4663
  792POPS   C1A11995  18.017  17.156   6.170 -0.2336  0.4332  0.1358
  792POPS   D2A11996  17.865  17.434   6.463 -0.3018  0.1794 -0.0222
  792POPS   C3A11997  18.124  17.530   6.711  0.0299 -0.0700 -0.0537
  792POPS   C4A11998  18.429  17.360   6.968  0.0094 -0.1523 -0.2491
  792POPS   C1B11999  18.026  16.655   6.319  0.2244 -0.0081 -0.1395
  792POPS   C2B12000  17.958  16.457   6.605 -0.1544 -0.1135  0.3703
  792POPS   C3B12001  18.090  16.458   6.961  0.1842 -0.1231 -0.4895
  792POPS   C4B12002  18.284  16.762   7.249  0.0061  0.0421  0.0225
  793POPS   CNO12003   1.232  14.839   5.390 -0.0888  0.2461  0.0704
  793POPS   PO412004   1.512  14.668   5.205  0.2527  0.0100  0.0808
  793POPS   GL112005   1.584  14.551   5.597 -0.1207 -0.0734 -0.2401
  793POPS   GL212006   1.666  14.712   5.887 -0.0289  0.5063  0.0333
  793POPS   C1A12007   1.307  14.266   5.985 -0.0706 -0.0496 -0.0950
  793POPS   D2A12008   1.167  14.278   6.387  0.1527 -0.0964 -0.2078
  793POPS   C3A12009   1.397  14.075   6.716  0.0056 -0.3055 -0.0198
  793POPS   C4A12010   1.575  13.871   7.199 -0.1318  0.3089  0.0109
  793POPS   C1B12011   1.594  14.647   6.353 -0.3172 -0.0831  0.3039
  793POPS   C2B12012   1.273  14.637   6.748  0.1088  0.2273  0.1523
  793POPS   C3B12013   1.109  14.348   7.046 -0.2414  0.3040 -0.0132
  793POPS   C4B12014   0.986  14.372   7.478 -0.1513 -0.2647  0.0302
  794POPS   CNO12015  18.541   4.358   5.040  0.3351  0.0890  0.3086
  794POPS   PO412016  18.525   4.081   5.400 -0.1103 -0.2686 -0.2981
  794POPS   GL112017  18.322   4.104   5.708  0.1263  0.0516  0.0460
  794POPS   GL212018  18.407   3.978   5.998  0.2038  0.2934 -0.0507
  794POPS   C1A12019  18.113   4.429   6.020  0.1364  0.0966 -0.1739
  794POPS   D2A12020  18.155   4.574   6.506  0.1749 -0.2205  0.1817
  794POPS   C3A12021  17.964   4.656   6.867  0.0310 -0.1507  0.4702
  794POPS   C4A12022  17.774   4.929   7.187 -0.0480 -0.3496  0.2286
  794POPS   C1B12023  18.327   4.109   6.386  0.1893 -0.0830 -0.1446
  794POPS   C2B12024  18.312   4.298   6.874 -0.3755  0.0677 -0.0070
  794POPS   C3B12025  18.325   4.402   7.254  0.1299  0.0060 -0.4010
  794POPS   C4B12026  18.005   4.433   7.500  0.1527  0.1923 -0.0904
  795POPS   CNO12027  12.519   0.120   5.453 -0.0432  0.2384  0.0365
  795POPS   PO412028  12.771   0.432   5.477  0.0786  0.1552  0.0816
  795POPS   GL112029  12.869   0.358   5.775 -0.0021  0.1310  0.0599
  795POPS   GL212030  12.941   0.098   5.891 -0.1497  0.0006  0.2103
  795POPS   C1A12031  12.932   0.643   6.211 -0.2529  0.1166  0.1415
  795POPS   D2A12032  13.170   0.993   6.474  0.0376  0.1766 -0.2698
  795POPS   C3A12033  13.555   1.086   6.720  0.1657  0.2013 -0.1441
  795POPS   C4A12034  13.617   1.323   7.090  0.1873 -0.4359 -0.1876
  795POPS   C1B12035  12.880   0.030   6.337 -0.0536  0.0074  0.1174
  795POPS   C2B12036  12.940   0.118   6.716  0.4753  0.2777  0.2478
  795POPS   C3B12037  13.023   0.378   7.156  0.0739 -0.1856  0.1256
  795POPS   C4B12038  13.256   0.429   7.458 -0.0172  0.1668 -0.0994
  796POPS   CNO12039   4.881  17.704   5.585  0.1399  0.0579 -0.0817
  796POPS   PO412040   4.562  17.667   5.823  0.0689  0.3001 -0.1039
  796POPS   GL112041   4.863  17.736   6.168  0.0055  0.3475 -0.1796
  796POPS   GL212042   5.130  17.606   6.050 -0.1359  0.1375 -0.1001
  796POPS   C1A12043   5.024  17.899   6.571 -0.2150  0.6237  0.3778
  796POPS   D2A12044   5.210  18.108   6.985 -0.1559 -0.0898  0.3707
  796POPS   C3A12045   4.896  18.059   7.336  0.0253  0.3109  0.2041
  796POPS   C4A12046   4.618  17.910   7.650 -0.1597  0.0152 -0.0618
  796POPS   C1B12047   5.047  17.403   6.533  0.2658  0.1948 -0.0628
  796POPS   C2B12048   4.898  17.524   6.959  0.0388 -0.1751  0.0503
  796POPS   C3B12049   4.842  17.551   7.409  0.1133  0.3949 -0.1280
  796POPS   C4B12050   5.051  17.701   7.763 -0.0884  0.1011  0.2159
  797POPS   CNO12051  17.232  18.733   5.324 -0.4498 -0.0589  0.1989
  797POPS   PO412052  17.283  18.442   5.708  0.0522  0.3066 -0.0692
  797POPS   GL112053  17.007  18.458   6.056 -0.2972 -0.0473  0.5502
  797POPS   GL212054  17.256  18.185   6.169 -0.1664  0.1395 -0.3148
  797POPS   C1A12055  16.782  18.339   6.434 -0.0552 -0.0665  0.3443
  797POPS   D2A12056  16.556  18.480   6.818  0.3193 -0.1109  0.2016
  797POPS   C3A12057  16.603  18.204   7.147 -0.0019 -0.0530 -0.0259
  797POPS   C4A12058  16.721  18.086   7.618  0.1271 -0.0819 -0.0885
  797POPS   C1B12059  17.497  18.376   6.601  0.2203 -0.2228  0.0778
  797POPS   C2B12060  17.660  18.501   6.957 -0.3282 -0.1336  0.1710
  797POPS   C3B12061  18.002  18.623   7.162  0.0726 -0.0292  0.1274
  797POPS   C4B12062  18.284  18.497   7.322 -0.0536 -0.2141 -0.0681
  798POPS   CNO12063   4.156  15.168   5.634  0.0203  0.0026  0.2420
  798POPS   PO412064   3.717  15.219   5.544  0.1426 -0.0885  0.0118
  798POPS   GL112065   3.679  15.513   5.970  0.2465 -0.1273  0.2370
  798POPS   GL212066   4.076  15.436   6.038  0.0565 -0.0031 -0.2943
  798POPS   C1A12067   3.679  15.612   6.318  0.0338 -0.2126 -0.1275
  798POPS   D2A12068   3.968  15.733   6.615  0.0781 -0.0984  0.1423
  798POPS   C3A12069   4.029  15.897   7.036 -0.0671  0.2557 -0.1766
  798POPS   C4A12070   4.276  16.015   7.382 -0.2268 -0.1933  0.1672
  798POPS   C1B12071   4.097  15.284   6.553  0.1619  0.2965 -0.0206
  798POPS   C2B12072   3.919  15.298   6.937  0.2069  0.0571  0.0370
  798POPS   C3B12073   3.821  15.552   7.305 -0.0112 -0.0297  0.0723
  798POPS   C4B12074   3.606  15.659   7.707 -0.3260  0.3530 -0.1105
  799POPS   CNO12075   0.651   3.387   5.714  0.0108  0.3503  0.1573
  799POPS   PO412076   0.242   3.593   5.537 -0.0764 -0.1208 -0.4646
  799POPS   GL112077   0.218   3.654   5.965  0.2163  0.0118  0.0481
  799POPS   GL212078   0.474   3.845   5.965  0.0610  0.0588  0.2565
  799POPS   C1A12079   0.399   3.472   6.272 -0.0239  0.0682 -0.0407
  799POPS   D2A12080   0.310   3.147   6.457  0.0641  0.0597 -0.0292
  799POPS   C3A12081   0.128   3.159   6.883  0.1984 -0.0063 -0.0623
  799POPS   C4A12082  -0.173   3.155   7.283  0.1107 -0.1444  0.3794
  799POPS   C1B12083   0.259   4.075   6.300 -0.4472  0.0430  0.3018
  799POPS   C2B12084   0.309   4.053   6.755 -0.0697 -0.0103 -0.3222
  799POPS   C3B12085   0.111   4.028   7.173  0.0885  0.3887 -0.1237
  799POPS   C4B12086  -0.161   4.038   7.519 -0.2181 -0.0400 -0.0591
  800POPS   CNO12087   7.518  16.118   4.821 -0.0750  0.2562  0.2354
  800POPS   PO412088   7.701  16.113   5.317  0.0116  0.0335 -0.1201
  800POPS   GL112089   7.812  16.192   5.735  0.1379 -0.0403 -0.1922
  800POPS   GL212090   7.628  16.422   5.764 -0.1535 -0.0851 -0.4836
  800POPS   C1A12091   7.734  16.001   6.022 -0.2415  0.2771  0.2928
  800POPS   D2A12092   7.679  15.780   6.474 -0.0365 -0.0819  0.0531
  800POPS   C3A12093   7.421  15.742   6.843  0.0445 -0.0468  0.2830
  800POPS   C4A12094   7.517  15.952   7.170 -0.1018  0.0699  0.1487
  800POPS   C1B12095   7.337  16.297   6.013 -0.0615  0.2054  0.2746
  800POPS   C2B12096   7.414  16.286   6.386  0.0261  0.0932  0.1498
  800POPS   C3B12097   7.348  16.246   6.783  0.1339  0.1639  0.0409
  800POPS   C4B12098   7.089  16.235   7.065 -0.0989  0.0398 -0.0403
  801POPS   CNO12099   0.498  17.073   5.890  0.0324 -0.0831  0.2122
  801POPS   PO412100   0.828  17.215   5.757 -0.1151 -0.0582  0.3842
  801POPS   GL112101   1.205  17.205   6.083 -0.3185 -0.0023  0.3225
  801POPS   GL212102   1.024  17.481   6.257  0.1639  0.4199 -0.0382
  801POPS   C1A12103   1.533  17.208   6.447 -0.0318 -0.1255 -0.2019
  801POPS   D2A12104   1.744  17.517   6.594  0.2747  0.1490 -0.2557
  801POPS   C3A12105   2.250  17.711   6.565 -0.0733  0.0580 -0.2371
  801POPS   C4A12106   2.569  17.675   6.312  0.0832 -0.0522 -0.3866
  801POPS   C1B12107   1.119  17.329   6.645 -0.0112  0.0038 -0.1518
  801POPS   C2B12108   1.318  17.526   6.908 -0.2480  0.0804  0.1120
  801POPS   C3B12109   1.589  17.755   7.278  0.1461  0.3993 -0.0754
  801POPS   C4B12110   1.979  17.650   7.507  0.0311 -0.0637  0.2676
  802POPS   CNO12111   8.817  11.935   5.041  0.0525  0.0401  0.0130
  802POPS   PO412112   8.414  12.133   5.203 -0.3185 -0.0723 -0.1436
  802POPS   GL112113   8.774  12.234   5.476  0.0883  0.2014 -0.5202
  802POPS   GL212114   8.975  11.970   5.617  0.2142 -0.3439 -0.0566
  802POPS   C1A12115   8.859  12.355   6.012 -0.0843  0.0973  0.1237
  802POPS   D2A12116   8.832  12.449   6.375 -0.4023  0.2145 -0.0777
  802POPS   C3A12117   8.811  12.658   6.769 -0.3061  0.0431 -0.2762
  802POPS   C4A12118   8.868  12.878   7.189  0.0470 -0.1892 -0.0025
  802POPS   C1B12119   9.214  11.881   5.992 -0.2306  0.2309 -0.1963
  802POPS   C2B12120   9.260  11.969   6.408 -0.1040 -0.0655 -0.0127
  802POPS   C3B12121   9.199  12.130   6.788 -0.1175  0.0019  0.1156
  802POPS   C4B12122   9.123  12.441   7.110 -0.0965 -0.1543  0.1153
  803POPS   CNO12123   7.124  18.210   5.417  0.2139  0.0701 -0.0702
  803POPS   PO412124   6.741  18.086   5.406  0.3814 -0.2036  0.0211
  803POPS   GL112125   6.704  18.195   5.739 -0.4135  0.0615 -0.2135
  803POPS   GL212126   6.571  18.519   5.919 -0.1968  0.0077  0.1743
  803POPS   C1A12127   6.810  18.073   6.113 -0.0787 -0.3317 -0.0103
  803POPS   D2A12128   7.145  17.943   6.372  0.2114 -0.4425  0.1026
  803POPS   C3A12129   7.206  17.488   6.469  0.1342 -0.1285  0.0356
  803POPS   C4A12130   7.571  17.348   6.665  0.0880  0.0681 -0.0236
  803POPS   C1B12131   6.400  18.269   6.296 -0.0057 -0.0779 -0.2209
  803POPS   C2B12132   6.443  18.099   6.713 -0.1297  0.1805 -0.0525
  803POPS   C3B12133   6.327  17.995   7.160  0.0397  0.0953  0.1777
  803POPS   C4B12134   6.420  17.981   7.588 -0.1424 -0.1047 -0.0382
  804POPS   CNO12135   4.074   9.515   4.707 -0.1751 -0.1091 -0.3612
  804POPS   PO412136   4.081   9.684   5.107  0.0091  0.1098 -0.0200
  804POPS   GL112137   4.151   9.502   5.478 -0.0865  0.1064 -0.4216
  804POPS   GL212138   4.085   9.167   5.434  0.1050  0.2201  0.2352
  804POPS   C1A12139   4.311   9.720   5.757  0.2001  0.1016 -0.0796
  804POPS   D2A12140   4.246  10.067   5.872 -0.0159  0.1813 -0.3773
  804POPS   C3A12141   4.015  10.153   6.290 -0.2388  0.5916  0.0091
  804POPS   C4A12142   3.885   9.992   6.696  0.1226 -0.1620  0.2815
  804POPS   C1B12143   4.228   9.140   5.880  0.1417 -0.0990 -0.0189
  804POPS   C2B12144   4.240   9.145   6.206 -0.3891 -0.2433  0.1093
  804POPS   C3B12145   4.034   9.092   6.629  0.1043 -0.1981 -0.1112
  804POPS   C4B12146   3.805   8.760   6.871  0.0425  0.2294 -0.4078
  805POPS   CNO12147   5.947   6.371   5.626 -0.0671  0.0923  0.0324
  805POPS   PO412148   6.297   6.023   5.438  0.2196 -0.1412 -0.0889
  805POPS   GL112149   6.387   6.177   5.946  0.2063 -0.4887  0.0919
  805POPS   GL212150   5.996   6.322   6.134  0.0083  0.2304  0.0441
  805POPS   C1A12151   6.390   6.065   6.306 -0.0275  0.0356 -0.1729
  805POPS   D2A12152   6.417   5.853   6.715  0.0417 -0.1542 -0.3197
  805POPS   C3A12153   6.130   5.904   7.089  0.0022 -0.0087 -0.0789
  805POPS   C4A12154   6.097   6.133   7.529 -0.2418  0.0412 -0.1359
  805POPS   C1B12155   5.791   6.468   6.453 -0.3005  0.0607 -0.4066
  805POPS   C2B12156   5.704   6.165   6.759 -0.0081 -0.1489  0.0462
  805POPS   C3B12157   5.658   6.091   7.216  0.1087 -0.2191  0.1423
  805POPS   C4B12158   5.714   5.770   7.466 -0.1860 -0.0446  0.1368
  806POPS   CNO12159  14.595  15.345   5.329 -0.1090  0.1479 -0.0680
  806POPS   PO412160  14.224  14.983   5.488 -0.0087  0.0407 -0.0075
  806POPS   GL112161  14.335  15.109   5.847  0.3759 -0.1714  0.0252
  806POPS   GL212162  14.456  15.323   5.802  0.2601 -0.0417 -0.1329
  806POPS   C1A12163  14.076  15.190   6.273  0.1145  0.0778  0.0622
  806POPS   D2A12164  13.957  15.246   6.675 -0.2613  0.2180  0.3870
  806POPS   C3A12165  13.851  15.181   7.056 -0.1563 -0.0508  0.0600
  806POPS   C4A12166  13.832  15.199   7.451  0.0917  0.1079  0.1055
  806POPS   C1B12167  14.371  15.603   6.100 -0.0165  0.0772 -0.2640
  806POPS   C2B12168  14.257  15.572   6.529  0.0473  0.1213  0.3041
  806POPS   C3B12169  14.267  15.891   6.752  0.1017 -0.3665  0.0579
  806POPS   C4B12170  14.355  16.138   7.068 -0.1728  0.1919  0.1164
  807POPS   CNO12171   8.178   7.803   5.505  0.3604 -0.1187  0.0635
  807POPS   PO412172   8.421   7.451   5.460 -0.3385  0.1613 -0.0452
  807POPS   GL112173   8.471   7.223   5.793  0.0113  0.1795  0.0634
  807POPS   GL212174   8.398   6.921   5.793 -0.4027  0.0403  0.0523
  807POPS   C1A12175   8.488   7.216   6.234 -0.1662  0.1465 -0.2222
  807POPS   D2A12176   8.654   7.237   6.628  0.1466  0.1077  0.3331
  807POPS   C3A12177   9.092   7.299   6.570  0.1494  0.2689  0.0124
  807POPS   C4A12178   9.403   7.084   6.350  0.0874  0.0861  0.0178
  807POPS   C1B12179   8.387   6.743   6.145  0.1792 -0.0249  0.1136
  807POPS   C2B12180   8.351   6.791   6.533 -0.2799 -0.1585  0.0101
  807POPS   C3B12181   8.427   6.816   6.997  0.1220 -0.1891 -0.1802
  807POPS   C4B12182   8.704   7.042   7.142 -0.4377 -0.0362 -0.0541
  808POPS   CNO12183  12.644   7.195   5.584 -0.0254  0.1245 -0.0390
  808POPS   PO412184  12.256   6.995   5.633  0.3216 -0.1128  0.2229
  808POPS   GL112185  11.887   6.981   5.839  0.3201  0.5042 -0.2004
  808POPS   GL212186  11.811   7.298   6.042  0.2342  0.1574  0.1456
  808POPS   C1A12187  11.623   6.906   6.278  0.3325  0.1684 -0.5603
  808POPS   D2A12188  11.485   6.955   6.697 -0.1383  0.1757  0.2721
  808POPS   C3A12189  11.240   6.708   6.875 -0.0594 -0.2172 -0.0231
  808POPS   C4A12190  10.870   6.526   6.680 -0.3438 -0.3509  0.1728
  808POPS   C1B12191  12.018   7.232   6.370  0.1933 -0.0824 -0.1899
  808POPS   C2B12192  12.015   7.019   6.716  0.0780 -0.1368 -0.2784
  808POPS   C3B12193  12.185   7.141   7.084 -0.0937  0.2667 -0.0182
  808POPS   C4B12194  12.501   7.020   7.337 -0.0608  0.0754 -0.1272
  809POPS   CNO12195  11.204  18.954   5.283  0.3220 -0.0146  0.3500
  809POPS   PO412196  10.988  19.424   5.396 -0.2037  0.3801  0.3560
  809POPS   GL112197  11.038  19.349   5.835 -0.1319  0.1391  0.2163
  809POPS   GL212198  10.880  19.166   5.953  0.0288 -0.1362  0.2407
  809POPS   C1A12199  10.933  19.651   6.151  0.0867  0.2264  0.1868
  809POPS   D2A12200  10.905  20.073   6.376  0.1804  0.4353  0.0520
  809POPS   C3A12201  11.114  19.963   6.820 -0.2055  0.0268  0.0861
  809POPS   C4A12202  10.889  19.997   7.216  0.0918  0.2407  0.3227
  809POPS   C1B12203  10.954  19.198   6.350  0.3486  0.2996 -0.2824
  809POPS   C2B12204  10.902  19.082   6.821  0.3135  0.1246  0.1730
  809POPS   C3B12205  11.096  19.070   7.234 -0.0010 -0.1232  0.3074
  809POPS   C4B12206  11.466  19.315   7.387  0.0988  0.0806 -0.1154
  810POPS   CNO12207   4.515  18.181   5.560  0.0906  0.1922 -0.0006
  810POPS   PO412208   3.972  18.400   5.643 -0.1816 -0.3135 -0.2957
  810POPS   GL112209   4.016  18.393   6.113  0.2018  0.2493 -0.0047
  810POPS   GL212210   4.415  18.455   6.273 -0.1911 -0.1368 -0.0393
  810POPS   C1A12211   3.997  18.303   6.536  0.1231  0.1578  0.1800
  810POPS   D2A12212   3.961  18.342   6.931 -0.0932 -0.1615 -0.1350
  810POPS   C3A12213   4.041  17.974   7.080  0.0196 -0.0817 -0.0776
  810POPS   C4A12214   3.985  17.571   7.252  0.0037 -0.2647 -0.1658
  810POPS   C1B12215   4.442  18.442   6.708  0.0688 -0.1155 -0.0154
  810POPS   C2B12216   4.777  18.498   7.096  0.0635 -0.3447  0.1260
  810POPS   C3B12217   5.158  18.597   7.281  0.1885  0.6732  0.0004
  810POPS   C4B12218   5.285  18.876   7.673 -0.0572 -0.1877 -0.1302
  811YOPS   CNO12219   7.491   1.639   5.161 -0.0513 -0.4406 -0.7929
  811YOPS   PO412220   7.822   1.279   5.296 -0.1624  0.0982 -0.1044
  811YOPS   GL112221   7.845   1.255   5.748  0.0166 -0.1128  0.2102
  811YOPS   GL212222   8.167   1.200   5.671  0.1012 -0.0943 -0.3075
  811YOPS   C1A12223   7.714   1.386   6.160 -0.2697  0.0614 -0.0648
  811YOPS   D2A12224   7.850   1.501   6.634 -0.3532  0.1406  0.4364
  811YOPS   C3A12225   7.737   1.436   7.039  0.0608  0.0673 -0.0710
  811YOPS   C4A12226   7.928   1.500   7.457 -0.0228  0.3386 -0.3734
  811YOPS   C1B12227   8.227   1.471   6.038 -0.2382 -0.1993 -0.2651
  811YOPS   C2B12228   8.380   1.699   6.380 -0.3282  0.1174 -0.0918
  811YOPS   D3B12229   8.322   1.579   6.763  0.0615 -0.0153 -0.0671
  811YOPS   C4B12230   8.240   1.245   6.772 -0.3438  0.0299  0.3808
  812YOPS   CNO12231  16.771   9.486   4.882 -0.3152 -0.2037 -0.1908
  812YOPS   PO412232  17.009   9.701   5.265  0.1083 -0.0247  0.2718
  812YOPS   GL112233  17.129   9.534   5.632  0.0162 -0.1457  0.1716
  812YOPS   GL212234  17.028   9.657   5.848 -0.1930 -0.0004 -0.1073
  812YOPS   C1A12235  17.527   9.628   5.819  0.0910 -0.1249 -0.0987
  812YOPS   D2A12236  17.863   9.785   6.035 -0.1062 -0.0929 -0.0523
  812YOPS   C3A12237  18.177   9.994   6.250 -0.1885 -0.2231  0.3340
  812YOPS   C4A12238  18.332   9.743   6.673 -0.0389 -0.2173 -0.1253
  812YOPS   C1B12239  16.743   9.924   6.051 -0.0475  0.0635 -0.0742
  812YOPS   C2B12240  16.811  10.133   6.530  0.3960  0.2809  0.2135
  812YOPS   D3B12241  16.751  10.224   6.943  0.0244  0.1186  0.3129
  812YOPS   C4B12242  16.657   9.883   7.248  0.1874 -0.0900 -0.2250
  813YOPS   CNO12243   2.907   2.639   5.431  0.1741  0.1323  0.0099
  813YOPS   PO412244   2.888   3.013   5.646  0.4012 -0.1200 -0.1438
  813YOPS   GL112245   3.075   2.971   6.171 -0.0391  0.0165 -0.0180
  813YOPS   GL212246   3.011   3.310   6.221  0.1389  0.0284 -0.0200
  813YOPS   C1A12247   3.077   2.986   6.616 -0.0785 -0.2840 -0.1884
  813YOPS   D2A12248   3.047   2.876   7.112 -0.2084 -0.0008 -0.1509
  813YOPS   C3A12249   2.733   2.892   7.442  0.2198  0.1263 -0.0776
  813YOPS   C4A12250   2.732   2.584   7.770 -0.3868 -0.4196  0.2240
  813YOPS   C1B12251   3.122   3.505   6.558  0.0106  0.0313 -0.3655
  813YOPS   C2B12252   2.959   3.517   6.887  0.1142 -0.0677 -0.0552
  813YOPS   D3B12253   2.500   3.416   7.032 -0.1569  0.0436  0.3952
  813YOPS   C4B12254   2.361   3.405   6.653  0.0091 -0.0166  0.3069
  814YOPS   CNO12255   8.694   6.085   4.830  0.2136  0.1890 -0.6037
  814YOPS   PO412256   8.485   5.976   5.240 -0.1291 -0.1664  0.1282
  814YOPS   GL112257   8.778   5.999   5.668  0.1908  0.0473 -0.1350
  814YOPS   GL212258   9.066   5.798   5.643 -0.2875 -0.4368  0.3092
  814YOPS   C1A12259   8.822   5.861   6.105  0.2184 -0.1671 -0.0722
  814YOPS   D2A12260   9.099   5.756   6.396  0.1059  0.2830  0.0464
  814YOPS   C3A12261   9.393   5.532   6.397  0.2189  0.1361 -0.1478
  814YOPS   C4A12262   9.784   5.589   6.466 -0.0526 -0.2923  0.2114
  814YOPS   C1B12263   9.425   5.976   5.826  0.0500 -0.0149  0.2189
  814YOPS   C2B12264   9.644   5.832   6.027 -0.2662 -0.0041  0.0201
  814YOPS   D3B12265   9.911   5.362   6.075 -0.2456 -0.1673  0.0032
  814YOPS   C4B12266   9.949   4.970   5.810  0.3793 -0.2052  0.0462
  815YOPS   CNO12267   7.005   8.502   5.119 -0.0668 -0.0897  0.0038
  815YOPS   PO412268   6.995   8.926   5.202  0.0301 -0.4066 -0.0403
  815YOPS   GL112269   7.083   8.777   5.544 -0.2684  0.0841  0.2082
  815YOPS   GL212270   6.871   8.483   5.674  0.2352  0.1615  0.1992
  815YOPS   C1A12271   6.998   8.946   5.971 -0.2542 -0.1250 -0.0959
  815YOPS   D2A12272   7.049   8.958   6.359  0.1031 -0.1344 -0.2518
  815YOPS   C3A12273   6.955   9.267   6.696  0.1141  0.4193  0.0802
  815YOPS   C4A12274   7.034   9.016   7.082 -0.0281  0.1320  0.2962
  815YOPS   C1B12275   7.308   8.446   5.970  0.0490  0.2329  0.0615
  815YOPS   C2B12276   7.593   8.659   6.264 -0.2089 -0.0927  0.2739
  815YOPS   D3B12277   7.832   8.784   6.546 -0.0031 -0.0272 -0.0287
  815YOPS   C4B12278   7.689   8.531   6.944  0.0097  0.2642  0.0718
  816YOPS   CNO12279  16.130  10.766   4.995  0.1684 -0.1940 -0.0446
  816YOPS   PO412280  16.224  10.917   5.455 -0.1079 -0.2690 -0.0469
  816YOPS   GL112281  16.230  10.734   5.741  0.0406 -0.3079  0.3405
  816YOPS   GL212282  16.050  10.900   6.005  0.0665 -0.2175 -0.0116
  816YOPS   C1A12283  16.356  10.603   6.128 -0.2011  0.3556 -0.0700
  816YOPS   D2A12284  16.576  10.600   6.508 -0.4089 -0.1030 -0.1359
  816YOPS   C3A12285  17.074  10.607   6.712  0.0671  0.2245 -0.0994
  816YOPS   C4A12286  17.338  10.299   6.753  0.2063 -0.4214 -0.0633
  816YOPS   C1B12287  15.980  10.733   6.451 -0.0838 -0.1542  0.1802
  816YOPS   C2B12288  15.794  10.370   6.573 -0.4843 -0.2345  0.0268
  816YOPS   D3B12289  15.708   9.912   6.389 -0.1474 -0.0043 -0.0676
  816YOPS   C4B12290  15.462   9.811   6.108  0.1379 -0.1400  0.2033
  817YOPS   CNO12291   2.406  16.440   5.766  0.0139  0.0778 -0.1417
  817YOPS   PO412292   2.338  16.871   5.524 -0.1359 -0.0341  0.1716
  817YOPS   GL112293   2.474  16.926   5.940  0.1924  0.2199 -0.0238
  817YOPS   GL212294   2.462  17.171   6.073 -0.0943 -0.2230 -0.3641
  817YOPS   C1A12295   2.537  16.745   6.359 -0.0494 -0.1506  0.2416
  817YOPS   D2A12296   2.590  16.653   6.795  0.1174 -0.1425  0.4024
  817YOPS   C3A12297   2.383  16.621   7.165  0.1641  0.1349 -0.1941
  817YOPS   C4A12298   1.970  16.733   7.147  0.3320 -0.1989 -0.2036
  817YOPS   C1B12299   2.728  17.204   6.508  0.2402  0.3713  0.2539
  817YOPS   C2B12300   3.143  17.350   6.736  0.1686 -0.0073 -0.1332
  817YOPS   D3B12301   3.291  17.185   7.015  0.1421 -0.0613 -0.2157
  817YOPS   C4B12302   3.116  17.094   7.488  0.0297  0.1908 -0.1110
  818YOPS   CNO12303  11.931   9.251   5.672  0.0732 -0.1031  0.0587
  818YOPS   PO412304  11.786   9.619   5.647 -0.0047  0.0843  0.1344
  818YOPS   GL112305  11.803   9.540   6.099  0.1219  0.1002 -0.2196
  818YOPS   GL212306  11.990   9.407   6.201  0.1109 -0.2945  0.1612
  818YOPS   C1A12307  11.796   9.474   6.644 -0.1005  0.1869  0.3128
  818YOPS   D2A12308  12.139   9.242   6.809 -0.1921  0.2185 -0.1320
  818YOPS   C3A12309  12.096   8.960   7.237  0.2339  0.2133 -0.1140
  818YOPS   C4A12310  12.295   8.530   7.386  0.1884 -0.0482  0.2506
  818YOPS   C1B12311  12.376   9.457   6.364 -0.0435 -0.0213 -0.1368
  818YOPS   C2B12312  12.606   9.463   6.740 -0.0369  0.1177  0.0993
  818YOPS   D3B12313  13.003   9.426   6.895 -0.1431  0.0727  0.1654
  818YOPS   C4B12314  13.162   9.174   7.139  0.4146  0.2583 -0.2482
  819YOPS   CNO12315  14.253  18.945   5.358 -0.0814 -0.0665  0.0809
  819YOPS   PO412316  14.107  18.554   5.104  0.4615  0.1221  0.2659
  819YOPS   GL112317  14.198  18.428   5.444  0.1827 -0.1386 -0.0716
  819YOPS   GL212318  13.980  18.304   5.546  0.0120 -0.3517  0.1757
  819YOPS   C1A12319  14.377  18.606   5.835 -0.0475  0.0115  0.0327
  819YOPS   D2A12320  14.394  18.667   6.183 -0.4533 -0.0661 -0.0095
  819YOPS   C3A12321  14.364  18.726   6.636 -0.0315  0.0096 -0.2146
  819YOPS   C4A12322  14.785  18.632   6.942 -0.1644 -0.3769  0.0546
  819YOPS   C1B12323  13.970  18.333   6.031  0.2674 -0.0742  0.4049
  819YOPS   C2B12324  14.023  18.361   6.417 -0.0633 -0.3721  0.1456
  819YOPS   D3B12325  14.158  18.304   6.808  0.0204 -0.2156  0.1219
  819YOPS   C4B12326  14.328  18.362   7.073 -0.2273  0.2176 -0.4303
  820YOPS   CNO12327  11.962   4.322   5.102  0.0515 -0.0086  0.0418
  820YOPS   PO412328  12.251   3.983   5.184 -0.1549  0.0747  0.2039
  820YOPS   GL112329  12.233   3.980   5.593  0.1197  0.2064  0.1201
  820YOPS   GL212330  11.970   4.024   5.699  0.1905  0.0371  0.2812
  820YOPS   C1A12331  12.286   3.629   5.801  0.1176 -0.4038 -0.0632
  820YOPS   D2A12332  12.164   3.400   6.177 -0.0560  0.0426  0.2608
  820YOPS   C3A12333  12.054   3.551   6.533  0.1015  0.1239 -0.1401
  820YOPS   C4A12334  12.115   3.318   6.932 -0.2073  0.1136 -0.2385
  820YOPS   C1B12335  11.941   3.836   6.069 -0.0476  0.2377 -0.0164
  820YOPS   C2B12336  11.613   3.776   6.383 -0.1305 -0.1181 -0.2958
  820YOPS   D3B12337  11.192   3.981   6.638  0.1465 -0.0801 -0.1731
  820YOPS   C4B12338  11.367   4.347   6.937 -0.0838 -0.0279 -0.0151
  821YOPS   CNO12339  14.831   2.134   5.076 -0.0378  0.1151  0.0829
  821YOPS   PO412340  14.594   1.819   5.205  0.0905 -0.1821  0.0500
  821YOPS   GL112341  14.513   1.909   5.730  0.0181 -0.2822 -0.1650
  821YOPS   GL212342  14.202   1.758   5.722 -0.0599 -0.1691 -0.1050
  821YOPS   C1A12343  14.555   2.056   6.151 -0.1937 -0.2962  0.1767
  821YOPS   D2A12344  14.376   2.436   6.456 -0.4067  0.3546  0.1004
  821YOPS   C3A12345  14.252   2.747   6.749  0.3362  0.0524 -0.0067
  821YOPS   C4A12346  13.911   2.834   6.898  0.1230 -0.1192  0.1638
  821YOPS   C1B12347  14.371   1.611   6.129  0.0777  0.0018 -0.0708
  821YOPS   C2B12348  14.386   1.629   6.634 -0.1684 -0.0033 -0.0187
  821YOPS   D3B12349  14.168   1.651   7.117 -0.0050  0.0381  0.0989
  821YOPS   C4B12350  13.818   1.919   7.314 -0.1082  0.1628 -0.2374
  822YOPS   CNO12351   9.550   8.813   5.770 -0.0016  0.1259  0.0567
  822YOPS   PO412352   9.584   8.525   5.556 -0.0872 -0.1634  0.0652
  822YOPS   GL112353   9.366   8.294   5.932  0.1764  0.0926  0.1977
  822YOPS   GL212354   9.182   8.606   6.056  0.3352  0.1168 -0.1796
  822YOPS   C1A12355   9.140   8.185   6.290 -0.3240 -0.0876 -0.2317
  822YOPS   D2A12356   8.759   8.228   6.491  0.0996  0.1150 -0.0755
  822YOPS   C3A12357   8.437   8.059   6.691  0.2179 -0.2526  0.1842
  822YOPS   C4A12358   8.423   8.152   7.115 -0.0886  0.0835 -0.4889
  822YOPS   C1B12359   9.356   8.664   6.397 -0.1294 -0.3068  0.1672
  822YOPS   C2B12360   9.594   8.652   6.769 -0.1392  0.1565  0.0068
  822YOPS   D3B12361   9.779   8.727   7.245  0.2055 -0.0897  0.1709
  822YOPS   C4B12362   9.646   8.372   7.522  0.0390  0.1621  0.2135
  823YOPS   CNO12363  13.453   9.719   5.521  0.1576 -0.1412  0.1467
  823YOPS   PO412364  13.120   9.648   5.758 -0.2021  0.0218  0.2747
  823YOPS   GL112365  12.884   9.526   6.059  0.1912 -0.0118 -0.0826
  823YOPS   GL212366  12.651   9.747   6.102 -0.0329 -0.0165  0.0290
  823YOPS   C1A12367  12.969   9.351   6.391 -0.0358 -0.0771 -0.1201
  823YOPS   D2A12368  13.301   9.521   6.504  0.0207  0.0765  0.0332
  823YOPS   C3A12369  13.413   9.780   6.869  0.1499  0.0177 -0.3070
  823YOPS   C4A12370  13.872   9.794   6.865 -0.2039 -0.0845 -0.0779
  823YOPS   C1B12371  12.423   9.928   6.427  0.2511 -0.0672  0.0412
  823YOPS   C2B12372  12.088   9.813   6.820 -0.1946 -0.1057  0.1576
  823YOPS   D3B12373  11.845   9.743   7.144  0.1362  0.1439  0.2077
  823YOPS   C4B12374  11.757   9.343   7.172 -0.3747  0.1138 -0.0528
  824YOPS   CNO12375   1.584  11.612   5.256  0.0535 -0.1044  0.2876
  824YOPS   PO412376   1.766  12.026   5.316 -0.0537 -0.0195 -0.0706
  824YOPS   GL112377   1.875  11.799   5.692 -0.2161  0.1212  0.1108
  824YOPS   GL212378   1.621  11.928   5.919  0.1331 -0.2213  0.0446
  824YOPS   C1A12379   2.130  11.555   6.003  0.1385  0.3769  0.1496
  824YOPS   D2A12380   2.240  11.476   6.532  0.3409 -0.2085 -0.0310
  824YOPS   C3A12381   2.111  11.468   6.952  0.0864 -0.2064  0.0675
  824YOPS   C4A12382   1.715  11.510   7.165  0.0668 -0.1525 -0.0771
  824YOPS   C1B12383   1.757  11.692   6.260  0.0674 -0.3419 -0.0114
  824YOPS   C2B12384   1.753  11.291   6.460  0.4085 -0.0448 -0.2289
  824YOPS   D3B12385   1.681  11.049   6.873 -0.0179  0.0277 -0.1196
  824YOPS   C4B12386   1.217  10.998   7.099 -0.1496 -0.0403  0.2961
  825YOPS   CNO12387  10.770   1.200   5.298 -0.0089 -0.1953 -0.1595
  825YOPS   PO412388  10.823   1.150   5.779  0.0187 -0.0477 -0.0515
  825YOPS   GL112389  10.702   1.279   6.080  0.0054 -0.1943 -0.0554
  825YOPS   GL212390  10.846   1.617   5.991  0.1667 -0.1508  0.0009
  825YOPS   C1A12391  10.420   1.320   6.347 -0.1607  0.0226 -0.0600
  825YOPS   D2A12392  10.389   1.359   6.733 -0.3394 -0.0943 -0.0567
  825YOPS   C3A12393  10.209   1.065   6.990 -0.0873  0.2260  0.0617
  825YOPS   C4A12394   9.988   1.289   7.383 -0.4391  0.1835  0.1632
  825YOPS   C1B12395  10.824   1.527   6.519 -0.0919  0.0906  0.2120
  825YOPS   C2B12396  10.832   1.763   6.970 -0.1259  0.4851  0.2575
  825YOPS   D3B12397  10.818   1.626   7.369  0.0796  0.1835 -0.0473
  825YOPS   C4B12398  10.613   1.669   7.867 -0.0849  0.1099  0.2315
  826YOPS   CNO12399  12.572  12.690   5.645 -0.0768  0.0482 -0.0484
  826YOPS   PO412400  13.035  12.511   5.671  0.1483  0.1588 -0.2234
  826YOPS   GL112401  13.193  12.432   6.070  0.4201  0.2205  0.0543
  826YOPS   GL212402  13.402  12.738   5.997 -0.1309  0.1468  0.0109
  826YOPS   C1A12403  13.186  12.320   6.416  0.0646  0.1173 -0.0512
  826YOPS   D2A12404  13.095  12.124   6.711  0.0638 -0.2491  0.1948
  826YOPS   C3A12405  13.025  11.833   6.885 -0.0422 -0.0558 -0.1211
  826YOPS   C4A12406  12.651  11.784   7.207  0.2229  0.0680  0.2239
  826YOPS   C1B12407  13.526  12.761   6.391 -0.0330  0.3004  0.0628
  826YOPS   C2B12408  13.384  12.740   6.799 -0.0299  0.2458  0.0738
  826YOPS   D3B12409  13.165  12.988   7.168 -0.0733 -0.1247 -0.0879
  826YOPS   C4B12410  13.370  12.886   7.640 -0.0934 -0.2602  0.2341
  827YOPS   CNO12411   4.224   3.205   5.660 -0.1634 -0.0733  0.3588
  827YOPS   PO412412   4.517   2.766   5.741  0.2317 -0.0529 -0.6489
  827YOPS   GL112413   4.711   2.796   6.171 -0.2698  0.0038  0.0414
  827YOPS   GL212414   4.936   3.143   6.154 -0.3251 -0.0890  0.0784
  827YOPS   C1A12415   4.621   2.526   6.539  0.0244  0.1421 -0.0039
  827YOPS   D2A12416   4.295   2.341   6.600 -0.1102  0.1048  0.1641
  827YOPS   C3A12417   3.908   2.389   6.954  0.3931 -0.3098 -0.1141
  827YOPS   C4A12418   3.860   2.779   7.065 -0.0276  0.0380  0.1346
  827YOPS   C1B12419   5.131   2.969   6.535 -0.1733 -0.0321 -0.1322
  827YOPS   C2B12420   4.927   2.913   6.869  0.2970 -0.0823  0.0731
  827YOPS   D3B12421   4.922   2.766   7.280 -0.2512  0.0668 -0.2706
  827YOPS   C4B12422   5.274   2.699   7.478 -0.0760  0.2376  0.0832
  828YOPS   CNO12423  17.240   2.281   5.311 -0.0574 -0.1061 -0.1791
  828YOPS   PO412424  17.174   1.835   5.366  0.2908  0.0820 -0.1850
  828YOPS   GL112425  17.140   1.732   5.762  0.0590  0.2083  0.0552
  828YOPS   GL212426  17.006   1.447   5.849 -0.0133 -0.2503  0.0632
  828YOPS   C1A12427  17.138   1.732   6.247 -0.1473  0.3335 -0.2340
  828YOPS   D2A12428  17.101   1.675   6.729 -0.1977  0.0638  0.1258
  828YOPS   C3A12429  16.927   1.573   7.116  0.3190  0.2673 -0.0653
  828YOPS   C4A12430  16.845   1.626   7.524 -0.0529 -0.4376 -0.0161
  828YOPS   C1B12431  16.954   1.264   6.303 -0.1467 -0.2323  0.2185
  828YOPS   C2B12432  17.001   1.134   6.725  0.2308 -0.0191 -0.0970
  828YOPS   D3B12433  16.912   1.114   7.207  0.0912  0.1417  0.2659
  828YOPS   C4B12434  16.592   1.105   7.449  0.2249  0.1487 -0.3139
  829YOPS   CNO12435   5.784  18.563   5.482 -0.1523 -0.0475 -0.0374
  829YOPS   PO412436   5.421  18.323   5.629  0.2171 -0.0883 -0.2410
  829YOPS   GL112437   5.255  18.645   5.957 -0.3073 -0.0117 -0.0839
  829YOPS   GL212438   5.371  18.977   5.890  0.1485 -0.0618  0.0226
  829YOPS   C1A12439   5.455  18.721   6.426  0.2111  0.1430 -0.2814
  829YOPS   D2A12440   5.661  19.027   6.656 -0.1199  0.0031  0.1356
  829YOPS   C3A12441   5.721  19.034   7.031 -0.2310  0.0676  0.0637
  829YOPS   C4A12442   5.744  19.117   7.418  0.2174 -0.0070 -0.1875
  829YOPS   C1B12443   5.466  19.285   6.167 -0.2410  0.1892 -0.3466
  829YOPS   C2B12444   5.691  19.528   6.401  0.1532 -0.0640 -0.0948
  829YOPS   D3B12445   6.045  19.684   6.525  0.1579 -0.2186  0.1219
  829YOPS   C4B12446   6.222  19.673   6.869  0.1270  0.0485  0.0672
  830YOPS   CNO12447  11.315   8.603   5.683 -0.0788 -0.1526 -0.2596
  830YOPS   PO412448  11.546   8.888   5.424  0.0270  0.2573  0.0192
  830YOPS   GL112449  11.577   8.955   5.931 -0.1904  0.1736  0.0265
  830YOPS   GL212450  11.880   8.866   6.066  0.0478  0.2705  0.1431
  830YOPS   C1A12451  11.438   8.929   6.362 -0.0980 -0.1150 -0.1336
  830YOPS   D2A12452  11.184   8.762   6.692 -0.0021  0.0979 -0.1585
  830YOPS   C3A12453  11.032   8.747   7.099  0.1598 -0.0802  0.2694
  830YOPS   C4A12454  10.833   8.546   7.403 -0.2035 -0.1974 -0.1686
  830YOPS   C1B12455  11.928   8.936   6.463 -0.1158  0.3811 -0.2351
  830YOPS   C2B12456  11.644   8.964   6.861 -0.1552 -0.1052  0.1580
  830YOPS   D3B12457  11.600   8.839   7.250 -0.3405 -0.2183 -0.0006
  830YOPS   C4B12458  11.351   8.577   7.462  0.0671 -0.2000  0.0368
  831YOPS   CNO12459  16.934  11.813   5.333 -0.1787 -0.0399 -0.1894
  831YOPS   PO412460  16.800  12.008   5.494 -0.2592 -0.0176  0.0751
  831YOPS   GL112461  17.058  12.066   5.876  0.3420 -0.1179 -0.1462
  831YOPS   GL212462  17.026  12.347   6.046  0.1439  0.0852 -0.0638
  831YOPS   C1A12463  17.198  11.907   6.295  0.0290 -0.3832 -0.1893
  831YOPS   D2A12464  17.209  11.883   6.730 -0.3349  0.1507  0.0700
  831YOPS   C3A12465  17.196  11.683   7.025  0.1822 -0.0364  0.2757
  831YOPS   C4A12466  17.023  11.836   7.335  0.0292  0.0267 -0.4255
  831YOPS   C1B12467  17.227  12.376   6.392 -0.3618  0.2222  0.1763
  831YOPS   C2B12468  17.021  12.430   6.911  0.1724 -0.1014 -0.1151
  831YOPS   D3B12469  17.198  12.681   7.194 -0.2203 -0.3909 -0.0017
  831YOPS   C4B12470  17.517  12.993   6.976  0.1978 -0.1490 -0.0719
  832YOPS   CNO12471  10.314  14.512   5.747  0.2617  0.3469  0.0463
  832YOPS   PO412472  10.528  14.142   5.817  0.1435 -0.1539  0.2378
  832YOPS   GL112473  10.417  14.337   6.266 -0.1651 -0.1414  0.0849
  832YOPS   GL212474  10.407  14.699   6.212 -0.0657 -0.1431  0.0399
  832YOPS   C1A12475  10.580  14.293   6.717  0.1865  0.1664  0.3617
  832YOPS   D2A12476  10.460  14.310   7.129  0.6396 -0.1031  0.0333
  832YOPS   C3A12477  10.054  14.418   7.420 -0.0596 -0.3420 -0.2591
  832YOPS   C4A12478  10.112  14.746   7.742  0.1268  0.1070  0.2618
  832YOPS   C1B12479  10.434  14.777   6.504  0.0090  0.2074  0.1366
  832YOPS   C2B12480  10.597  15.017   6.804  0.1092  0.0754  0.2768
  832YOPS   D3B12481  10.629  15.299   7.138  0.0194  0.0794  0.1832
  832YOPS   C4B12482  10.945  15.467   7.464 -0.2827  0.0972 -0.2010
  833YOPS   CNO12483  12.501   6.711   5.284  0.0703 -0.2277  0.1968
  833YOPS   PO412484  12.294   6.355   5.154 -0.2957  0.0185  0.2111
  833YOPS   GL112485  12.207   6.372   5.618  0.2385 -0.1356  0.3721
  833YOPS   GL212486  11.914   6.500   5.707  0.0350 -0.2987  0.0871
  833YOPS   C1A12487  12.428   6.344   6.070 -0.1273 -0.3104  0.0815
  833YOPS   D2A12488  12.896   6.135   6.104 -0.0769  0.2977  0.0846
  833YOPS   C3A12489  13.280   5.918   6.307 -0.0308 -0.2148 -0.2428
  833YOPS   C4A12490  13.268   5.696   6.631  0.3322  0.1004 -0.1755
  833YOPS   C1B12491  12.185   6.726   6.260  0.2302  0.1396 -0.0364
  833YOPS   C2B12492  12.511   6.670   6.576  0.0209 -0.1538  0.0778
  833YOPS   D3B12493  12.764   6.817   6.933 -0.1691  0.0928 -0.0762
  833YOPS   C4B12494  13.110   6.692   7.031  0.0808  0.0605  0.0581
  834YOPS   CNO12495   4.727  17.260   5.669 -0.0698  0.1736  0.2114
  834YOPS   PO412496   4.483  16.945   5.611  0.1548 -0.2599 -0.0287
  834YOPS   GL112497   4.348  16.999   6.057 -0.0613  0.0373  0.4151
  834YOPS   GL212498   4.671  17.223   6.180  0.1434 -0.0441  0.0983
  834YOPS   C1A12499   4.419  16.808   6.504 -0.0213 -0.0260  0.1329
  834YOPS   D2A12500   4.339  16.959   6.987 -0.0322  0.2847  0.2844
  834YOPS   C3A12501   4.055  17.006   7.439  0.0120  0.0790  0.1434
  834YOPS   C4A12502   4.053  17.399   7.702 -0.0836  0.2254 -0.0200
  834YOPS   C1B12503   4.415  17.296   6.600  0.0933  0.0601  0.2599
  834YOPS   C2B12504   4.366  17.433   6.996 -0.0040  0.1105 -0.1752
  834YOPS   D3B12505   4.474  17.773   7.188 -0.2063 -0.0203 -0.0450
  834YOPS   C4B12506   4.588  18.039   6.888  0.0759 -0.1340  0.4809
  835YOPS   CNO12507  13.630  10.436   5.972  0.0994  0.2626  0.1188
  835YOPS   PO412508  13.932  10.589   5.712  0.1592  0.0556  0.0638
  835YOPS   GL112509  13.868  10.911   6.016  0.0800 -0.2182 -0.0173
  835YOPS   GL212510  14.066  10.840   6.166  0.1817  0.0246  0.1712
  835YOPS   C1A12511  13.425  10.848   6.339 -0.3799 -0.3509  0.0968
  835YOPS   D2A12512  13.377  10.780   6.737 -0.2333  0.3645  0.1516
  835YOPS   C3A12513  13.396  10.750   7.192  0.0765  0.0376 -0.3477
  835YOPS   C4A12514  13.748  10.709   7.420 -0.0286  0.1082 -0.1011
  835YOPS   C1B12515  13.933  10.770   6.558 -0.3684  0.1018  0.0609
  835YOPS   C2B12516  13.825  10.574   6.896 -0.1114  0.1279  0.2208
  835YOPS   D3B12517  13.924  10.254   7.329 -0.2989  0.1371 -0.2741
  835YOPS   C4B12518  13.728   9.849   7.422  0.1388 -0.2526 -0.0302
  836YOPS   CNO12519   9.684   9.730   5.851  0.2830 -0.0950  0.2032
  836YOPS   PO412520  10.175   9.741   5.641  0.0198 -0.0396  0.2876
  836YOPS   GL112521  10.145   9.433   6.050  0.1106 -0.2162 -0.0135
  836YOPS   GL212522  10.040   9.081   6.072 -0.1581  0.1948 -0.2059
  836YOPS   C1A12523  10.390   9.382   6.463  0.1291 -0.0837  0.0475
  836YOPS   D2A12524  10.669   9.543   6.704  0.0068  0.1105 -0.1036
  836YOPS   C3A12525  10.778   9.643   7.080  0.1939 -0.3475  0.2239
  836YOPS   C4A12526  10.421   9.570   7.433 -0.2242  0.1453  0.1301
  836YOPS   C1B12527  10.445   8.960   6.081 -0.3012  0.2561 -0.1806
  836YOPS   C2B12528  10.693   8.587   6.359 -0.0011 -0.0558  0.0021
  836YOPS   D3B12529  10.710   8.513   6.705  0.1311  0.2755 -0.0355
  836YOPS   C4B12530  10.503   8.588   7.003 -0.0812  0.1328  0.2124
  837YOPS   CNO12531  17.114  14.087   5.418 -0.0054  0.2423 -0.1574
  837YOPS   PO412532  17.089  14.593   5.350 -0.0324 -0.0889  0.1280
  837YOPS   GL112533  17.098  14.458   5.785 -0.0064 -0.0135 -0.0036
  837YOPS   GL212534  17.416  14.285   5.758 -0.0826  0.0261  0.0589
  837YOPS   C1A12535  16.970  14.327   6.155  0.3762 -0.1126  0.1732
  837YOPS   D2A12536  16.980  14.442   6.592 -0.0573 -0.1185  0.0647
  837YOPS   C3A12537  16.829  14.653   6.990  0.4027  0.4962  0.4091
  837YOPS   C4A12538  16.511  14.680   7.289 -0.2388  0.0245 -0.1515
  837YOPS   C1B12539  17.895  14.310   5.806  0.2121  0.0215 -0.0817
  837YOPS   C2B12540  18.299  14.364   5.920 -0.2705 -0.2661  0.0377
  837YOPS   D3B12541  18.576  14.691   6.221  0.0355 -0.5560  0.2402
  837YOPS   C4B12542  18.925  14.640   6.495  0.3714  0.0679 -0.1327
  838YOPS   CNO12543  17.045  12.789   5.165  0.0235  0.0884 -0.0085
  838YOPS   PO412544  17.074  13.036   5.503 -0.1946 -0.3340 -0.3552
  838YOPS   GL112545  16.762  12.859   5.913  0.1638  0.1360  0.1244
  838YOPS   GL212546  16.807  13.098   6.110  0.0335 -0.2926  0.1602
  838YOPS   C1A12547  16.674  12.609   6.304 -0.1637  0.0325  0.0668
  838YOPS   D2A12548  16.552  12.661   6.734 -0.0178 -0.2037 -0.2288
  838YOPS   C3A12549  16.465  12.769   7.190 -0.0403 -0.1540  0.0209
  838YOPS   C4A12550  16.312  12.487   7.348  0.2290 -0.2660 -0.0441
  838YOPS   C1B12551  16.534  13.083   6.447 -0.2914  0.1251  0.2082
  838YOPS   C2B12552  16.407  13.145   6.921 -0.1264 -0.0130  0.0876
  838YOPS   D3B12553  16.385  13.362   7.309  0.0326  0.0035 -0.0889
  838YOPS   C4B12554  16.466  13.105   7.730 -0.0519 -0.1127 -0.1149
  839YOPS   CNO12555  11.992   7.775   5.208 -0.1664  0.0132 -0.0257
  839YOPS   PO412556  11.898   7.975   5.605 -0.1062  0.0800 -0.2208
  839YOPS   GL112557  11.797   7.800   5.912  0.1311  0.1413  0.2149
  839YOPS   GL212558  11.450   7.635   5.829  0.2365  0.0725 -0.1326
  839YOPS   C1A12559  11.889   7.686   6.343  0.2060  0.0950  0.0095
  839YOPS   D2A12560  12.053   7.529   6.823  0.3544  0.1599  0.4159
  839YOPS   C3A12561  12.084   7.652   7.250 -0.1317 -0.1092 -0.1288
  839YOPS   C4A12562  12.129   8.049   7.496 -0.0071  0.2982 -0.2180
  839YOPS   C1B12563  11.372   7.495   6.258 -0.2982 -0.2628  0.0896
  839YOPS   C2B12564  11.534   7.413   6.690 -0.3928 -0.0218 -0.1190
  839YOPS   D3B12565  11.677   7.339   7.155 -0.0010  0.0456 -0.0785
  839YOPS   C4B12566  11.416   7.159   7.418  0.3888  0.1657  0.2348
  840YOPS   CNO12567   9.720  13.191   5.361  0.1218  0.1656 -0.0092
  840YOPS   PO412568   9.537  12.685   5.402  0.1522 -0.1008 -0.2667
  840YOPS   GL112569   9.674  12.842   5.835  0.0869 -0.0162  0.0967
  840YOPS   GL212570   9.890  13.150   5.829  0.2335  0.1136  0.1303
  840YOPS   C1A12571   9.945  12.901   6.217  0.1385  0.1533  0.4491
  840YOPS   D2A12572   9.891  13.085   6.549 -0.2177 -0.0103  0.0065
  840YOPS   C3A12573   9.811  12.974   6.971 -0.2734  0.0504 -0.0772
  840YOPS   C4A12574   9.673  12.567   7.044 -0.4560  0.1050  0.0008
  840YOPS   C1B12575   9.756  13.495   6.183 -0.0668  0.1029  0.2292
  840YOPS   C2B12576   9.600  13.914   6.216 -0.0622 -0.2278 -0.0305
  840YOPS   D3B12577   9.376  14.087   6.605 -0.3545 -0.1777  0.1493
  840YOPS   C4B12578   9.381  14.189   7.105  0.1526  0.0353 -0.0844
  841POPE   NH312579  11.369  14.194   5.677 -0.0715  0.1107 -0.2199
  841POPE   PO412580  11.251  14.592   5.392 -0.0577 -0.1613  0.0059
  841POPE   GL112581  11.366  14.675   5.847  0.1326 -0.1368  0.3482
  841POPE   GL212582  11.341  14.983   5.966 -0.3388 -0.0931 -0.2856
  841POPE   C1A12583  11.442  14.668   6.277  0.1789  0.1935  0.0521
  841POPE   D2A12584  11.529  14.681   6.694 -0.2452 -0.0384 -0.0886
  841POPE   C3A12585  11.690  14.562   7.040 -0.0771  0.3224  0.0189
  841POPE   C4A12586  11.462  14.682   7.347 -0.0653  0.2636  0.3281
  841POPE   C1B12587  11.397  15.272   6.246  0.1667 -0.4895 -0.2091
  841POPE   C2B12588  11.442  15.472   6.622  0.2423 -0.0012  0.1625
  841POPE   C3B12589  11.654  15.435   6.977 -0.0199  0.2384  0.0043
  841POPE   C4B12590  12.126  15.331   7.118  0.3746  0.1125 -0.1293
  842POPE   NH312591   4.271  16.096   5.449  0.1193 -0.0951 -0.2329
  842POPE   PO412592   4.520  16.442   5.406  0.0001 -0.1851  0.0374
  842POPE   GL112593   4.599  16.387   5.804 -0.0381 -0.1593 -0.0230
  842POPE   GL212594   4.939  16.319   5.960 -0.0126 -0.1909 -0.1552
  842POPE   C1A12595   4.561  16.371   6.229  0.0147  0.0319 -0.0235
  842POPE   D2A12596   4.315  16.136   6.481  0.2303  0.1517 -0.0513
  842POPE   C3A12597   4.445  15.912   6.812 -0.0306 -0.0772  0.3545
  842POPE   C4A12598   4.674  15.527   6.876 -0.3007  0.0395 -0.3890
  842POPE   C1B12599   5.058  16.394   6.362 -0.0154 -0.1508 -0.1876
  842POPE   C2B12600   5.091  16.367   6.802 -0.2493 -0.1792  0.0403
  842POPE   C3B12601   5.046  16.571   7.138  0.3697  0.2264  0.2127
  842POPE   C4B12602   4.857  16.713   7.567 -0.1887  0.4056 -0.0123
  843POPE   NH312603   8.138  14.290   4.888  0.0722  0.0068 -0.0543
  843POPE   PO412604   7.804  14.384   5.118  0.2081 -0.2106 -0.1112
  843POPE   GL112605   7.726  14.564   5.440 -0.2617  0.1115 -0.0042
  843POPE   GL212606   7.558  14.822   5.395 -0.0336 -0.1871  0.1161
  843POPE   C1A12607   7.877  14.457   5.834  0.3255  0.2140 -0.0249
  843POPE   D2A12608   8.229  14.633   6.070 -0.0349 -0.0218  0.2050
  843POPE   C3A12609   8.537  14.207   6.131 -0.2371  0.0972 -0.1839
  843POPE   C4A12610   8.966  14.203   6.263  0.0958  0.1096  0.0597
  843POPE   C1B12611   7.400  14.729   5.768 -0.0302  0.0254  0.5098
  843POPE   C2B12612   7.497  14.463   6.164  0.3297 -0.2031  0.0492
  843POPE   C3B12613   7.547  14.406   6.536  0.0465  0.2228  0.2015
  843POPE   C4B12614   7.649  14.108   6.733  0.0547 -0.2099  0.0498
  844POPE   NH312615   0.468  16.105   5.749 -0.3305  0.0777  0.3838
  844POPE   PO412616   0.291  16.574   5.701  0.2944 -0.2153  0.0383
  844POPE   GL112617   0.552  16.588   6.030  0.0174 -0.2057  0.0332
  844POPE   GL212618   0.887  16.757   6.018  0.1212  0.1251 -0.3819
  844POPE   C1A12619   0.695  16.491   6.464  0.2432 -0.1251 -0.1049
  844POPE   D2A12620   0.673  16.402   6.835  0.1217 -0.3569  0.1314
  844POPE   C3A12621   0.428  16.742   6.927 -0.0480 -0.0721 -0.4857
  844POPE   C4A12622   0.044  16.752   7.084  0.2300 -0.0590  0.2641
  844POPE   C1B12623   0.814  16.984   6.428 -0.0071 -0.3952 -0.0733
  844POPE   C2B12624   0.865  16.960   6.813 -0.2650 -0.4425  0.2441
  844POPE   C3B12625   0.874  16.810   7.260 -0.4785  0.1979 -0.2753
  844POPE   C4B12626   0.464  16.757   7.485 -0.0621  0.1202  0.2265
  845POPE   NH312627   5.346  15.867   5.333 -0.2543 -0.0516 -0.3070
  845POPE   PO412628   5.250  16.335   5.574  0.0323 -0.0445 -0.1218
  845POPE   GL112629   5.452  16.145   5.828 -0.0523  0.1024 -0.4447
  845POPE   GL212630   5.691  16.216   5.758  0.0410 -0.0432  0.0226
  845POPE   C1A12631   5.311  15.948   6.175 -0.1797 -0.3104  0.1916
  845POPE   D2A12632   4.924  15.905   6.470 -0.0082  0.1657  0.0044
  845POPE   C3A12633   4.891  15.956   7.001  0.0468 -0.0834  0.0716
  845POPE   C4A12634   4.727  16.197   7.368 -0.1435 -0.4806 -0.0070
  845POPE   C1B12635   5.799  15.929   6.088  0.0407 -0.1852  0.1505
  845POPE   C2B12636   5.971  15.704   6.357  0.0479 -0.0949 -0.4075
  845POPE   C3B12637   5.986  15.326   6.651 -0.1126  0.1546  0.0124
  845POPE   C4B12638   6.373  15.028   6.744 -0.1962  0.1624  0.0771
  846POPE   NH312639   6.601   9.176   5.066  0.0554  0.0700  0.1064
  846POPE   PO412640   6.679   9.419   5.414  0.2383 -0.1117  0.1106
  846POPE   GL112641   6.709   9.322   5.933 -0.3384 -0.0834  0.2673
  846POPE   GL212642   7.057   9.417   5.961  0.0177  0.0308 -0.0570
  846POPE   C1A12643   6.537   9.166   6.337  0.4464 -0.3113 -0.0497
  846POPE   D2A12644   6.471   9.454   6.700 -0.0264 -0.0392 -0.1368
  846POPE   C3A12645   6.176   9.545   7.018  0.1583  0.2374 -0.0692
  846POPE   C4A12646   6.148   9.361   7.425 -0.1825  0.3081 -0.0704
  846POPE   C1B12647   7.320   9.661   6.377 -0.0104 -0.1755 -0.0003
  846POPE   C2B12648   7.531   9.765   6.712  0.0722  0.0588  0.0387
  846POPE   C3B12649   7.575   9.976   7.080  0.1469  0.1436  0.1545
  846POPE   C4B12650   7.489  10.013   7.479 -0.0417  0.1261 -0.2728
  847POPE   NH312651  14.032   3.676   5.267  0.2266 -0.0395  0.4159
  847POPE   PO412652  13.617   3.540   5.229 -0.1515 -0.0730  0.2355
  847POPE   GL112653  13.543   3.364   5.618 -0.4681  0.3023  0.1152
  847POPE   GL212654  13.592   3.049   5.571 -0.2027 -0.2010  0.2435
  847POPE   C1A12655  13.578   3.546   6.017 -0.0868  0.0607 -0.1357
  847POPE   D2A12656  13.599   3.757   6.394 -0.0589  0.1004  0.0266
  847POPE   C3A12657  13.478   3.781   6.734  0.2910 -0.3528  0.4136
  847POPE   C4A12658  13.608   3.662   7.154  0.1314  0.0520  0.1615
  847POPE   C1B12659  13.830   3.074   5.870  0.0627  0.1147  0.1245
  847POPE   C2B12660  13.840   3.258   6.289 -0.2186  0.0369 -0.0775
  847POPE   C3B12661  14.032   3.635   6.287 -0.0431  0.2826 -0.0786
  847POPE   C4B12662  13.957   3.916   6.053 -0.2290 -0.1291  0.0091
  848POPE   NH312663   0.817  10.526   4.927  0.2449 -0.0264  0.0736
  848POPE   PO412664   1.333  10.371   4.877 -0.3473  0.1391  0.0655
  848POPE   GL112665   1.225  10.550   5.268 -0.0928 -0.2617  0.0657
  848POPE   GL212666   1.403  10.364   5.465 -0.0645  0.3025 -0.1215
  848POPE   C1A12667   1.151  10.740   5.690  0.1233 -0.0128  0.0222
  848POPE   D2A12668   1.058  11.164   5.795 -0.0154  0.0315  0.1335
  848POPE   C3A12669   0.842  11.181   6.252  0.0971 -0.0972  0.0633
  848POPE   C4A12670   0.899  11.240   6.660 -0.1083  0.1738 -0.3434
  848POPE   C1B12671   1.591  10.616   5.794 -0.1375  0.2789  0.1415
  848POPE   C2B12672   1.835  10.641   6.078  0.0526  0.0389 -0.0934
  848POPE   C3B12673   1.715  10.732   6.473 -0.0289  0.1420 -0.0700
  848POPE   C4B12674   1.285  10.898   6.608 -0.0549 -0.3140  0.0616
  849POPE   NH312675   1.142   9.666   5.168  0.2944  0.0293  0.2313
  849POPE   PO412676   1.000  10.122   5.128 -0.1569  0.2501 -0.1263
  849POPE   GL112677   0.938  10.110   5.567 -0.0491 -0.1155  0.1042
  849POPE   GL212678   0.851   9.791   5.600 -0.3052 -0.1457 -0.0130
  849POPE   C1A12679   1.236  10.232   5.917 -0.1911  0.0047  0.0361
  849POPE   D2A12680   1.061  10.130   6.372 -0.0628  0.0163 -0.2871
  849POPE   C3A12681   1.072  10.296   6.791 -0.1808  0.1985 -0.0618
  849POPE   C4A12682   1.175  10.470   7.235 -0.2087 -0.1145 -0.0042
  849POPE   C1B12683   0.985   9.709   5.988 -0.1122  0.2547  0.0632
  849POPE   C2B12684   0.851   9.615   6.367  0.1133 -0.1655  0.2699
  849POPE   C3B12685   0.819   9.822   6.718 -0.0366  0.2541  0.3190
  849POPE   C4B12686   0.802  10.015   7.115  0.2210  0.1381 -0.2170
  850POPE   NH312687   3.762   9.317   5.065  0.3316 -0.1935  0.0769
  850POPE   PO412688   3.489   8.910   4.979  0.3303 -0.1480 -0.0400
  850POPE   GL112689   3.496   8.903   5.421  0.1638 -0.5384  0.2102
  850POPE   GL212690   3.203   8.814   5.512  0.4166 -0.1496  0.0311
  850POPE   C1A12691   3.708   8.918   5.735  0.2725  0.0363 -0.3228
  850POPE   D2A12692   3.756   9.043   6.194 -0.3762  0.3232 -0.2651
  850POPE   C3A12693   3.509   9.029   6.543 -0.2664  0.0143 -0.1981
  850POPE   C4A12694   3.318   9.256   6.704 -0.1819  0.2052 -0.1174
  850POPE   C1B12695   3.073   9.110   5.647 -0.0867  0.0737  0.3463
  850POPE   C2B12696   3.270   8.868   6.058  0.2011 -0.0660  0.0947
  850POPE   C3B12697   3.145   8.766   6.364  0.0154  0.1315  0.1209
  850POPE   C4B12698   2.842   8.605   6.353  0.0556 -0.3541  0.0414
  851POPE   NH312699  16.784   2.573   5.410  0.1047 -0.0739 -0.1974
  851POPE   PO412700  17.197   2.783   5.399  0.3948 -0.1936  0.1634
  851POPE   GL112701  17.127   2.549   5.809  0.1133 -0.0408 -0.0961
  851POPE   GL212702  17.315   2.246   5.843  0.0698  0.1210  0.1435
  851POPE   C1A12703  16.903   2.367   6.186  0.1589 -0.1813  0.4598
  851POPE   D2A12704  16.684   1.998   6.410  0.0131  0.0216 -0.0652
  851POPE   C3A12705  16.652   1.947   6.837 -0.0731 -0.1090  0.0135
  851POPE   C4A12706  16.453   1.703   7.130  0.1884  0.0227 -0.3344
  851POPE   C1B12707  17.553   1.803   5.983  0.3043 -0.1140  0.2192
  851POPE   C2B12708  17.763   1.626   6.227  0.1096 -0.1484 -0.1247
  851POPE   C3B12709  18.105   1.741   6.479 -0.1330  0.1071  0.2551
  851POPE   C4B12710  18.463   2.019   6.518 -0.3451 -0.3119 -0.0023
  852POPE   NH312711   9.314   4.288   5.124  0.0178  0.0249 -0.0259
  852POPE   PO412712   9.491   3.944   5.272  0.0019  0.1596  0.0810
  852POPE   GL112713   9.597   4.153   5.551  0.1681 -0.5642 -0.0456
  852POPE   GL212714   9.259   4.188   5.630  0.1635  0.0993 -0.1212
  852POPE   C1A12715   9.915   4.053   5.883  0.0165 -0.3714  0.1373
  852POPE   D2A12716  10.361   4.311   5.842  0.0448  0.1720 -0.1271
  852POPE   C3A12717   9.982   4.512   5.585 -0.1621 -0.1044  0.0176
  852POPE   C4A12718   9.815   4.791   5.358 -0.0795  0.0765 -0.5375
  852POPE   C1B12719   9.341   4.218   6.071 -0.4795  0.0299  0.1103
  852POPE   C2B12720   9.566   4.429   6.343 -0.2661 -0.3024 -0.0232
  852POPE   C3B12721   9.576   4.636   6.896  0.2947  0.1714 -0.0304
  852POPE   C4B12722   9.789   4.741   7.252 -0.0926 -0.1649 -0.1173
  853POPE   NH312723  10.074  18.840   5.482  0.1199 -0.0582  0.2348
  853POPE   PO412724   9.971  19.232   5.612  0.1086 -0.2229  0.4223
  853POPE   GL112725   9.957  19.064   5.940 -0.1741 -0.1858  0.2354
  853POPE   GL212726   9.834  18.738   6.021 -0.0768 -0.1118 -0.0937
  853POPE   C1A12727  10.172  19.009   6.285 -0.1061  0.0917  0.0133
  853POPE   D2A12728  10.232  18.743   6.632 -0.2154  0.3602  0.2474
  853POPE   C3A12729  10.426  18.868   7.071 -0.1334  0.3002  0.0138
  853POPE   C4A12730  10.600  19.320   7.170  0.3452  0.1454 -0.0188
  853POPE   C1B12731   9.750  18.840   6.468 -0.1239  0.2571 -0.1100
  853POPE   C2B12732   9.752  18.866   6.911  0.0066  0.0316  0.0585
  853POPE   C3B12733   9.805  18.991   7.321  0.0577  0.3481  0.0284
  853POPE   C4B12734   9.528  19.244   7.508  0.0691  0.1499  0.1853
  854POPE   NH312735   3.282  12.747   4.814  0.0065 -0.1712  0.1648
  854POPE   PO412736   3.594  12.728   5.139 -0.2021  0.0120 -0.1221
  854POPE   GL112737   3.181  12.791   5.437 -0.0662 -0.2926 -0.2707
  854POPE   GL212738   3.312  13.059   5.736 -0.5432  0.1139  0.1088
  854POPE   C1A12739   3.267  12.529   5.743 -0.0529 -0.0415  0.0210
  854POPE   D2A12740   2.970  12.249   6.081 -0.2088 -0.1326 -0.3390
  854POPE   C3A12741   3.121  12.271   6.545 -0.1600  0.2018  0.0746
  854POPE   C4A12742   3.248  12.319   6.953  0.0558  0.1333 -0.0452
  854POPE   C1B12743   3.086  13.013   6.155  0.0352 -0.1583 -0.0068
  854POPE   C2B12744   2.860  13.150   6.562 -0.5288  0.2211  0.1314
  854POPE   C3B12745   2.868  13.136   7.048 -0.0115 -0.1756 -0.2333
  854POPE   C4B12746   3.041  12.850   7.237 -0.2843  0.1639  0.0254
  855POPE   NH312747  16.217  13.181   5.310  0.2361  0.1728 -0.2875
  855POPE   PO412748  15.924  12.879   5.464 -0.3057 -0.0072 -0.1167
  855POPE   GL112749  15.766  12.734   5.882 -0.2632  0.0891  0.0430
  855POPE   GL212750  16.155  12.775   6.008  0.4067  0.2152 -0.0053
  855POPE   C1A12751  15.765  12.477   6.213 -0.1380 -0.3822  0.0597
  855POPE   D2A12752  15.651  12.533   6.672 -0.0463  0.0032  0.1198
  855POPE   C3A12753  15.562  12.052   6.791  0.1351  0.0891 -0.1966
  855POPE   C4A12754  15.290  11.875   7.030 -0.1505  0.1535 -0.3310
  855POPE   C1B12755  16.106  12.756   6.441 -0.0418  0.0225 -0.2679
  855POPE   C2B12756  16.057  12.758   6.875 -0.2149 -0.0249 -0.0460
  855POPE   C3B12757  15.684  12.821   7.119 -0.1252  0.1207 -0.0844
  855POPE   C4B12758  15.407  13.238   7.084  0.0467  0.0092 -0.0841
  856POPE   NH312759  11.245  18.481   5.380 -0.3493  0.1955 -0.1954
  856POPE   PO412760  10.965  18.181   5.467  0.0881 -0.0542 -0.0165
  856POPE   GL112761  10.905  18.070   5.850  0.0112  0.2949  0.0171
  856POPE   GL212762  10.669  18.146   6.111  0.3333  0.1672 -0.0079
  856POPE   C1A12763  11.133  18.148   6.239  0.1198 -0.1079 -0.1828
  856POPE   D2A12764  11.229  17.980   6.572  0.2040  0.1580 -0.1614
  856POPE   C3A12765  11.266  18.255   6.835 -0.0421 -0.1059  0.2430
  856POPE   C4A12766  11.290  18.340   7.263  0.1464  0.2295  0.1961
  856POPE   C1B12767  10.734  17.818   6.374  0.1321 -0.2731 -0.1569
  856POPE   C2B12768  10.918  17.608   6.714  0.0185 -0.0839 -0.0131
  856POPE   C3B12769  11.147  17.539   7.263  0.0288  0.1616 -0.2598
  856POPE   C4B12770  11.296  17.247   7.585  0.2467 -0.0446  0.1524
  857POPE   NH312771  11.890   2.081   5.075 -0.2698 -0.0238 -0.1284
  857POPE   PO412772  11.581   2.251   5.227 -0.3271 -0.1901  0.0813
  857POPE   GL112773  11.579   2.197   5.703  0.1430 -0.0860 -0.0848
  857POPE   GL212774  11.223   2.020   5.847 -0.1608  0.0644 -0.0428
  857POPE   C1A12775  11.503   2.341   6.161  0.0190  0.0509 -0.0369
  857POPE   D2A12776  11.641   2.273   6.534  0.0633  0.1483  0.2515
  857POPE   C3A12777  11.576   2.282   6.969 -0.5649  0.2201 -0.2584
  857POPE   C4A12778  11.435   2.495   7.270  0.1414 -0.2273 -0.0824
  857POPE   C1B12779  11.010   2.167   6.195  0.4329 -0.1955  0.1976
  857POPE   C2B12780  10.690   2.127   6.570 -0.0745  0.0113  0.1314
  857POPE   C3B12781  10.819   2.421   6.896  0.1210 -0.1942 -0.0039
  857POPE   C4B12782  11.011   2.738   7.098 -0.0299 -0.2366  0.2898
  858POPE   NH312783  15.813   9.768   5.114 -0.0090 -0.2035 -0.2445
  858POPE   PO412784  16.098   9.982   5.469 -0.1074  0.3871  0.2306
  858POPE   GL112785  16.134   9.905   5.985  0.0794 -0.2056 -0.1959
  858POPE   GL212786  16.320   9.614   5.922 -0.0321 -0.1476  0.0236
  858POPE   C1A12787  16.235  10.147   6.361 -0.0563 -0.2068  0.1801
  858POPE   D2A12788  16.290  10.301   6.705  0.1247 -0.3115 -0.0262
  858POPE   C3A12789  16.205  10.618   6.868  0.0515 -0.0670  0.1026
  858POPE   C4A12790  16.176  10.865   7.220  0.0857  0.3985  0.0945
  858POPE   C1B12791  16.492   9.545   6.225  0.3344 -0.1077 -0.0572
  858POPE   C2B12792  16.861   9.530   6.418 -0.0216 -0.1751 -0.0283
  858POPE   C3B12793  16.937   9.686   6.807  0.0361 -0.0032 -0.1387
  858POPE   C4B12794  17.176   9.846   7.078  0.1980  0.1659 -0.1357
  859POPE   NH312795   1.497   4.173   5.615 -0.2717 -0.1362 -0.1806
  859POPE   PO412796   1.745   4.435   5.384  0.2792 -0.1444  0.3293
  859POPE   GL112797   1.433   4.679   5.714 -0.1214  0.1268  0.1312
  859POPE   GL212798   1.192   4.456   5.799 -0.0519 -0.0726 -0.0135
  859POPE   C1A12799   1.329   4.994   5.977  0.0917  0.2212  0.3577
  859POPE   D2A12800   1.088   5.346   6.066  0.1736 -0.0009  0.0982
  859POPE   C3A12801   1.071   5.326   6.425  0.2798 -0.0298 -0.1186
  859POPE   C4A12802   0.756   5.624   6.670 -0.0419 -0.0039 -0.2192
  859POPE   C1B12803   1.395   4.479   6.227  0.1160 -0.1797 -0.3793
  859POPE   C2B12804   1.491   4.581   6.604  0.0480 -0.3046 -0.3700
  859POPE   C3B12805   1.637   4.801   6.898  0.0656 -0.0975 -0.2203
  859POPE   C4B12806   1.640   4.821   7.316  0.1304 -0.1512  0.1356
  860POPE   NH312807  12.635  14.885   5.425 -0.1098  0.0023  0.2710
  860POPE   PO412808  12.658  14.315   5.284 -0.0700  0.0964  0.2153
  860POPE   GL112809  12.511  14.439   5.659  0.0403  0.1279  0.1535
  860POPE   GL212810  12.910  14.473   5.762  0.0738  0.1944  0.1267
  860POPE   C1A12811  12.422  14.241   6.007 -0.0115 -0.3302 -0.0163
  860POPE   D2A12812  12.457  14.335   6.467  0.4009 -0.2841 -0.1459
  860POPE   C3A12813  12.768  14.248   6.748 -0.0147  0.1730  0.0000
  860POPE   C4A12814  12.891  14.076   7.083  0.2928 -0.5118  0.1310
  860POPE   C1B12815  12.744  14.732   6.065 -0.0068  0.2328 -0.1220
  860POPE   C2B12816  12.882  15.029   6.323 -0.3124  0.3612  0.2164
  860POPE   C3B12817  12.879  15.040   6.684  0.0381  0.0333 -0.0353
  860POPE   C4B12818  12.916  15.510   6.909  0.0186 -0.4087  0.1470
  861POPE   NH312819   5.564  13.070   4.663  0.1213  0.2379  0.0439
  861POPE   PO412820   5.590  13.401   4.834  0.0591  0.0041  0.3543
  861POPE   GL112821   5.503  13.387   5.283  0.0287 -0.2992  0.0232
  861POPE   GL212822   5.179  13.526   5.254 -0.2364 -0.1833  0.0633
  861POPE   C1A12823   5.279  13.235   5.775 -0.0611 -0.1868 -0.1081
  861POPE   D2A12824   5.148  13.129   6.110  0.1219 -0.3715  0.1441
  861POPE   C3A12825   5.313  12.956   6.360  0.3874  0.1085  0.2600
  861POPE   C4A12826   5.454  12.661   6.670 -0.0021  0.1268  0.3250
  861POPE   C1B12827   5.365  13.752   5.677  0.1343 -0.0439  0.3290
  861POPE   C2B12828   5.681  14.081   5.750  0.1542  0.3311 -0.0928
  861POPE   C3B12829   6.107  14.231   5.521 -0.1141 -0.3047  0.0911
  861POPE   C4B12830   6.527  14.432   5.477  0.1697  0.1384 -0.3601
  862POPE   NH312831  15.003  16.114   5.225 -0.1279  0.1595 -0.2260
  862POPE   PO412832  14.669  16.356   5.422  0.0119  0.1481  0.3259
  862POPE   GL112833  14.877  16.516   5.792  0.1746 -0.4210 -0.1695
  862POPE   GL212834  15.098  16.297   5.765  0.2215 -0.4264 -0.3318
  862POPE   C1A12835  14.977  16.405   6.230  0.3594 -0.1647  0.2566
  862POPE   D2A12836  14.832  16.474   6.711 -0.1227  0.1553 -0.0707
  862POPE   C3A12837  14.989  16.778   6.927 -0.2730 -0.1891  0.2497
  862POPE   C4A12838  14.785  17.051   7.205 -0.0386  0.0473 -0.1481
  862POPE   C1B12839  15.510  16.380   6.038  0.0302 -0.1169 -0.5225
  862POPE   C2B12840  15.684  16.313   6.479  0.1562  0.3772 -0.2772
  862POPE   C3B12841  15.824  16.108   6.926  0.4402 -0.1546  0.1581
  862POPE   C4B12842  15.703  15.883   7.295  0.2945  0.1014  0.3341
  863POPE   NH312843   6.149  11.927   5.272 -0.5471 -0.0005 -0.4135
  863POPE   PO412844   6.626  12.079   5.258  0.2323 -0.4240 -0.0005
  863POPE   GL112845   6.707  12.289   5.603 -0.2146 -0.0262  0.0026
  863POPE   GL212846   6.703  12.565   5.696  0.5028 -0.0399 -0.0932
  863POPE   C1A12847   6.999  12.148   6.015 -0.0278  0.1260 -0.0457
  863POPE   D2A12848   7.399  11.945   6.053  0.1742 -0.2121 -0.2026
  863POPE   C3A12849   7.492  11.687   6.433 -0.1313  0.2064 -0.0676
  863POPE   C4A12850   7.773  11.651   6.790  0.3257 -0.1207  0.2436
  863POPE   C1B12851   6.708  12.493   6.111 -0.0183  0.2515  0.1744
  863POPE   C2B12852   6.758  12.521   6.580  0.0581 -0.3543 -0.1025
  863POPE   C3B12853   6.719  12.696   6.945 -0.0566  0.1088  0.2499
  863POPE   C4B12854   6.513  13.000   7.089  0.1611 -0.0973 -0.0733
  864POPE   NH312855  16.497  11.539   5.457 -0.2636  0.0469 -0.1568
  864POPE   PO412856  16.835  11.288   5.305 -0.0478 -0.2725  0.2647
  864POPE   GL112857  17.151  11.376   5.613  0.1823  0.1026 -0.0225
  864POPE   GL212858  16.995  11.539   5.746  0.0466  0.0090  0.1475
  864POPE   C1A12859  17.423  11.557   6.019  0.0607 -0.1980  0.0962
  864POPE   D2A12860  17.345  11.409   6.435  0.0493  0.0483  0.1425
  864POPE   C3A12861  17.389  10.919   6.503 -0.1182  0.0492 -0.3026
  864POPE   C4A12862  17.762  10.610   6.713  0.1028 -0.5016 -0.1575
  864POPE   C1B12863  16.890  11.475   6.135 -0.0126 -0.0269 -0.0486
  864POPE   C2B12864  16.812  11.569   6.554 -0.0874 -0.1094 -0.1085
  864POPE   C3B12865  16.582  11.700   6.813 -0.1339 -0.2379 -0.2274
  864POPE   C4B12866  16.264  11.660   7.110 -0.1506 -0.2010 -0.2545
  865POPE   NH312867   7.529   6.751   5.225 -0.2217 -0.1377 -0.1902
  865POPE   PO412868   7.530   6.255   5.241  0.1942 -0.1850  0.0376
  865POPE   GL112869   7.415   6.277   5.612  0.4237 -0.0202 -0.0563
  865POPE   GL212870   7.683   6.188   5.749 -0.3192 -0.0150  0.1336
  865POPE   C1A12871   7.394   6.459   5.969 -0.1711  0.2744 -0.1316
  865POPE   D2A12872   7.411   6.642   6.429 -0.0522  0.0080  0.0500
  865POPE   C3A12873   7.500   6.564   6.814 -0.0688 -0.1687  0.0607
  865POPE   C4A12874   7.578   6.661   7.184 -0.1239  0.2434 -0.1691
  865POPE   C1B12875   7.841   5.932   6.071  0.0943  0.0685  0.0189
  865POPE   C2B12876   8.031   5.882   6.545  0.1505  0.0218 -0.3645
  865POPE   C3B12877   8.265   5.848   6.875 -0.0770 -0.0741 -0.0609
  865POPE   C4B12878   8.308   5.694   7.311 -0.0444  0.0834 -0.2540
  866POPE   NH312879  11.357   9.349   5.789 -0.0128  0.3191  0.0223
  866POPE   PO412880  10.962   9.189   5.668  0.3399  0.1305  0.0704
  866POPE   GL112881  10.929   9.258   6.000 -0.1508  0.0857  0.0904
  866POPE   GL212882  10.758   9.573   6.022 -0.4235  0.1371 -0.1189
  866POPE   C1A12883  10.810   9.091   6.383 -0.2546  0.0671 -0.1088
  866POPE   D2A12884  10.777   9.024   6.810 -0.0203  0.0885 -0.2361
  866POPE   C3A12885  10.747   9.209   7.267  0.0227 -0.3817 -0.0208
  866POPE   C4A12886  10.870   9.432   7.599  0.2088 -0.2545  0.3098
  866POPE   C1B12887  10.890   9.755   6.346  0.2104 -0.1051  0.0957
  866POPE   C2B12888  10.895   9.984   6.720 -0.0981  0.1139 -0.1345
  866POPE   C3B12889  10.939  10.114   7.083  0.0450  0.0273 -0.1155
  866POPE   C4B12890  10.684  10.016   7.342  0.4708  0.1629  0.0540
  867POPE   NH312891   8.254  10.207   5.573 -0.0389 -0.0846 -0.0492
  867POPE   PO412892   8.713  10.278   5.611 -0.0208  0.1462  0.1593
  867POPE   GL112893   8.795  10.457   5.987  0.2216  0.0436  0.1996
  867POPE   GL212894   9.131  10.451   5.951  0.1123 -0.2834 -0.2177
  867POPE   C1A12895   8.761  10.724   6.287  0.0183 -0.1778 -0.2337
  867POPE   D2A12896   8.858  10.742   6.723 -0.0855 -0.2696  0.1028
  867POPE   C3A12897   8.712  10.558   7.018 -0.2727 -0.1564  0.2674
  867POPE   C4A12898   9.001  10.348   7.337  0.1901 -0.0492  0.2315
  867POPE   C1B12899   9.189  10.478   6.398  0.0783  0.1004  0.3274
  867POPE   C2B12900   9.215  10.478   6.844  0.2658  0.1943  0.0797
  867POPE   C3B12901   9.490  10.383   7.189  0.1922  0.2530  0.3256
  867POPE   C4B12902   9.735  10.011   7.336 -0.4316 -0.0616  0.0217
  868POPE   NH312903  16.945   8.670   5.612  0.1934 -0.0347 -0.0779
  868POPE   PO412904  17.328   8.720   5.574 -0.3994 -0.3540 -0.3527
  868POPE   GL112905  17.574   8.763   5.843  0.1627 -0.3606  0.0269
  868POPE   GL212906  17.673   9.029   5.816  0.4533  0.1247 -0.1604
  868POPE   C1A12907  17.637   8.646   6.213 -0.0455  0.1415 -0.1188
  868POPE   D2A12908  18.048   8.769   6.208  0.0812 -0.3469  0.1112
  868POPE   C3A12909  18.144   9.081   6.452  0.1090 -0.0936  0.3107
  868POPE   C4A12910  18.275   9.285   6.885 -0.2938  0.0943 -0.1436
  868POPE   C1B12911  17.751   9.248   6.172 -0.1458  0.0680  0.3170
  868POPE   C2B12912  17.925   9.552   6.489  0.0533 -0.2241 -0.0910
  868POPE   C3B12913  17.780   9.968   6.742 -0.0520  0.0510 -0.2606
  868POPE   C4B12914  18.081  10.280   6.741  0.2758  0.0588 -0.0608
  869POPE   NH312915  13.827   7.174   5.403  0.3698  0.1962  0.1204
  869POPE   PO412916  13.608   7.625   5.332 -0.0697  0.3105  0.2059
  869POPE   GL112917  13.442   7.391   5.775 -0.2484  0.0864 -0.0329
  869POPE   GL212918  13.448   7.793   5.828  0.1219 -0.0928 -0.0903
  869POPE   C1A12919  13.565   7.228   6.190 -0.1973  0.0598 -0.2013
  869POPE   D2A12920  13.286   6.998   6.218 -0.0401 -0.0913  0.2578
  869POPE   C3A12921  12.963   7.075   6.430  0.1632  0.0187 -0.3198
  869POPE   C4A12922  12.505   7.199   6.598  0.0695 -0.0245 -0.2338
  869POPE   C1B12923  13.485   7.898   6.186  0.0047 -0.1647 -0.3252
  869POPE   C2B12924  13.582   7.979   6.599  0.2143 -0.2706 -0.1080
  869POPE   C3B12925  13.484   7.692   6.882  0.0574 -0.0194  0.1603
  869POPE   C4B12926  13.476   7.288   7.166  0.0038  0.2385 -0.2847
  870POPE   NH312927  13.098  17.414   5.210 -0.3901 -0.2296 -0.2662
  870POPE   PO412928  13.035  17.129   5.159  0.2047  0.2817 -0.4442
  870POPE   GL112929  12.749  17.246   5.555 -0.0950 -0.2500  0.3118
  870POPE   GL212930  12.825  17.529   5.636 -0.0833  0.0785 -0.1050
  870POPE   C1A12931  12.668  17.313   6.054 -0.0248  0.0705  0.1133
  870POPE   D2A12932  12.520  17.104   6.420 -0.0402 -0.2031  0.2039
  870POPE   C3A12933  12.260  17.348   6.490  0.0664  0.1982 -0.1858
  870POPE   C4A12934  11.891  17.429   6.325  0.1605 -0.1512 -0.1609
  870POPE   C1B12935  12.851  17.815   5.939 -0.2817  0.1394  0.1385
  870POPE   C2B12936  12.691  18.099   6.255  0.1757  0.1680  0.5206
  870POPE   C3B12937  12.667  18.087   6.641  0.0107 -0.4172 -0.2754
  870POPE   C4B12938  12.869  18.328   6.925  0.0521  0.0205 -0.1260
  871YOPE   NH312939  17.194   0.082   5.433  0.1807  0.1730 -0.0607
  871YOPE   PO412940  17.539   0.451   5.247  0.0777  0.2561  0.0879
  871YOPE   GL112941  17.448   0.579   5.688  0.1805  0.2720  0.1061
  871YOPE   GL212942  17.504   0.232   5.907  0.0707 -0.0904  0.0000
  871YOPE   C1A12943  17.186   0.652   5.992 -0.2061 -0.1294  0.0624
  871YOPE   D2A12944  17.043   0.811   6.274 -0.1780  0.0876  0.1164
  871YOPE   C3A12945  16.847   0.690   6.559 -0.4040  0.3783 -0.2298
  871YOPE   C4A12946  16.598   0.851   6.898 -0.1220 -0.1192 -0.4169
  871YOPE   C1B12947  17.666  -0.017   6.278 -0.0001  0.1820  0.3920
  871YOPE   C2B12948  17.662  -0.190   6.594  0.2292 -0.0464  0.0247
  871YOPE   D3B12949  17.649  -0.148   7.079 -0.0295 -0.3748 -0.1719
  871YOPE   C4B12950  17.337  -0.333   7.336  0.6818 -0.1443  0.0904
  872YOPE   NH312951  12.725   6.150   5.308  0.3463  0.1794 -0.5333
  872YOPE   PO412952  13.046   6.392   5.164 -0.1757 -0.0535 -0.0076
  872YOPE   GL112953  13.258   6.431   5.593 -0.3289  0.1201  0.0854
  872YOPE   GL212954  13.472   6.695   5.701 -0.1253  0.2404 -0.0455
  872YOPE   C1A12955  13.164   6.563   6.018  0.0887  0.1452 -0.1131
  872YOPE   D2A12956  12.875   6.630   6.292 -0.1505  0.3129  0.0246
  872YOPE   C3A12957  12.858   6.252   6.569 -0.1296 -0.2878 -0.1852
  872YOPE   C4A12958  12.640   6.290   6.913  0.3050 -0.2628 -0.0128
  872YOPE   C1B12959  13.674   6.699   6.148  0.0473  0.0555  0.1605
  872YOPE   C2B12960  13.788   6.792   6.503  0.0351  0.1107  0.0034
  872YOPE   D3B12961  13.802   6.801   6.927  0.1596 -0.0419  0.0377
  872YOPE   C4B12962  13.553   6.753   7.217 -0.0222  0.1527  0.0342
  873YOPE   NH312963   5.460  16.764   5.598  0.0244 -0.1575  0.1319
  873YOPE   PO412964   5.918  17.014   5.625 -0.1422  0.0477  0.2366
  873YOPE   GL112965   5.848  16.829   5.969  0.0606  0.0710 -0.0092
  873YOPE   GL212966   5.994  16.529   5.916 -0.3632  0.0158 -0.0207
  873YOPE   C1A12967   5.860  16.979   6.344 -0.1267  0.1214 -0.0114
  873YOPE   D2A12968   5.693  16.944   6.672  0.2030  0.1509  0.0134
  873YOPE   C3A12969   5.953  16.938   7.075  0.0296  0.0897 -0.1361
  873YOPE   C4A12970   6.240  17.005   7.310  0.0786 -0.1497 -0.1431
  873YOPE   C1B12971   6.090  16.556   6.329 -0.0673 -0.2767 -0.0951
  873YOPE   C2B12972   6.134  16.555   6.797  0.0390  0.1191  0.3800
  873YOPE   D3B12973   5.962  16.455   7.258 -0.1143 -0.0173 -0.1756
  873YOPE   C4B12974   5.807  16.713   7.507  0.0041 -0.2440  0.1088
  874YOPE   NH312975  14.561   7.028   5.583 -0.0092 -0.1349 -0.0680
  874YOPE   PO412976  14.273   6.730   5.605 -0.0306  0.2227 -0.0441
  874YOPE   GL112977  14.053   6.528   5.880  0.1426 -0.0392 -0.0497
  874YOPE   GL212978  14.083   6.209   5.780  0.1479 -0.1318 -0.0944
  874YOPE   C1A12979  14.173   6.535   6.329  0.0121  0.4595 -0.3860
  874YOPE   D2A12980  14.297   6.354   6.565  0.3984 -0.2965  0.2419
  874YOPE   C3A12981  13.941   6.222   6.765  0.0678  0.0062  0.1750
  874YOPE   C4A12982  13.814   6.292   7.193  0.0751  0.3387 -0.0984
  874YOPE   C1B12983  14.510   6.143   6.099  0.2899 -0.0340 -0.0816
  874YOPE   C2B12984  14.623   6.024   6.553  0.0373  0.1288  0.0626
  874YOPE   D3B12985  14.373   6.069   6.964  0.0161  0.0416  0.2486
  874YOPE   C4B12986  13.981   5.866   7.116  0.1635 -0.2427  0.2332
  875YOPE   NH312987   1.691  10.059   5.080 -0.2658 -0.0465 -0.1115
  875YOPE   PO412988   1.606   9.555   5.087 -0.1703 -0.1060  0.1454
  875YOPE   GL112989   1.536   9.273   5.336 -0.2155  0.0231  0.1747
  875YOPE   GL212990   1.237   9.373   5.525 -0.4823  0.2197 -0.1439
  875YOPE   C1A12991   1.708   9.149   5.831  0.0065 -0.2428 -0.0974
  875YOPE   D2A12992   1.623   9.203   6.322 -0.0482  0.1621  0.1623
  875YOPE   C3A12993   1.668   9.165   6.723  0.1062  0.3264  0.1552
  875YOPE   C4A12994   1.607   9.221   7.116 -0.1807  0.0516  0.1848
  875YOPE   C1B12995   0.840   9.332   5.755 -0.0438 -0.0246  0.3259
  875YOPE   C2B12996   0.602   9.197   6.156 -0.1381 -0.1811  0.0753
  875YOPE   D3B12997   0.247   9.167   6.295 -0.1341  0.1537 -0.2961
  875YOPE   C4B12998  -0.142   9.236   6.385 -0.2396  0.0279 -0.2401
  876YOPE   NH312999   9.154  18.371   5.623  0.0423 -0.2422  0.2308
  876YOPE   PO413000   8.736  18.647   5.579  0.0843  0.0781 -0.0151
  876YOPE   GL113001   8.953  18.763   5.939  0.0523 -0.0931 -0.0969
  876YOPE   GL213002   9.316  18.703   5.958 -0.2864 -0.0406  0.2454
  876YOPE   C1A13003   9.017  18.957   6.307  0.1347  0.3512  0.2230
  876YOPE   D2A13004   9.198  18.962   6.642  0.0190 -0.0504  0.0243
  876YOPE   C3A13005   9.065  19.400   6.758  0.1627 -0.0256  0.2579
  876YOPE   C4A13006   8.902  19.759   6.789  0.0184  0.1153  0.3409
  876YOPE   C1B13007   9.352  18.560   6.294 -0.0053  0.0490 -0.2489
  876YOPE   C2B13008   9.406  18.459   6.695 -0.0682  0.2072 -0.1602
  876YOPE   D3B13009   9.410  18.272   7.026 -0.0878 -0.3411  0.1227
  876YOPE   C4B13010   9.195  18.039   7.367 -0.2800  0.0196 -0.0982
  877YOPE   NH313011  12.272  16.494   5.377 -0.0571 -0.0196 -0.1023
  877YOPE   PO413012  11.873  16.510   5.525 -0.2093  0.2254  0.1804
  877YOPE   GL113013  12.015  16.433   5.930 -0.0014  0.2069 -0.2563
  877YOPE   GL213014  12.334  16.265   5.993 -0.0450  0.0351  0.2408
  877YOPE   C1A13015  11.875  16.326   6.260  0.2893  0.4240 -0.0285
  877YOPE   D2A13016  11.972  16.382   6.795 -0.1695  0.0304  0.2934
  877YOPE   C3A13017  12.326  16.252   7.001 -0.1891  0.1138 -0.1420
  877YOPE   C4A13018  12.589  16.155   7.429 -0.0335  0.0184  0.1916
  877YOPE   C1B13019  12.265  16.751   6.154  0.0044  0.0195  0.0140
  877YOPE   C2B13020  12.119  16.899   6.610 -0.0174 -0.0365  0.2263
  877YOPE   D3B13021  12.108  17.217   6.966  0.1951  0.0302  0.0212
  877YOPE   C4B13022  11.943  17.518   6.966  0.1379  0.0046  0.0429
  878YOPE   NH313023  16.195   6.081   5.353 -0.0269 -0.4812  0.1565
  878YOPE   PO413024  15.896   6.416   5.546 -0.0727  0.2333 -0.0170
  878YOPE   GL113025  15.745   6.458   5.983  0.0200  0.1858 -0.0271
  878YOPE   GL213026  15.725   6.775   5.882 -0.1484  0.1203  0.0209
  878YOPE   C1A13027  15.429   6.221   6.418  0.3067 -0.2314 -0.0363
  878YOPE   D2A13028  15.124   5.939   6.668  0.0941  0.0650  0.1884
  878YOPE   C3A13029  15.282   5.767   6.949  0.4669 -0.2531  0.2270
  878YOPE   C4A13030  15.510   5.556   7.125 -0.0343  0.1606 -0.0469
  878YOPE   C1B13031  15.606   6.756   6.351  0.3248  0.1625  0.4072
  878YOPE   C2B13032  15.475   6.679   6.753  0.0331  0.0832  0.1034
  878YOPE   D3B13033  15.471   6.866   7.179 -0.1346 -0.0512  0.1374
  878YOPE   C4B13034  15.469   7.159   7.486  0.3117  0.4152 -0.0448
  879YOPE   NH313035   7.390   1.103   5.479  0.0511 -0.1099  0.1385
  879YOPE   PO413036   7.257   0.659   5.553 -0.0112 -0.0121 -0.1473
  879YOPE   GL113037   7.275   0.354   5.812  0.1134 -0.0822  0.1440
  879YOPE   GL213038   7.032   0.212   5.900 -0.1299 -0.1311 -0.1123
  879YOPE   C1A13039   7.278   0.042   6.279 -0.2647  0.0029 -0.0869
  879YOPE   D2A13040   7.147  -0.305   6.548 -0.0108 -0.0148  0.2854
  879YOPE   C3A13041   6.901  -0.344   6.869  0.1283  0.1928 -0.4072
  879YOPE   C4A13042   6.791  -0.334   7.291  0.1628  0.1687 -0.1479
  879YOPE   C1B13043   6.872  -0.212   6.099  0.0048  0.0400  0.0087
  879YOPE   C2B13044   6.839  -0.598   6.314  0.3817 -0.2471  0.0429
  879YOPE   D3B13045   6.926  -0.835   6.705  0.2800  0.0404  0.0174
  879YOPE   C4B13046   7.106  -0.941   7.016 -0.0448 -0.0651  0.0295
  880YOPE   NH313047   0.625   0.231   5.710  0.3139 -0.1474 -0.0766
  880YOPE   PO413048   0.229   0.566   5.601 -0.2387 -0.1028  0.0449
  880YOPE   GL113049   0.348   0.534   6.057 -0.0961 -0.1141  0.1319
  880YOPE   GL213050   0.370   0.684   6.303  0.1177 -0.1299 -0.0610
  880YOPE   C1A13051   0.226   0.189   6.346  0.3867  0.0211 -0.1057
  880YOPE   D2A13052   0.167   0.257   6.779 -0.2013  0.3234  0.0409
  880YOPE   C3A13053   0.106   0.270   7.239  0.3083 -0.1038 -0.0487
  880YOPE   C4A13054  -0.045   0.284   7.676  0.1209 -0.2857 -0.1082
  880YOPE   C1B13055   0.307   0.721   6.738 -0.3950 -0.0283 -0.2778
  880YOPE   C2B13056   0.282   0.698   7.139 -0.2576  0.1274  0.0803
  880YOPE   D3B13057   0.321   0.673   7.604  0.1910 -0.2479  0.2351
  880YOPE   C4B13058   0.321   0.926   7.906 -0.3544  0.1794  0.1600
  881YOPE   NH313059  16.811   4.889   5.267  0.0187  0.1967 -0.1027
  881YOPE   PO413060  16.929   5.205   4.895 -0.3881  0.0375  0.0471
  881YOPE   GL113061  17.116   5.495   5.258  0.2989  0.0367  0.0045
  881YOPE   GL213062  17.138   5.271   5.525  0.3186 -0.4961  0.1320
  881YOPE   C1A13063  17.394   5.687   5.512  0.3738  0.3381  0.3468
  881YOPE   D2A13064  17.729   5.956   5.828 -0.0085  0.1771 -0.2447
  881YOPE   C3A13065  17.820   5.968   6.235 -0.1672 -0.0823  0.0960
  881YOPE   C4A13066  17.938   5.912   6.650  0.2194  0.0586 -0.1642
  881YOPE   C1B13067  17.058   5.341   5.899 -0.0153  0.0201  0.0341
  881YOPE   C2B13068  16.706   5.413   6.213  0.2205  0.0657 -0.1227
  881YOPE   D3B13069  16.701   5.511   6.567 -0.0815 -0.0577  0.0227
  881YOPE   C4B13070  16.969   5.714   6.840  0.2548 -0.4556  0.0348
  882YOPE   NH313071   4.437   7.952   4.992 -0.1832 -0.0820  0.1733
  882YOPE   PO413072   4.225   8.376   5.022  0.1694 -0.1601 -0.0615
  882YOPE   GL113073   4.396   8.247   5.417 -0.0993 -0.2731  0.1192
  882YOPE   GL213074   4.143   8.124   5.388  0.0102  0.1891 -0.0504
  882YOPE   C1A13075   4.738   8.403   5.795  0.1978  0.0061 -0.4176
  882YOPE   D2A13076   5.121   8.611   5.973  0.0500 -0.0438  0.5820
  882YOPE   C3A13077   5.133   8.566   6.433 -0.2857  0.2069  0.0533
  882YOPE   C4A13078   4.935   8.698   6.837 -0.2130  0.1236 -0.1133
  882YOPE   C1B13079   4.096   7.894   5.756 -0.0342 -0.2437  0.0613
  882YOPE   C2B13080   4.014   7.944   6.149  0.1398  0.2940  0.1167
  882YOPE   D3B13081   4.344   7.914   6.450  0.0282 -0.1761  0.3339
  882YOPE   C4B13082   4.541   7.743   6.747 -0.6248 -0.2537  0.0420
  883YOPE   NH313083   3.064   4.358   5.961 -0.1209 -0.1104 -0.0885
  883YOPE   PO413084   3.020   3.905   6.069 -0.0144  0.0917 -0.0466
  883YOPE   GL113085   3.099   4.010   6.441  0.1414 -0.1692  0.0350
  883YOPE   GL213086   3.274   4.355   6.412  0.0354 -0.0618  0.4378
  883YOPE   C1A13087   3.205   3.948   6.755 -0.0157 -0.0577 -0.0979
  883YOPE   D2A13088   3.241   3.989   7.229  0.1311 -0.1360  0.1632
  883YOPE   C3A13089   3.264   3.567   7.340  0.1317  0.1779 -0.0272
  883YOPE   C4A13090   3.139   3.226   7.488 -0.1743 -0.0467 -0.1040
  883YOPE   C1B13091   3.097   4.707   6.626  0.0998 -0.1801 -0.2208
  883YOPE   C2B13092   3.054   4.995   6.771  0.0039 -0.0660 -0.0103
  883YOPE   D3B13093   3.193   5.180   7.183 -0.3807 -0.1956  0.0206
  883YOPE   C4B13094   3.614   5.331   7.409 -0.4261 -0.1601 -0.1806
  884YOPE   NH313095  10.947  13.855   5.741  0.0368  0.1635  0.2668
  884YOPE   PO413096  11.332  13.586   5.819 -0.0515 -0.2074 -0.0017
  884YOPE   GL113097  11.493  13.884   6.120  0.3664  0.0096  0.3270
  884YOPE   GL213098  11.494  13.641   6.375 -0.2231  0.1540  0.2271
  884YOPE   C1A13099  11.384  14.096   6.414  0.3509 -0.2489 -0.1077
  884YOPE   D2A13100  11.463  14.178   6.776  0.1332 -0.0991 -0.0607
  884YOPE   C3A13101  11.391  14.210   7.212  0.0627  0.0290 -0.0541
  884YOPE   C4A13102  11.463  14.343   7.709  0.1321  0.2531 -0.1088
  884YOPE   C1B13103  11.339  13.713   6.737 -0.0322 -0.1775  0.0941
  884YOPE   C2B13104  11.665  13.664   7.096  0.0002  0.0887  0.2673
  884YOPE   D3B13105  12.008  13.694   7.400  0.0072 -0.0794  0.0407
  884YOPE   C4B13106  12.348  14.010   7.538 -0.1450  0.1963  0.3380
  885YOPE   NH313107   3.369   3.136   5.825  0.0711  0.0128  0.1781
  885YOPE   PO413108   3.728   3.350   5.632 -0.0479 -0.0536  0.1046
  885YOPE   GL113109   3.818   3.163   5.997 -0.2698  0.0646 -0.2172
  885YOPE   GL213110   3.681   2.992   6.314  0.1243  0.3925 -0.1955
  885YOPE   C1A13111   4.000   3.278   6.434 -0.3340 -0.1914 -0.2182
  885YOPE   D2A13112   4.160   3.286   6.837 -0.0372  0.0259 -0.0827
  885YOPE   C3A13113   4.044   3.259   7.274 -0.1353 -0.0834  0.1353
  885YOPE   C4A13114   4.215   3.317   7.546 -0.0609  0.0367  0.0655
  885YOPE   C1B13115   3.562   3.044   6.627  0.0732  0.0826 -0.2744
  885YOPE   C2B13116   3.488   3.174   7.042  0.3742  0.1757  0.0205
  885YOPE   D3B13117   3.592   3.023   7.404 -0.2220  0.5032 -0.3077
  885YOPE   C4B13118   3.956   2.818   7.559  0.0119 -0.2144  0.0220
  886YOPE   NH313119  14.084  12.442   5.558 -0.3495  0.0249 -0.1236
  886YOPE   PO413120  14.237  12.164   5.673 -0.0248 -0.0359  0.0675
  886YOPE   GL113121  14.212  12.040   6.137 -0.1531 -0.2928  0.2627
  886YOPE   GL213122  13.999  11.732   6.179  0.1509  0.0857 -0.2196
  886YOPE   C1A13123  14.315  12.260   6.428 -0.0568 -0.2156 -0.1944
  886YOPE   D2A13124  14.377  12.517   6.659  0.1404 -0.0621 -0.0722
  886YOPE   C3A13125  14.109  12.607   6.986  0.0036  0.0432 -0.1661
  886YOPE   C4A13126  13.677  12.694   7.237  0.0814  0.0551 -0.0393
  886YOPE   C1B13127  13.954  11.918   6.548  0.1696  0.1399 -0.1580
  886YOPE   C2B13128  14.052  11.970   6.953 -0.0395  0.1410  0.1951
  886YOPE   D3B13129  13.845  12.121   7.355  0.0420  0.1680 -0.0430
  886YOPE   C4B13130  14.074  12.143   7.712 -0.1094  0.0777 -0.2621
  887YOPE   NH313131  12.683   4.167   5.360 -0.2397  0.1509 -0.3017
  887YOPE   PO413132  12.687   4.629   5.218 -0.0737 -0.0682  0.0901
  887YOPE   GL113133  12.765   4.581   5.707  0.0712  0.0764 -0.0590
  887YOPE   GL213134  12.594   4.657   5.814  0.0079  0.1069 -0.0331
  887YOPE   C1A13135  12.687   4.188   6.101 -0.0512 -0.0213  0.0530
  887YOPE   D2A13136  12.631   4.246   6.546 -0.2973 -0.0848 -0.4264
  887YOPE   C3A13137  12.419   4.087   6.851  0.0372 -0.0902  0.1054
  887YOPE   C4A13138  12.207   3.819   7.122  0.1628  0.2836 -0.0222
  887YOPE   C1B13139  12.600   4.773   6.210 -0.3837  0.0289 -0.3292
  887YOPE   C2B13140  12.778   4.757   6.702  0.1772 -0.0663 -0.0228
  887YOPE   D3B13141  12.863   4.419   6.924  0.1391 -0.1410 -0.1344
  887YOPE   C4B13142  12.777   4.019   7.150 -0.2196  0.0125 -0.1806
  888YOPE   NH313143  17.796   4.793   5.028  0.2327  0.0971 -0.3984
  888YOPE   PO413144  17.572   4.524   5.263  0.1181  0.0939  0.1084
  888YOPE   GL113145  17.590   4.762   5.540 -0.0216  0.1853  0.0128
  888YOPE   GL213146  17.879   4.801   5.576 -0.1964  0.3891  0.1160
  888YOPE   C1A13147  17.498   5.009   5.901 -0.1497  0.2925 -0.0902
  888YOPE   D2A13148  17.565   5.414   5.947 -0.0226  0.1583 -0.2930
  888YOPE   C3A13149  17.907   5.417   6.336  0.2613  0.0989  0.0621
  888YOPE   C4A13150  18.347   5.652   6.488 -0.0451  0.4403  0.1876
  888YOPE   C1B13151  17.987   4.958   6.088  0.2843  0.1896  0.1522
  888YOPE   C2B13152  18.180   5.080   6.557 -0.0741 -0.2008  0.0097
  888YOPE   D3B13153  18.643   5.319   6.728  0.1781 -0.3229 -0.0211
  888YOPE   C4B13154  19.069   5.380   6.663  0.0755 -0.5444  0.0149
  889YOPE   NH313155   8.859   3.527   4.696 -0.2424 -0.2926 -0.0118
  889YOPE   PO413156   8.567   3.549   5.025 -0.3852  0.1402  0.0395
  889YOPE   GL113157   8.598   3.470   5.436 -0.0161  0.3043  0.2051
  889YOPE   GL213158   8.331   3.579   5.589  0.2315 -0.0599  0.1900
  889YOPE   C1A13159   8.921   3.693   5.703  0.1620  0.1232 -0.1408
  889YOPE   D2A13160   8.965   3.942   6.034 -0.0509  0.2026  0.0316
  889YOPE   C3A13161   9.123   3.893   6.386 -0.0703  0.2212  0.2124
  889YOPE   C4A13162   9.041   3.925   6.658  0.1405 -0.0047 -0.0378
  889YOPE   C1B13163   8.456   3.757   5.958 -0.5419  0.1085 -0.2049
  889YOPE   C2B13164   8.568   3.902   6.446 -0.0851  0.0743  0.4277
  889YOPE   D3B13165   8.702   4.317   6.775 -0.3850 -0.0625 -0.0265
  889YOPE   C4B13166   8.681   4.766   6.902  0.1006  0.4047  0.1725
  890YOPE   NH313167  15.417   3.898   5.110 -0.1073 -0.1155 -0.2312
  890YOPE   PO413168  15.196   4.301   5.179 -0.0302 -0.2186  0.2355
  890YOPE   GL113169  15.345   4.252   5.552  0.2313  0.0765  0.0710
  890YOPE   GL213170  15.172   4.113   5.855  0.0807 -0.3631  0.2589
  890YOPE   C1A13171  15.577   4.329   5.955 -0.0151 -0.1176  0.0480
  890YOPE   D2A13172  15.843   4.215   6.241  0.0013  0.0209 -0.0821
  890YOPE   C3A13173  16.023   4.438   6.595 -0.1091  0.3152  0.0672
  890YOPE   C4A13174  16.198   4.454   7.013  0.0626  0.0877  0.0224
  890YOPE   C1B13175  14.925   4.038   6.147  0.1304 -0.1002 -0.1249
  890YOPE   C2B13176  14.708   4.149   6.571  0.1287  0.2123  0.1045
  890YOPE   D3B13177  14.639   4.367   6.903 -0.0798  0.3338  0.1888
  890YOPE   C4B13178  14.449   4.638   7.075  0.0759 -0.1271 -0.1294
  891YOPE   NH313179   5.029   0.557   5.872  0.2302 -0.1016  0.2327
  891YOPE   PO413180   5.362   0.688   5.598  0.2649 -0.2217 -0.0140
  891YOPE   GL113181   5.458   0.770   6.117  0.0758 -0.1645  0.0142
  891YOPE   GL213182   5.714   0.872   6.322  0.2578  0.3165  0.1715
  891YOPE   C1A13183   5.291   1.087   6.460 -0.4027  0.0642 -0.1376
  891YOPE   D2A13184   5.082   1.083   6.879 -0.1128  0.1469  0.1728
  891YOPE   C3A13185   5.363   0.984   7.279 -0.2972 -0.2278  0.0477
  891YOPE   C4A13186   5.518   0.807   7.655  0.4369 -0.1381  0.1142
  891YOPE   C1B13187   5.614   0.878   6.790  0.2684 -0.1987 -0.1237
  891YOPE   C2B13188   5.904   0.847   7.140  0.1446 -0.0366  0.3949
  891YOPE   D3B13189   6.263   0.996   7.438  0.0821 -0.3810  0.0074
  891YOPE   C4B13190   6.653   0.933   7.622  0.3984 -0.3599 -0.2022
  892YOPE   NH313191   7.533  11.594   5.218  0.0728  0.1868 -0.1143
  892YOPE   PO413192   7.218  11.748   5.571  0.1257 -0.0826  0.0000
  892YOPE   GL113193   6.940  11.653   5.865 -0.0200  0.3645 -0.1739
  892YOPE   GL213194   6.719  11.351   5.832  0.2167 -0.1512 -0.0323
  892YOPE   C1A13195   6.862  11.649   6.283 -0.1901 -0.0010  0.2356
  892YOPE   D2A13196   6.725  11.672   6.659 -0.1084  0.0514  0.1694
  892YOPE   C3A13197   6.999  11.856   7.075  0.1180 -0.1576 -0.0239
  892YOPE   C4A13198   6.933  12.160   7.414 -0.2135  0.1932 -0.0257
  892YOPE   C1B13199   6.464  11.409   6.181  0.0897 -0.0436 -0.0372
  892YOPE   C2B13200   6.273  11.527   6.537  0.1543 -0.2001  0.1346
  892YOPE   D3B13201   6.056  11.826   6.847 -0.1951  0.2076 -0.2667
  892YOPE   C4B13202   6.147  11.896   7.323  0.0733  0.1216 -0.1345
  893YOPE   NH313203  14.698  11.855   5.643  0.0186 -0.2205  0.0512
  893YOPE   PO413204  14.357  11.593   5.816  0.2081 -0.1743  0.1094
  893YOPE   GL113205  14.291  11.354   6.154 -0.3439 -0.2990 -0.0922
  893YOPE   GL213206  14.505  11.081   6.211 -0.1675 -0.1809 -0.0392
  893YOPE   C1A13207  14.218  11.228   6.529  0.5040  0.2528  0.1593
  893YOPE   D2A13208  14.359  11.053   6.882  0.2057  0.0267 -0.3847
  893YOPE   C3A13209  14.275  10.664   7.157 -0.1400  0.3700  0.3843
  893YOPE   C4A13210  14.244  10.646   7.559  0.3360 -0.2141 -0.1046
  893YOPE   C1B13211  14.749  11.311   6.616 -0.1085  0.0103 -0.2401
  893YOPE   C2B13212  15.062  11.430   6.998  0.1139 -0.0954 -0.0121
  893YOPE   D3B13213  15.442  11.453   7.193 -0.1705 -0.3895 -0.1466
  893YOPE   C4B13214  15.690  11.581   7.547 -0.0100  0.1961  0.2833
  894YOPE   NH313215   6.450  13.452   4.942 -0.2413 -0.0274  0.1763
  894YOPE   PO413216   6.403  13.087   5.213 -0.0881 -0.1411  0.2143
  894YOPE   GL113217   6.212  13.027   5.622  0.0870  0.0377  0.1244
  894YOPE   GL213218   5.809  12.992   5.612 -0.1189  0.2332  0.2084
  894YOPE   C1A13219   6.080  13.199   6.087 -0.0131 -0.1134 -0.0009
  894YOPE   D2A13220   6.262  13.264   6.525 -0.2622  0.1681  0.1106
  894YOPE   C3A13221   6.167  13.394   6.866 -0.0583 -0.0399 -0.4473
  894YOPE   C4A13222   6.120  13.260   7.263 -0.2226 -0.0543  0.1255
  894YOPE   C1B13223   5.676  12.893   6.067  0.0549 -0.1532  0.0598
  894YOPE   C2B13224   5.851  12.863   6.507 -0.1073 -0.0169 -0.2352
  894YOPE   D3B13225   5.705  13.196   6.652  0.4322 -0.2803 -0.0003
  894YOPE   C4B13226   5.725  13.685   6.728  0.0483  0.1902  0.0186
  895YOPE   NH313227   3.706  17.171   4.980  0.1007 -0.2551 -0.1052
  895YOPE   PO413228   3.877  17.004   5.354 -0.1237  0.1171  0.2195
  895YOPE   GL113229   3.741  17.037   5.772  0.3096 -0.0665  0.0705
  895YOPE   GL213230   3.335  16.866   5.758 -0.1057  0.0273 -0.2369
  895YOPE   C1A13231   3.836  17.035   6.225  0.2115  0.1408 -0.0484
  895YOPE   D2A13232   3.939  17.302   6.363  0.1811  0.1656  0.0471
  895YOPE   C3A13233   3.604  17.576   6.568 -0.5245 -0.0874 -0.1807
  895YOPE   C4A13234   3.639  17.977   6.755  0.1924  0.1252 -0.1116
  895YOPE   C1B13235   2.983  16.804   6.099 -0.3312  0.0926 -0.0193
  895YOPE   C2B13236   3.053  16.880   6.547  0.1935  0.0660  0.2373
  895YOPE   D3B13237   3.096  16.695   6.896  0.1303 -0.3007 -0.2206
  895YOPE   C4B13238   3.019  16.392   7.296  0.2214 -0.1178 -0.1773
  896YOPE   NH313239  16.967   2.575   4.977 -0.2810  0.1590 -0.0215
  896YOPE   PO413240  16.820   2.973   5.100  0.2110  0.2492  0.0808
  896YOPE   GL113241  16.775   3.057   5.553  0.0560 -0.1970 -0.2310
  896YOPE   GL213242  16.939   3.049   5.734 -0.1193  0.0197  0.0838
  896YOPE   C1A13243  16.391   3.161   5.801 -0.0473  0.2148  0.1084
  896YOPE   D2A13244  16.363   3.607   5.974  0.1147 -0.0528  0.0751
  896YOPE   C3A13245  16.104   3.731   6.367  0.0542  0.3504 -0.0159
  896YOPE   C4A13246  15.916   3.978   6.669  0.0140  0.0986  0.1448
  896YOPE   C1B13247  17.008   2.908   6.187  0.2712  0.1373 -0.2204
  896YOPE   C2B13248  16.823   3.052   6.613  0.5522  0.2303 -0.0010
  896YOPE   D3B13249  16.942   2.796   6.901 -0.1321  0.1531  0.0404
  896YOPE   C4B13250  17.109   2.464   7.229  0.0981 -0.5336 -0.0194
  897YOPE   NH313251   2.013   2.452   5.721  0.0782  0.1144  0.1151
  897YOPE   PO413252   1.643   2.735   5.836  0.2477  0.1159  0.1195
  897YOPE   GL113253   1.744   2.762   6.261 -0.0294 -0.3438 -0.1047
  897YOPE   GL213254   2.015   2.523   6.222  0.0229  0.3882 -0.0887
  897YOPE   C1A13255   1.744   2.917   6.696 -0.0464 -0.3144 -0.0802
  897YOPE   D2A13256   2.040   3.182   6.975 -0.2602  0.1318  0.1663
  897YOPE   C3A13257   2.084   3.253   7.326  0.2016 -0.1419  0.1771
  897YOPE   C4A13258   1.844   3.112   7.677 -0.1121 -0.0783 -0.3113
  897YOPE   C1B13259   1.988   2.306   6.641  0.0158 -0.0235  0.3234
  897YOPE   C2B13260   1.955   2.161   7.005  0.2384  0.1418 -0.0914
  897YOPE   D3B13261   2.150   1.866   7.122  0.1279 -0.2139 -0.1141
  897YOPE   C4B13262   2.216   1.457   6.941 -0.2086 -0.4383 -0.3205
  898YOPE   NH313263   7.078   2.283   5.172  0.1057  0.0505 -0.2264
  898YOPE   PO413264   7.155   2.406   5.604 -0.0206  0.2269  0.1095
  898YOPE   GL113265   6.965   2.327   6.055 -0.1162  0.0560 -0.1410
  898YOPE   GL213266   6.656   2.164   6.177 -0.0066 -0.0082  0.0463
  898YOPE   C1A13267   7.154   2.051   6.388 -0.1817  0.0822 -0.3279
  898YOPE   D2A13268   7.405   1.764   6.358  0.1145 -0.0512  0.1525
  898YOPE   C3A13269   7.425   1.756   6.814 -0.0152  0.1076 -0.0185
  898YOPE   C4A13270   7.466   1.842   7.214 -0.1220 -0.1353 -0.6133
  898YOPE   C1B13271   6.585   2.154   6.628 -0.3446  0.2388 -0.0371
  898YOPE   C2B13272   6.510   2.343   6.992 -0.0425  0.0744  0.3080
  898YOPE   D3B13273   6.282   2.600   7.370 -0.7000  0.1828 -0.0720
  898YOPE   C4B13274   6.279   2.703   7.776 -0.0941  0.1797  0.1204
  899YOPE   NH313275   5.284   8.247   4.798 -0.1673 -0.0766  0.1992
  899YOPE   PO413276   5.380   8.426   5.152  0.0333  0.0793 -0.1050
  899YOPE   GL113277   5.703   8.550   5.415 -0.3180  0.0073 -0.2419
  899YOPE   GL213278   5.825   8.345   5.587 -0.0714  0.2933  0.0165
  899YOPE   C1A13279   5.992   8.794   5.765  0.0231 -0.0356  0.0744
  899YOPE   D2A13280   6.063   8.915   6.163 -0.2380  0.0523 -0.0629
  899YOPE   C3A13281   5.620   8.963   6.315  0.0634 -0.3334 -0.0496
  899YOPE   C4A13282   5.303   9.092   6.567  0.1630  0.0146  0.0784
  899YOPE   C1B13283   5.744   8.093   5.876  0.2842  0.2600 -0.4452
  899YOPE   C2B13284   5.666   8.042   6.268 -0.0016  0.3111  0.1075
  899YOPE   D3B13285   5.403   8.137   6.661 -0.2645  0.0471 -0.1018
  899YOPE   C4B13286   5.092   8.187   7.014  0.2465 -0.2077 -0.1555
  900YOPE   NH313287  11.748   4.489   5.521 -0.1805 -0.2015 -0.2495
  900YOPE   PO413288  11.919   4.896   5.387  0.3983  0.1120  0.2465
  900YOPE   GL113289  11.774   4.936   5.777 -0.1743 -0.0971  0.3640
  900YOPE   GL213290  11.488   4.917   6.052  0.0340 -0.0825  0.1009
  900YOPE   C1A13291  11.925   4.763   6.203 -0.1555 -0.0876  0.2982
  900YOPE   D2A13292  12.253   4.843   6.545 -0.0761 -0.1395 -0.3209
  900YOPE   C3A13293  12.294   4.543   6.804  0.0542  0.2615  0.0221
  900YOPE   C4A13294  12.363   4.345   7.247  0.0521  0.2228 -0.1779
  900YOPE   C1B13295  11.086   4.932   6.260 -0.1363 -0.1912 -0.0376
  900YOPE   C2B13296  11.008   4.630   6.631  0.0241 -0.1174 -0.3212
  900YOPE   D3B13297  10.772   4.246   6.779  0.1498 -0.1686 -0.0955
  900YOPE   C4B13298  10.698   3.787   6.579 -0.0320  0.1547 -0.0458
  901YOPE   NH313299  10.557  17.024   5.364  0.0066  0.0636 -0.2291
  901YOPE   PO413300  10.832  17.283   5.227  0.0081 -0.3753 -0.1494
  901YOPE   GL113301  10.671  17.331   5.825  0.4029  0.2731  0.0679
  901YOPE   GL213302  10.504  17.549   6.066 -0.2690 -0.2747  0.0830
  901YOPE   C1A13303  10.365  17.045   5.985  0.1639  0.0911  0.0297
  901YOPE   D2A13304  10.367  16.699   6.130 -0.2143  0.0687  0.1542
  901YOPE   C3A13305  10.612  16.467   6.416  0.3487 -0.1358  0.2823
  901YOPE   C4A13306  10.753  16.134   6.720  0.1553  0.0039  0.1384
  901YOPE   C1B13307  10.602  17.311   6.364  0.0283 -0.3613 -0.2045
  901YOPE   C2B13308  10.580  17.000   6.517  0.0694 -0.3553  0.2901
  901YOPE   D3B13309  10.583  16.734   6.852 -0.1114  0.1057 -0.1984
  901YOPE   C4B13310  10.380  16.884   7.164 -0.3273  0.0507  0.0605
  902YOPE   NH313311  13.548   2.642   5.196 -0.1478  0.0432  0.0879
  902YOPE   PO413312  13.951   2.708   5.069 -0.4574 -0.1529  0.1513
  902YOPE   GL113313  13.981   2.682   5.457  0.3084 -0.0305 -0.2311
  902YOPE   GL213314  13.597   2.567   5.670  0.0399  0.1169 -0.1035
  902YOPE   C1A13315  14.224   2.827   5.788  0.0751 -0.2084  0.0324
  902YOPE   D2A13316  14.226   2.813   6.210 -0.3487 -0.2417 -0.0774
  902YOPE   C3A13317  13.854   2.721   6.371  0.0665  0.2837  0.0028
  902YOPE   C4A13318  13.694   2.285   6.486 -0.1383  0.2552  0.1528
  902YOPE   C1B13319  13.247   2.664   5.975  0.1257 -0.0068 -0.0966
  902YOPE   C2B13320  12.890   2.587   6.035  0.2801 -0.2349 -0.1098
  902YOPE   D3B13321  12.483   2.627   6.333  0.1598  0.2324 -0.1653
  902YOPE   C4B13322  12.452   2.313   6.670  0.1052  0.1551 -0.0018
  903YOPE   NH313323   5.447  11.812   5.091 -0.2372 -0.1594 -0.2497
  903YOPE   PO413324   5.182  11.396   5.017 -0.1148  0.1309  0.0084
  903YOPE   GL113325   5.121  11.372   5.420  0.1618 -0.0059  0.0995
  903YOPE   GL213326   5.295  11.683   5.528 -0.0825  0.1278  0.1541
  903YOPE   C1A13327   5.017  11.312   5.885  0.2638  0.3025  0.0088
  903YOPE   D2A13328   4.888  11.437   6.288 -0.2575 -0.2725 -0.0213
  903YOPE   C3A13329   4.684  11.509   6.714  0.3991 -0.1853  0.0484
  903YOPE   C4A13330   4.537  11.332   6.971  0.1451 -0.3730  0.2405
  903YOPE   C1B13331   5.458  11.492   5.847 -0.0632 -0.1210 -0.2381
  903YOPE   C2B13332   5.489  11.105   6.048  0.2183 -0.1548 -0.1549
  903YOPE   D3B13333   5.588  10.722   6.131  0.0978  0.1626 -0.3640
  903YOPE   C4B13334   5.608  10.422   6.481  0.0373  0.1625  0.0508
  904YOPE   NH313335  10.109   7.797   5.430  0.2030 -0.2438  0.1436
  904YOPE   PO413336  10.474   7.491   5.498  0.0582  0.3322 -0.1352
  904YOPE   GL113337  10.200   7.335   5.835 -0.0018  0.0811 -0.0942
  904YOPE   GL213338   9.911   7.477   5.912 -0.2022  0.0419  0.2265
  904YOPE   C1A13339  10.167   7.282   6.310  0.2654 -0.2797 -0.0833
  904YOPE   D2A13340  10.099   7.299   6.899 -0.1179 -0.0550 -0.1717
  904YOPE   C3A13341  10.092   6.935   7.106  0.1806  0.0984 -0.4053
  904YOPE   C4A13342  10.044   6.652   7.491  0.1715  0.0457  0.1971
  904YOPE   C1B13343   9.655   7.467   6.262 -0.1426  0.1509 -0.0494
  904YOPE   C2B13344   9.609   7.386   6.673  0.2921 -0.1746  0.0169
  904YOPE   D3B13345   9.654   7.369   7.091  0.1529  0.2451  0.0441
  904YOPE   C4B13346   9.670   7.213   7.411 -0.0000 -0.2881 -0.1369
  905YOPE   NH313347   4.879  14.920   5.325  0.1118  0.1246  0.3913
  905YOPE   PO413348   5.153  14.598   5.100 -0.3137 -0.0320  0.1220
  905YOPE   GL113349   5.222  14.430   5.489 -0.1066  0.0905 -0.0723
  905YOPE   GL213350   5.159  14.698   5.667 -0.0217 -0.1449  0.0089
  905YOPE   C1A13351   4.933  14.115   5.739  0.0456 -0.1131 -0.0388
  905YOPE   D2A13352   4.782  14.167   6.072  0.0066 -0.1021 -0.0933
  905YOPE   C3A13353   5.055  14.227   6.481 -0.0177  0.0386 -0.2041
  905YOPE   C4A13354   5.288  14.000   6.772 -0.0514  0.0275 -0.0747
  905YOPE   C1B13355   5.348  14.483   5.965 -0.2433 -0.0515 -0.0243
  905YOPE   C2B13356   5.383  14.032   6.109  0.0682 -0.2228 -0.0956
  905YOPE   D3B13357   5.611  13.806   6.258  0.2661  0.3082  0.0982
  905YOPE   C4B13358   5.609  13.359   6.058  0.0327 -0.0393  0.0906
  906YOPE   NH313359   9.361   1.631   4.984  0.0740 -0.0928 -0.1716
  906YOPE   PO413360   9.636   1.909   5.134  0.2669 -0.1140 -0.0484
  906YOPE   GL113361   9.582   1.897   5.535  0.6052 -0.1350 -0.1904
  906YOPE   GL213362   9.414   1.569   5.520 -0.0804 -0.1864  0.3110
  906YOPE   C1A13363   9.731   1.960   5.977  0.0477  0.0533  0.1019
  906YOPE   D2A13364   9.791   1.997   6.530 -0.1147  0.0069 -0.2702
  906YOPE   C3A13365   9.466   1.775   6.732  0.0116  0.0486  0.0649
  906YOPE   C4A13366   9.128   1.772   7.032 -0.0543  0.0053 -0.0943
  906YOPE   C1B13367   9.191   1.797   5.774 -0.0445  0.0639  0.0549
  906YOPE   C2B13368   8.747   1.683   6.078 -0.1215  0.3788  0.0449
  906YOPE   D3B13369   8.474   1.994   5.946  0.0725 -0.0537 -0.2960
  906YOPE   C4B13370   8.293   2.185   5.583  0.0733 -0.1163  0.1109
  907YOPE   NH313371  18.052  17.257   5.438  0.0934  0.0059  0.1319
  907YOPE   PO413372  17.647  17.074   5.218  0.1046  0.1967 -0.0975
  907YOPE   GL113373  17.546  16.902   5.632 -0.1769  0.1327  0.1839
  907YOPE   GL213374  17.652  17.209   5.739 -0.0025 -0.0787 -0.0520
  907YOPE   C1A13375  17.542  16.756   6.150 -0.1568  0.0066  0.2247
  907YOPE   D2A13376  17.425  16.980   6.571 -0.4649  0.0510 -0.3044
  907YOPE   C3A13377  17.346  16.828   6.897 -0.0359  0.2310 -0.1838
  907YOPE   C4A13378  17.129  16.715   7.247 -0.0443 -0.1479  0.0225
  907YOPE   C1B13379  17.494  17.299   6.135  0.2201  0.0623 -0.0049
  907YOPE   C2B13380  17.381  17.643   6.377 -0.0022  0.4519 -0.0114
  907YOPE   D3B13381  17.184  17.942   6.609 -0.0463  0.0503 -0.1656
  907YOPE   C4B13382  17.040  18.270   6.888 -0.1000 -0.1077 -0.0001
  908YOPE   NH313383  10.146  17.116   5.008 -0.1457 -0.4017  0.1607
  908YOPE   PO413384   9.971  17.006   5.289 -0.3081  0.0705 -0.3895
  908YOPE   GL113385   9.859  17.001   5.857  0.1831 -0.3142  0.1667
  908YOPE   GL213386   9.959  17.399   6.012  0.0830  0.2933 -0.0634
  908YOPE   C1A13387   9.510  17.283   6.017  0.2137  0.1798  0.0655
  908YOPE   D2A13388   9.155  17.344   6.259 -0.1339  0.1548  0.5311
  908YOPE   C3A13389   9.111  17.368   6.683 -0.2357  0.1527  0.1334
  908YOPE   C4A13390   9.119  17.077   7.053  0.0912  0.1116  0.1804
  908YOPE   C1B13391  10.009  17.159   6.339 -0.4628  0.2174  0.4495
  908YOPE   C2B13392  10.103  17.054   6.773 -0.0567  0.3627  0.2973
  908YOPE   D3B13393   9.885  16.744   7.028 -0.1331  0.0224 -0.1681
  908YOPE   C4B13394   9.584  16.610   7.395  0.0523  0.1013  0.1261
  909YOPE   NH313395  15.208   7.400   5.456 -0.2866  0.1225 -0.1311
  909YOPE   PO413396  15.083   6.929   5.415 -0.1306  0.2113 -0.1609
  909YOPE   GL113397  15.157   6.982   5.858 -0.0805 -0.1197 -0.1010
  909YOPE   GL213398  14.877   7.144   5.940 -0.2963  0.0895 -0.3087
  909YOPE   C1A13399  15.119   7.055   6.377 -0.1027 -0.0021 -0.2519
  909YOPE   D2A13400  15.080   7.008   6.820 -0.2136  0.3917 -0.1870
  909YOPE   C3A13401  15.091   7.319   7.257  0.2895 -0.1581 -0.1198
  909YOPE   C4A13402  15.127   7.503   7.654 -0.0750  0.0727 -0.0103
  909YOPE   C1B13403  14.667   7.315   6.313 -0.0480  0.0064  0.2458
  909YOPE   C2B13404  14.718   7.267   6.631  0.0856 -0.1639 -0.1930
  909YOPE   D3B13405  14.615   7.127   6.926 -0.2258 -0.0106 -0.2458
  909YOPE   C4B13406  14.652   6.888   7.289 -0.0827  0.0498 -0.2931
  910YOPE   NH313407  15.761   5.704   5.375  0.1202  0.1703  0.2192
  910YOPE   PO413408  15.516   6.037   5.456 -0.1313  0.0510  0.2091
  910YOPE   GL113409  15.376   6.023   5.797 -0.0693  0.1624  0.0185
  910YOPE   GL213410  14.987   6.137   5.825  0.0707 -0.0370  0.2287
  910YOPE   C1A13411  15.433   5.816   6.163  0.0608  0.1365 -0.0713
  910YOPE   D2A13412  15.738   5.712   6.474 -0.1455 -0.1015 -0.5195
  910YOPE   C3A13413  16.030   5.737   6.964 -0.0632  0.0735  0.0777
  910YOPE   C4A13414  16.203   5.666   7.292 -0.0103  0.1043  0.1024
  910YOPE   C1B13415  14.925   5.794   6.213  0.3008 -0.0790 -0.0826
  910YOPE   C2B13416  14.755   5.544   6.576  0.0841 -0.2144  0.2109
  910YOPE   D3B13417  14.770   5.680   6.944  0.3198 -0.0813 -0.1577
  910YOPE   C4B13418  14.519   5.602   7.319  0.2317  0.1307 -0.1466
  911YOPE   NH313419   6.938   0.337   5.282  0.1750  0.2083  0.0823
  911YOPE   PO413420   7.138  -0.042   5.460 -0.1415  0.5215  0.2057
  911YOPE   GL113421   7.348  -0.187   5.840  0.0715 -0.2688 -0.0972
  911YOPE   GL213422   7.666   0.055   5.862  0.0161  0.0069 -0.0688
  911YOPE   C1A13423   7.545  -0.351   6.169 -0.2237 -0.1202 -0.1315
  911YOPE   D2A13424   7.745  -0.288   6.669 -0.0317 -0.0572 -0.0641
  911YOPE   C3A13425   7.919  -0.410   6.991 -0.1631 -0.2267 -0.1075
  911YOPE   C4A13426   8.047  -0.396   7.365  0.0470 -0.0813  0.0193
  911YOPE   C1B13427   7.680   0.371   6.204  0.1377  0.0768 -0.0699
  911YOPE   C2B13428   7.366   0.457   6.536  0.2822 -0.0585  0.1769
  911YOPE   D3B13429   7.213   0.210   6.764  0.2632 -0.0654  0.0148
  911YOPE   C4B13430   7.126   0.070   7.179  0.4267 -0.3163  0.0436
  912YOPE   NH313431  12.111   5.886   5.550 -0.0701 -0.1648 -0.0432
  912YOPE   PO413432  11.706   5.768   5.607 -0.0182 -0.3731 -0.1188
  912YOPE   GL113433  11.609   5.688   6.023  0.0181  0.1702 -0.1014
  912YOPE   GL213434  11.646   5.407   6.133  0.0678  0.0675  0.0464
  912YOPE   C1A13435  11.675   5.848   6.426 -0.3119  0.1623 -0.0492
  912YOPE   D2A13436  11.748   6.012   6.849 -0.1557  0.1366 -0.2646
  912YOPE   C3A13437  12.127   5.835   7.107 -0.1514  0.3449  0.1276
  912YOPE   C4A13438  12.172   5.810   7.541  0.2249  0.0036  0.1991
  912YOPE   C1B13439  11.558   5.174   6.454  0.0177 -0.3570  0.1039
  912YOPE   C2B13440  11.245   5.083   6.739 -0.0546 -0.2188  0.3336
  912YOPE   D3B13441  10.988   5.121   7.051 -0.1248 -0.1013 -0.3911
  912YOPE   C4B13442  10.635   5.141   7.243 -0.0179  0.0577 -0.0214
  913YOPE   NH313443   7.723   5.288   5.463 -0.0183 -0.2553  0.0411
  913YOPE   PO413444   7.381   5.007   5.422 -0.2538 -0.0008  0.2291
  913YOPE   GL113445   7.290   5.315   5.875  0.0189  0.2446 -0.2172
  913YOPE   GL213446   7.629   5.354   5.999 -0.0622 -0.1202  0.0690
  913YOPE   C1A13447   7.183   5.369   6.301 -0.1900 -0.2303 -0.2215
  913YOPE   D2A13448   7.460   5.489   6.674  0.4146 -0.2197  0.0515
  913YOPE   C3A13449   7.334   5.681   7.078 -0.1638  0.0947 -0.2568
  913YOPE   C4A13450   7.136   5.811   7.417  0.1586  0.0872  0.0381
  913YOPE   C1B13451   7.921   5.260   6.327  0.2638  0.1613 -0.1046
  913YOPE   C2B13452   7.941   5.424   6.799 -0.1191 -0.0948  0.3538
  913YOPE   D3B13453   7.788   5.611   7.204 -0.4549 -0.1023  0.1979
  913YOPE   C4B13454   7.544   5.767   7.658  0.1764  0.2689 -0.2879
  914YOPE   NH313455  18.504   6.280   4.776  0.0842 -0.2107 -0.0450
  914YOPE   PO413456  18.353   5.818   4.814  0.4274  0.1523 -0.0593
  914YOPE   GL113457  18.075   5.794   5.194 -0.0232 -0.2376 -0.1277
  914YOPE   GL213458  18.158   6.195   5.126 -0.0540 -0.0374  0.0664
  914YOPE   C1A13459  17.937   5.616   5.512 -0.1305  0.2738  0.4063
  914YOPE   D2A13460  18.091   5.397   5.835  0.2026  0.1154  0.0999
  914YOPE   C3A13461  18.418   5.437   6.030  0.1268  0.1366 -0.3576
  914YOPE   C4A13462  18.920   5.436   6.058  0.1600 -0.1092  0.1897
  914YOPE   C1B13463  17.992   6.278   5.551  0.0720  0.0946  0.0748
  914YOPE   C2B13464  18.061   6.378   6.029 -0.0539 -0.0554  0.0939
  914YOPE   D3B13465  18.101   6.389   6.526  0.1097  0.0467 -0.0291
  914YOPE   C4B13466  18.218   6.254   6.893 -0.1526  0.0797 -0.2822
  915YOPE   NH313467   1.222  15.939   5.826 -0.1158 -0.2005 -0.0604
  915YOPE   PO413468   1.439  16.248   5.581 -0.1337  0.0359  0.3963
  915YOPE   GL113469   1.413  16.341   6.043 -0.0727 -0.0035 -0.4002
  915YOPE   GL213470   1.778  16.240   6.091  0.1391 -0.1453  0.0121
  915YOPE   C1A13471   1.209  16.546   6.440 -0.0582 -0.1569  0.0583
  915YOPE   D2A13472   1.226  16.667   6.805  0.1540 -0.1234  0.0113
  915YOPE   C3A13473   1.510  17.087   6.916  0.0521 -0.0482  0.1073
  915YOPE   C4A13474   1.925  17.279   7.119  0.0815  0.0028 -0.0591
  915YOPE   C1B13475   1.734  16.168   6.618 -0.1027  0.1394  0.2427
  915YOPE   C2B13476   1.754  16.276   7.094 -0.0897  0.3166  0.0373
  915YOPE   D3B13477   2.101  16.291   7.384  0.2106  0.0958 -0.3037
  915YOPE   C4B13478   2.207  16.634   7.643  0.3362  0.0120  0.1806
  916YOPE   NH313479   6.603   6.509   5.490  0.1546 -0.3302  0.0472
  916YOPE   PO413480   6.694   6.900   5.514  0.1803  0.3126 -0.2131
  916YOPE   GL113481   6.812   6.898   5.999 -0.1035  0.0339  0.2956
  916YOPE   GL213482   6.572   7.057   6.100 -0.0663 -0.1682 -0.0481
  916YOPE   C1A13483   6.989   7.046   6.396 -0.0031 -0.2019  0.1359
  916YOPE   D2A13484   6.971   7.247   6.685  0.3669 -0.1004 -0.3274
  916YOPE   C3A13485   6.642   7.346   6.676  0.1573 -0.1088  0.1639
  916YOPE   C4A13486   6.454   7.028   6.578 -0.3098  0.0395 -0.0678
  916YOPE   C1B13487   6.365   7.420   6.261 -0.0123  0.1201  0.0294
  916YOPE   C2B13488   6.178   7.540   6.606  0.0030  0.3358  0.0505
  916YOPE   D3B13489   6.121   7.408   6.982 -0.0124  0.0257 -0.1885
  916YOPE   C4B13490   5.820   7.077   7.074 -0.4238  0.2604 -0.1009
  917YOPE   NH313491   3.723  14.707   5.451  0.3324  0.0362 -0.0208
  917YOPE   PO413492   3.314  14.841   5.435  0.1326 -0.1039 -0.0002
  917YOPE   GL113493   3.215  14.906   5.857 -0.0859 -0.1390 -0.0860
  917YOPE   GL213494   2.990  15.044   5.918  0.0624 -0.0689 -0.0185
  917YOPE   C1A13495   3.381  14.724   6.318  0.0681 -0.0924  0.2428
  917YOPE   D2A13496   3.323  14.326   6.499  0.0865  0.4783 -0.0910
  917YOPE   C3A13497   3.604  14.032   6.844  0.2458  0.1255 -0.1005
  917YOPE   C4A13498   3.490  13.682   7.005 -0.4081 -0.4301  0.5059
  917YOPE   C1B13499   2.873  14.934   6.359  0.0301 -0.1501 -0.2435
  917YOPE   C2B13500   3.026  14.717   6.713  0.0456  0.3956  0.0729
  917YOPE   D3B13501   3.056  14.654   7.097  0.3980 -0.0349  0.0280
  917YOPE   C4B13502   2.795  14.807   7.393 -0.2152 -0.0161 -0.1016
  918YOPE   NH313503  10.661  12.845   5.900 -0.1192  0.1401  0.0251
  918YOPE   PO413504  10.608  12.356   5.904  0.0721  0.1941  0.6444
  918YOPE   GL113505  10.385  12.185   6.183 -0.0037  0.3384 -0.0190
  918YOPE   GL213506  10.063  12.329   6.224 -0.1052 -0.1019  0.1503
  918YOPE   C1A13507  10.243  12.048   6.585  0.0372  0.3220 -0.0289
  918YOPE   D2A13508  10.381  12.022   6.999 -0.0564 -0.1838  0.2372
  918YOPE   C3A13509  10.413  12.005   7.420 -0.1015 -0.0129  0.2589
  918YOPE   C4A13510  10.408  12.244   7.711  0.0307  0.3611 -0.1007
  918YOPE   C1B13511  10.026  12.651   6.661  0.0840  0.0847  0.0212
  918YOPE   C2B13512  10.210  12.581   6.982  0.0368 -0.1100 -0.0719
  918YOPE   D3B13513  10.540  12.499   7.256 -0.1056 -0.0970 -0.2506
  918YOPE   C4B13514  10.948  12.196   7.422  0.3941  0.1322  0.3355
  919YOPE   NH313515  18.922   5.954   4.738 -0.0926  0.4448  0.3295
  919YOPE   PO413516  19.259   5.929   5.012  0.4126 -0.1083  0.0808
  919YOPE   GL113517  19.138   5.896   5.489 -0.0162 -0.0920  0.4543
  919YOPE   GL213518  19.154   5.549   5.631 -0.1909  0.2116  0.0113
  919YOPE   C1A13519  18.888   5.950   5.954  0.2088 -0.2837 -0.0114
  919YOPE   D2A13520  18.907   5.794   6.381  0.3204  0.2366 -0.1088
  919YOPE   C3A13521  18.683   5.983   6.733 -0.1150  0.2400 -0.1785
  919YOPE   C4A13522  18.762   5.970   7.202  0.0624 -0.0582  0.5085
  919YOPE   C1B13523  19.362   5.606   6.054  0.2156 -0.1944  0.0385
  919YOPE   C2B13524  19.512   5.444   6.425 -0.1280  0.1146  0.3379
  919YOPE   D3B13525  19.525   5.450   6.895 -0.1975 -0.0331  0.1792
  919YOPE   C4B13526  19.293   5.243   7.194  0.0364  0.0326  0.0803
  920YOPE   NH313527  16.802   6.861   4.993 -0.0818 -0.1382  0.0954
  920YOPE   PO413528  17.205   7.239   4.843 -0.0143 -0.2981  0.0231
  920YOPE   GL113529  17.447   7.188   5.177 -0.3339 -0.0089 -0.3264
  920YOPE   GL213530  17.398   7.443   5.414 -0.1012 -0.0646 -0.0595
  920YOPE   C1A13531  17.492   6.764   5.492  0.1355  0.0827  0.1357
  920YOPE   D2A13532  17.542   6.460   5.829 -0.1785 -0.2115 -0.1708
  920YOPE   C3A13533  17.299   6.120   6.059  0.1487 -0.0502 -0.1121
  920YOPE   C4A13534  17.064   5.759   6.272 -0.1845  0.0831  0.0181
  920YOPE   C1B13535  17.224   7.164   5.715  0.0829  0.1975 -0.1010
  920YOPE   C2B13536  17.177   6.912   5.883  0.0848  0.2099 -0.1675
  920YOPE   D3B13537  16.992   6.661   6.086  0.0796  0.0973  0.1676
  920YOPE   C4B13538  17.238   6.507   6.319 -0.1717 -0.1876  0.2714
  921YOPE   NH313539   7.150  16.581   5.392 -0.3155  0.0991  0.4342
  921YOPE   PO413540   7.200  16.145   5.418 -0.0075  0.1286 -0.0059
  921YOPE   GL113541   7.378  15.815   5.669 -0.4435 -0.0005  0.0009
  921YOPE   GL213542   6.982  15.579   5.726 -0.2850 -0.2134  0.1205
  921YOPE   C1A13543   7.368  15.607   6.063 -0.0166  0.0623  0.0323
  921YOPE   D2A13544   7.402  15.347   6.519  0.2298 -0.0085  0.0926
  921YOPE   C3A13545   7.055  15.368   6.738 -0.3570 -0.2379  0.0068
  921YOPE   C4A13546   6.791  15.097   6.973 -0.1710 -0.1162  0.1019
  921YOPE   C1B13547   7.112  15.184   5.981 -0.0832 -0.0459 -0.0898
  921YOPE   C2B13548   7.235  14.933   6.309 -0.2975 -0.2016 -0.0051
  921YOPE   D3B13549   7.214  14.757   6.665  0.2330  0.0969  0.0084
  921YOPE   C4B13550   7.025  14.600   7.119  0.1017  0.2405  0.2340
  922YOPE   NH313551   7.637   4.055   5.294  0.0196 -0.1054  0.0397
  922YOPE   PO413552   7.979   4.203   5.075  0.1756  0.3148 -0.0799
  922YOPE   GL113553   7.976   4.407   5.575  0.2944  0.1515  0.5174
  922YOPE   GL213554   7.693   4.335   5.726 -0.0622 -0.3360  0.2915
  922YOPE   C1A13555   8.231   4.603   5.817 -0.1394  0.0375  0.0648
  922YOPE   D2A13556   8.654   4.818   5.960  0.2160 -0.1496 -0.2551
  922YOPE   C3A13557   8.803   4.798   6.439 -0.0213 -0.1972 -0.1906
  922YOPE   C4A13558   9.162   4.763   6.637 -0.0951  0.1436 -0.2281
  922YOPE   C1B13559   7.613   4.416   6.127 -0.0459  0.1233  0.3832
  922YOPE   C2B13560   7.676   4.449   6.551 -0.0052 -0.0346  0.3778
  922YOPE   D3B13561   7.548   4.569   6.976  0.1510 -0.0903 -0.1103
  922YOPE   C4B13562   7.693   4.717   7.325 -0.0162 -0.1667 -0.3123
  923YOPE   NH313563   1.512  13.383   5.529  0.2391  0.1692  0.1888
  923YOPE   PO413564   1.239  13.704   5.419  0.2013 -0.2480 -0.1011
  923YOPE   GL113565   1.211  13.733   5.807 -0.4076  0.3455 -0.1201
  923YOPE   GL213566   1.164  13.446   5.931 -0.0017  0.0654  0.0110
  923YOPE   C1A13567   1.356  13.826   6.217  0.3768  0.1332 -0.1537
  923YOPE   D2A13568   1.292  13.539   6.501 -0.1690  0.0108  0.0540
  923YOPE   C3A13569   1.258  13.619   6.927  0.0092  0.1389  0.1017
  923YOPE   C4A13570   1.226  13.547   7.363 -0.1579 -0.2217 -0.1059
  923YOPE   C1B13571   1.445  13.229   6.170 -0.1997  0.1366  0.1167
  923YOPE   C2B13572   1.235  12.892   6.378  0.2996  0.3627 -0.0443
  923YOPE   D3B13573   1.108  12.560   6.640  0.0155  0.0854 -0.1883
  923YOPE   C4B13574   1.141  12.336   6.873  0.1460 -0.1146  0.0134
  924YOPE   NH313575   0.236   6.358   5.285  0.2959 -0.0641  0.0094
  924YOPE   PO413576   0.618   6.649   5.308 -0.3311 -0.0454  0.0676
  924YOPE   GL113577   0.642   6.651   5.731  0.0827  0.1023  0.2601
  924YOPE   GL213578   0.603   6.899   5.736 -0.2679 -0.4542 -0.1494
  924YOPE   C1A13579   0.572   6.437   6.044  0.1459  0.0583 -0.3110
  924YOPE   D2A13580   0.523   6.468   6.473 -0.0477  0.2823  0.1894
  924YOPE   C3A13581   0.580   6.468   6.803 -0.1618  0.0287 -0.1241
  924YOPE   C4A13582   0.816   6.419   7.242  0.1296  0.0933  0.2373
  924YOPE   C1B13583   0.706   6.945   6.187  0.1155  0.3400  0.2529
  924YOPE   C2B13584   0.648   6.953   6.623  0.1292  0.1590  0.0653
  924YOPE   D3B13585   0.740   6.897   7.150 -0.1136 -0.1212 -0.2900
  924YOPE   C4B13586   0.741   6.991   7.535  0.1245  0.2760  0.2297
  925YOPE   NH313587  11.395  12.809   5.382  0.3237  0.0330 -0.3458
  925YOPE   PO413588  11.669  13.114   5.640 -0.2842 -0.0437 -0.1725
  925YOPE   GL113589  11.691  13.280   5.995  0.1158 -0.0047 -0.1173
  925YOPE   GL213590  11.967  13.284   6.096  0.0916 -0.3638 -0.0337
  925YOPE   C1A13591  11.445  13.143   6.338  0.1417  0.2286  0.2835
  925YOPE   D2A13592  11.602  13.304   6.768 -0.0787  0.1609 -0.1243
  925YOPE   C3A13593  11.379  13.194   7.044 -0.0749  0.1407  0.0812
  925YOPE   C4A13594  11.403  13.370   7.441 -0.1228  0.0521 -0.1482
  925YOPE   C1B13595  11.952  13.447   6.458  0.1376 -0.3154 -0.2369
  925YOPE   C2B13596  12.075  13.421   6.879 -0.3017 -0.0009  0.1916
  925YOPE   D3B13597  12.259  13.223   7.158 -0.1388  0.0717 -0.1303
  925YOPE   C4B13598  12.161  13.153   7.524 -0.1612 -0.1639  0.0801
  926YOPE   NH313599  11.393  14.381   4.996 -0.1318 -0.1036 -0.0534
  926YOPE   PO413600  11.728  14.246   5.311  0.0139  0.1403 -0.0395
  926YOPE   GL113601  11.791  14.480   5.633  0.0419 -0.0822 -0.2320
  926YOPE   GL213602  11.839  14.827   5.803 -0.3840 -0.0460 -0.0069
  926YOPE   C1A13603  11.832  14.385   6.038 -0.0252  0.2111 -0.2732
  926YOPE   D2A13604  11.842  14.423   6.469  0.0315  0.1869  0.0445
  926YOPE   C3A13605  12.143  14.517   6.834 -0.0654  0.3692  0.0781
  926YOPE   C4A13606  12.370  14.234   7.095  0.5572 -0.3048  0.0573
  926YOPE   C1B13607  12.116  14.730   6.160  0.1599 -0.2483  0.0232
  926YOPE   C2B13608  12.329  14.855   6.474  0.0458  0.0703 -0.0998
  926YOPE   D3B13609  12.418  15.014   6.919 -0.0553 -0.1225  0.3371
  926YOPE   C4B13610  12.603  15.291   7.274  0.0624  0.0638 -0.1558
  927YOPE   NH313611  15.720   4.871   4.998  0.1004 -0.1785 -0.1191
  927YOPE   PO413612  15.865   5.224   5.269 -0.1393  0.2424 -0.1226
  927YOPE   GL113613  16.028   5.294   5.554  0.0205 -0.1726 -0.1826
  927YOPE   GL213614  16.229   5.625   5.557 -0.2375 -0.0385  0.1043
  927YOPE   C1A13615  16.069   5.018   5.937  0.1036 -0.1767  0.2248
  927YOPE   D2A13616  16.045   4.922   6.316  0.0640 -0.1640 -0.2873
  927YOPE   C3A13617  16.396   4.760   6.558  0.0015 -0.4207  0.1029
  927YOPE   C4A13618  16.659   4.600   6.921 -0.0706 -0.5159 -0.1531
  927YOPE   C1B13619  16.495   5.723   5.849 -0.2541 -0.0541 -0.0130
  927YOPE   C2B13620  16.951   5.856   5.763 -0.2700  0.4478 -0.3149
  927YOPE   D3B13621  17.210   6.176   5.563  0.2623  0.0299  0.1033
  927YOPE   C4B13622  17.626   6.072   5.335 -0.1390 -0.1869  0.0470
  928YOPE   NH313623  18.812  12.434   5.214 -0.2041  0.0494 -0.2438
  928YOPE   PO413624  18.632  12.724   5.341  0.0893 -0.2157 -0.0596
  928YOPE   GL113625  18.618  12.602   5.740 -0.1099  0.2319 -0.0150
  928YOPE   GL213626  18.631  12.253   5.653 -0.3261  0.0511 -0.0048
  928YOPE   C1A13627  18.666  12.483   6.064 -0.3583  0.1350 -0.0244
  928YOPE   D2A13628  18.477  12.502   6.455  0.0930  0.1229 -0.1450
  928YOPE   C3A13629  18.439  12.228   6.692  0.2720 -0.0794 -0.0558
  928YOPE   C4A13630  18.355  11.852   6.972  0.0227 -0.1407 -0.1731
  928YOPE   C1B13631  18.698  12.013   6.052 -0.0993 -0.0227 -0.2177
  928YOPE   C2B13632  18.844  12.023   6.404 -0.1539  0.0040 -0.2016
  928YOPE   D3B13633  18.787  11.751   6.808  0.3702 -0.0457  0.0572
  928YOPE   C4B13634  18.688  11.611   7.264 -0.0526 -0.2844 -0.1225
  929YOPE   NH313635  13.564   4.095   5.154  0.1094 -0.1272  0.0102
  929YOPE   PO413636  14.043   4.218   5.144 -0.1136  0.1000  0.0167
  929YOPE   GL113637  13.992   4.374   5.583 -0.0693  0.1700  0.3041
  929YOPE   GL213638  13.731   4.500   5.743 -0.1222 -0.0321 -0.1744
  929YOPE   C1A13639  14.031   4.469   6.148 -0.2017 -0.1287  0.0396
  929YOPE   D2A13640  14.207   4.193   6.415 -0.0367 -0.2228  0.0569
  929YOPE   C3A13641  14.209   4.229   6.856  0.2625 -0.0464  0.4341
  929YOPE   C4A13642  14.251   4.167   7.212  0.2185  0.0048 -0.1738
  929YOPE   C1B13643  13.595   4.220   6.046 -0.2852  0.1161 -0.2921
  929YOPE   C2B13644  13.563   4.219   6.524  0.1294  0.0371  0.2666
  929YOPE   D3B13645  13.613   4.214   6.920  0.4585  0.1715 -0.1840
  929YOPE   C4B13646  13.245   4.159   7.163  0.4027 -0.2032  0.0859
  930YOPE   NH313647  16.335  15.500   5.186 -0.1103 -0.2056  0.2741
  930YOPE   PO413648  15.919  15.809   5.248  0.0378  0.2176 -0.1652
  930YOPE   GL113649  15.858  16.029   5.714  0.0886  0.0069 -0.1932
  930YOPE   GL213650  16.125  16.309   5.764 -0.0269 -0.1139 -0.0707
  930YOPE   C1A13651  15.846  16.038   6.137  0.2899  0.1646  0.1457
  930YOPE   D2A13652  15.854  15.813   6.476  0.0888 -0.1586 -0.2498
  930YOPE   C3A13653  15.568  15.660   6.724  0.0107 -0.0822 -0.2132
  930YOPE   C4A13654  15.571  15.271   6.759 -0.1289 -0.0015  0.1295
  930YOPE   C1B13655  16.311  16.277   6.093  0.1854 -0.0981  0.1400
  930YOPE   C2B13656  16.445  16.479   6.510  0.1954 -0.3408  0.0449
  930YOPE   D3B13657  16.288  16.528   6.891 -0.3300 -0.0610 -0.2510
  930YOPE   C4B13658  16.115  16.737   7.302  0.3514  0.0948  0.0673
  931YOPE   NH313659   2.607  11.588   5.120 -0.1428 -0.1193  0.2834
  931YOPE   PO413660   2.759  11.110   5.167  0.1216 -0.1479 -0.2498
  931YOPE   GL113661   2.492  11.192   5.435  0.1402 -0.1447 -0.0253
  931YOPE   GL213662   2.473  11.477   5.623  0.1124 -0.1386 -0.0192
  931YOPE   C1A13663   2.342  11.053   5.859  0.1842  0.1292 -0.0338
  931YOPE   D2A13664   2.033  11.064   6.164 -0.1381  0.1036  0.4021
  931YOPE   C3A13665   2.177  10.994   6.647  0.0873  0.2051 -0.0802
  931YOPE   C4A13666   2.078  10.672   7.008  0.0398 -0.1796  0.3037
  931YOPE   C1B13667   2.595  11.359   6.173  0.1619  0.2271 -0.1153
  931YOPE   C2B13668   2.662  11.028   6.485  0.0966  0.2097  0.1198
  931YOPE   D3B13669   2.518  10.810   6.911 -0.3332  0.0338  0.1844
  931YOPE   C4B13670   2.583  10.376   6.993 -0.0498  0.0537 -0.2547
  932YOPE   NH313671  11.805   3.767   5.225  0.0285 -0.1736  0.0594
  932YOPE   PO413672  11.568   4.047   5.339  0.0151  0.3313 -0.0196
  932YOPE   GL113673  11.520   3.746   5.654  0.0423 -0.1739  0.1168
  932YOPE   GL213674  11.533   3.898   5.936  0.0382 -0.2407 -0.1021
  932YOPE   C1A13675  11.072   3.641   5.664 -0.2724  0.2568  0.1355
  932YOPE   D2A13676  10.604   3.554   5.562  0.0248 -0.0918  0.1453
  932YOPE   C3A13677  10.456   3.221   5.863 -0.1348  0.0088 -0.1453
  932YOPE   C4A13678  10.214   2.816   6.144  0.3101 -0.4197  0.0530
  932YOPE   C1B13679  11.442   4.221   6.237  0.0073  0.0678 -0.0723
  932YOPE   C2B13680  11.453   4.579   6.442  0.0477 -0.1190  0.1269
  932YOPE   D3B13681  11.629   4.767   6.731  0.0834  0.0695  0.0020
  932YOPE   C4B13682  12.057   5.016   6.946 -0.0512 -0.0645 -0.0040
  933YOPE   NH313683   2.409   7.980   4.557 -0.0141  0.4660 -0.1861
  933YOPE   PO413684   2.777   7.764   4.916 -0.3027  0.2203 -0.3097
  933YOPE   GL113685   2.623   7.611   5.314  0.0131 -0.1353 -0.2490
  933YOPE   GL213686   2.326   7.406   5.309 -0.0240 -0.3439  0.2018
  933YOPE   C1A13687   2.399   7.882   5.617  0.3100 -0.1541  0.0009
  933YOPE   D2A13688   2.508   7.740   6.110 -0.1891 -0.1729 -0.0606
  933YOPE   C3A13689   2.940   7.480   6.313  0.1106 -0.5304  0.2192
  933YOPE   C4A13690   3.198   7.313   6.692  0.0472  0.3290  0.0271
  933YOPE   C1B13691   2.316   7.331   5.763  0.1072  0.0682 -0.0634
  933YOPE   C2B13692   2.427   7.248   6.141  0.0282 -0.3803  0.2995
  933YOPE   D3B13693   2.476   7.325   6.586 -0.1869  0.3305  0.0891
  933YOPE   C4B13694   2.216   7.411   6.970  0.1982 -0.0265 -0.0755
  934YOPE   NH313695  18.198   3.611   5.407  0.0016  0.0276 -0.0404
  934YOPE   PO413696  17.731   3.381   5.623 -0.0550  0.1988 -0.1912
  934YOPE   GL113697  17.578   3.648   5.967 -0.0919  0.0405 -0.0543
  934YOPE   GL213698  17.717   3.546   6.267  0.0995  0.1985 -0.0787
  934YOPE   C1A13699  17.179   3.651   6.266 -0.1871 -0.2358 -0.0690
  934YOPE   D2A13700  17.065   3.512   6.655 -0.1131 -0.2624 -0.1623
  934YOPE   C3A13701  16.840   3.242   7.082  0.1088 -0.0459 -0.2103
  934YOPE   C4A13702  17.016   2.962   7.380 -0.0663 -0.0649 -0.2249
  934YOPE   C1B13703  17.679   3.664   6.721 -0.1476  0.0348  0.2940
  934YOPE   C2B13704  17.939   3.950   7.005  0.1197 -0.1117 -0.0828
  934YOPE   D3B13705  17.748   3.939   7.354  0.1934 -0.0538 -0.2218
  934YOPE   C4B13706  17.759   3.640   7.593 -0.0803 -0.2260  0.1013
  935YOPE   NH313707  10.655  14.402   5.404 -0.0859  0.1839 -0.1021
  935YOPE   PO413708  10.934  14.382   5.776  0.0096  0.1770  0.0083
  935YOPE   GL113709  10.934  14.143   6.163 -0.1266  0.0589 -0.0760
  935YOPE   GL213710  10.700  13.910   6.204 -0.0631 -0.0923 -0.1201
  935YOPE   C1A13711  10.949  14.017   6.619 -0.0834  0.2914  0.1631
  935YOPE   D2A13712  10.903  13.987   7.047  0.0263 -0.0079 -0.1781
  935YOPE   C3A13713  11.168  13.793   7.245 -0.0031 -0.0924  0.1400
  935YOPE   C4A13714  11.545  13.825   7.587 -0.2004  0.0650 -0.2547
  935YOPE   C1B13715  10.466  13.807   6.534 -0.0285  0.0136  0.2747
  935YOPE   C2B13716  10.409  13.851   7.023  0.1861 -0.2021  0.2057
  935YOPE   D3B13717  10.357  13.929   7.397 -0.0060  0.1605  0.1122
  935YOPE   C4B13718  10.094  14.097   7.830 -0.2568  0.0256  0.1476
  936YOPE   NH313719  16.666  14.848   5.471  0.3784  0.1909 -0.3447
  936YOPE   PO413720  16.744  15.230   5.414 -0.2383  0.0587  0.1525
  936YOPE   GL113721  16.784  15.549   5.742  0.1072  0.3161 -0.1054
  936YOPE   GL213722  17.206  15.534   5.839  0.1707 -0.1649  0.2895
  936YOPE   C1A13723  16.827  15.479   6.183 -0.4120  0.0720  0.0685
  936YOPE   D2A13724  16.657  15.638   6.580 -0.1145 -0.1911 -0.0385
  936YOPE   C3A13725  16.858  15.624   6.971  0.0917  0.3301  0.3992
  936YOPE   C4A13726  16.789  15.622   7.459 -0.0899  0.1465  0.1313
  936YOPE   C1B13727  17.278  15.804   6.258  0.1076 -0.0416  0.1907
  936YOPE   C2B13728  17.108  15.942   6.671 -0.2904  0.0146 -0.0049
  936YOPE   D3B13729  17.055  16.069   7.131 -0.1187 -0.1211  0.2551
  936YOPE   C4B13730  17.144  16.199   7.512  0.0993  0.2969  0.1825
  937YOPE   NH313731  14.960   3.889   5.402 -0.2729 -0.0397  0.1120
  937YOPE   PO413732  15.311   3.738   5.544  0.3635  0.0255 -0.0322
  937YOPE   GL113733  15.040   3.576   5.804 -0.0487  0.0190 -0.2518
  937YOPE   GL213734  14.708   3.678   5.796 -0.0303  0.1980  0.4511
  937YOPE   C1A13735  15.010   3.506   6.203  0.0227 -0.0045 -0.0620
  937YOPE   D2A13736  14.856   3.472   6.630  0.1340 -0.3497 -0.0271
  937YOPE   C3A13737  14.860   3.244   6.884  0.1830  0.1543  0.0062
  937YOPE   C4A13738  15.168   3.247   7.191 -0.0644  0.2831 -0.0028
  937YOPE   C1B13739  14.529   3.730   6.172 -0.1019 -0.4350 -0.1821
  937YOPE   C2B13740  14.437   3.769   6.724  0.0550  0.3579  0.1912
  937YOPE   D3B13741  14.686   3.649   7.118  0.1379 -0.2065  0.0111
  937YOPE   C4B13742  14.787   3.418   7.496  0.4603 -0.3440  0.1219
  938YOPE   NH313743   0.363   8.133   5.400 -0.0292  0.2281  0.1398
  938YOPE   PO413744   0.779   8.063   5.383 -0.2123  0.0807 -0.1558
  938YOPE   GL113745   0.684   7.753   5.749 -0.1473  0.4056 -0.6140
  938YOPE   GL213746   0.494   7.435   5.723  0.0111  0.3330  0.1213
  938YOPE   C1A13747   0.869   7.465   6.114 -0.1438  0.4298 -0.0964
  938YOPE   D2A13748   0.902   7.387   6.460 -0.0142  0.0184  0.1455
  938YOPE   C3A13749   1.100   7.100   6.785  0.2564  0.1460 -0.0041
  938YOPE   C4A13750   1.235   6.952   7.302  0.1566 -0.0608  0.2512
  938YOPE   C1B13751   0.180   7.118   6.015  0.2939  0.2223 -0.1697
  938YOPE   C2B13752   0.157   6.857   6.486 -0.0031 -0.2001  0.2445
  938YOPE   D3B13753   0.280   6.858   6.955  0.0773 -0.0016  0.0550
  938YOPE   C4B13754   0.359   6.590   7.380  0.3527 -0.0561 -0.0852
  939YOPE   NH313755  15.161   2.056   5.472  0.1274 -0.1160 -0.2229
  939YOPE   PO413756  15.394   1.674   5.412 -0.2162 -0.2115 -0.3478
  939YOPE   GL113757  15.284   1.619   5.754 -0.1193  0.0465 -0.3066
  939YOPE   GL213758  14.908   1.624   5.668 -0.0179  0.2433  0.3122
  939YOPE   C1A13759  15.227   1.401   6.118 -0.1089  0.0552 -0.0866
  939YOPE   D2A13760  15.379   1.275   6.399  0.2363 -0.1715 -0.4101
  939YOPE   C3A13761  15.438   1.584   6.702 -0.1520  0.2248 -0.1659
  939YOPE   C4A13762  15.219   1.859   6.898  0.0677  0.2769 -0.0972
  939YOPE   C1B13763  14.732   1.283   5.948  0.3564  0.0588 -0.0247
  939YOPE   C2B13764  14.777   0.993   6.304 -0.1805 -0.0611 -0.0535
  939YOPE   D3B13765  15.035   0.944   6.615 -0.1188  0.1127  0.1741
  939YOPE   C4B13766  15.137   1.306   6.985  0.0742 -0.0395 -0.1123
  940YOPE   NH313767  19.111  13.071   5.270 -0.1732 -0.1352 -0.0147
  940YOPE   PO413768  19.245  12.677   5.072 -0.2001 -0.1360 -0.1257
  940YOPE   GL113769  19.218  12.570   5.513  0.0848 -0.1915 -0.1906
  940YOPE   GL213770  19.446  12.795   5.714  0.1713 -0.0865 -0.1146
  940YOPE   C1A13771  19.118  12.268   5.858 -0.0288  0.0872  0.0008
  940YOPE   D2A13772  19.327  11.892   6.107 -0.2529  0.2293 -0.0838
  940YOPE   C3A13773  19.072  11.589   6.429 -0.0421  0.0662  0.1239
  940YOPE   C4A13774  18.708  11.413   6.442 -0.1847  0.1069 -0.0613
  940YOPE   C1B13775  19.388  12.563   6.109  0.0136 -0.0311  0.2768
  940YOPE   C2B13776  19.024  12.513   6.352  0.0558  0.1401 -0.1338
  940YOPE   D3B13777  18.942  12.446   6.721 -0.1017  0.0645 -0.1487
  940YOPE   C4B13778  18.890  12.284   7.080 -0.0927  0.3475  0.0740
  941POPC   NC313779   0.033   9.649   5.149  0.0985  0.3915  0.0903
  941POPC   PO413780   0.013  10.057   5.068 -0.2943  0.1995 -0.0885
  941POPC   GL113781  -0.160   9.963   5.463  0.2201  0.1027  0.2361
  941POPC   GL213782  -0.292  10.292   5.677  0.0537  0.3698  0.0612
  941POPC   C1A13783  -0.165   9.871   5.914 -0.3400  0.2549  0.1301
  941POPC   D2A13784  -0.237   9.726   6.293  0.1017  0.2642 -0.2065
  941POPC   C3A13785  -0.615   9.444   6.301 -0.0018  0.1801 -0.0287
  941POPC   C4A13786  -0.878   9.381   6.039  0.0379  0.1322 -0.4520
  941POPC   C1B13787  -0.400  10.208   6.235 -0.2172 -0.0257  0.0525
  941POPC   C2B13788  -0.568  10.234   6.586  0.1900  0.2532 -0.2149
  941POPC   C3B13789  -0.542   9.983   6.945 -0.0141 -0.2487  0.0509
  941POPC   C4B13790  -0.273   9.756   7.283 -0.0238 -0.3435 -0.0020
  942POPC   NC313791   7.390  15.267   4.858  0.2049  0.1191 -0.0050
  942POPC   PO413792   6.889  15.189   4.853 -0.0102 -0.0435  0.3189
  942POPC   GL113793   6.769  15.230   5.227 -0.2378 -0.0067 -0.2841
  942POPC   GL213794   6.546  14.914   5.247 -0.0882 -0.0921  0.4073
  942POPC   C1A13795   6.662  15.189   5.640 -0.0557  0.0223 -0.0279
  942POPC   D2A13796   6.554  15.047   6.120 -0.1269  0.0169 -0.0180
  942POPC   C3A13797   6.730  14.931   6.431 -0.1211  0.0332 -0.0377
  942POPC   C4A13798   6.755  14.598   6.728 -0.2162 -0.1488 -0.1369
  942POPC   C1B13799   6.252  14.839   5.588 -0.0901  0.0453 -0.0461
  942POPC   C2B13800   6.328  14.577   5.938  0.0999  0.1768 -0.0789
  942POPC   C3B13801   6.094  14.258   6.184 -0.0748  0.0224 -0.0549
  942POPC   C4B13802   5.830  14.192   6.539 -0.0698  0.5188  0.0149
  943POPC   NC313803   6.832   8.035   4.948 -0.2300  0.2184 -0.2919
  943POPC   PO413804   6.773   7.879   5.332  0.2540 -0.0345 -0.1187
  943POPC   GL113805   6.446   7.929   5.711 -0.0900  0.2420  0.0959
  943POPC   GL213806   6.373   8.268   5.753 -0.3821  0.2155  0.0787
  943POPC   C1A13807   6.169   7.839   6.043  0.2114  0.0876 -0.1487
  943POPC   D2A13808   6.091   8.008   6.490  0.2540  0.1654 -0.0033
  943POPC   C3A13809   5.770   7.799   6.721 -0.2454  0.4350 -0.0656
  943POPC   C4A13810   5.665   7.422   6.710 -0.2782  0.1947 -0.1245
  943POPC   C1B13811   6.165   8.373   6.035  0.0611  0.2758 -0.0919
  943POPC   C2B13812   6.162   8.515   6.430 -0.0915 -0.0051  0.0300
  943POPC   C3B13813   5.941   8.382   6.831 -0.0596  0.0232  0.3614
  943POPC   C4B13814   5.660   8.228   7.150 -0.0743  0.0376 -0.4000
  944POPC   NC313815   7.492   9.104   4.939  0.0085  0.1903  0.0893
  944POPC   PO413816   7.654   8.948   5.394  0.0403 -0.0074  0.0703
  944POPC   GL113817   7.582   8.886   5.789 -0.3008  0.2645 -0.5097
  944POPC   GL213818   7.886   8.795   5.910 -0.2176 -0.2326  0.0788
  944POPC   C1A13819   7.534   9.187   6.198  0.0228  0.2572  0.2177
  944POPC   D2A13820   7.467   9.207   6.688  0.0623  0.0322 -0.2385
  944POPC   C3A13821   7.332   8.778   6.723  0.1007 -0.3505  0.2475
  944POPC   C4A13822   6.954   8.560   6.942  0.4225  0.1771 -0.0031
  944POPC   C1B13823   8.141   8.863   6.163 -0.0836  0.0811  0.1985
  944POPC   C2B13824   8.252   8.997   6.569  0.2130 -0.2523  0.0020
  944POPC   C3B13825   8.048   8.895   6.928 -0.3892 -0.1493 -0.2141
  944POPC   C4B13826   8.128   8.590   7.226 -0.1860  0.0424  0.0012
  945POPC   NC313827   9.224  13.051   5.585 -0.4389  0.2520 -0.2751
  945POPC   PO413828   8.955  13.407   5.493 -0.3190 -0.1503  0.1709
  945POPC   GL113829   8.496  13.460   5.680 -0.1050 -0.1912 -0.3255
  945POPC   GL213830   8.260  13.216   5.683  0.2812  0.2051 -0.3028
  945POPC   C1A13831   8.319  13.712   6.031 -0.2200  0.1038  0.3527
  945POPC   D2A13832   8.102  13.722   6.324  0.1368  0.0318  0.0699
  945POPC   C3A13833   8.357  14.017   6.636  0.0816  0.1358  0.3069
  945POPC   C4A13834   8.038  14.269   6.958 -0.0098  0.0793 -0.2009
  945POPC   C1B13835   8.099  13.280   6.134 -0.1253  0.1184  0.2559
  945POPC   C2B13836   7.930  13.279   6.486  0.2618 -0.1492  0.3449
  945POPC   C3B13837   7.896  13.006   6.729  0.1241 -0.2208 -0.1372
  945POPC   C4B13838   7.594  13.081   7.033  0.0246  0.1806 -0.1393
  946POPC   NC313839  11.782  17.872   5.514 -0.3957 -0.2827  0.0821
  946POPC   PO413840  11.714  18.331   5.492 -0.0152  0.0661  0.2883
  946POPC   GL113841  11.556  18.797   5.623 -0.4935  0.0408  0.0678
  946POPC   GL213842  11.870  18.836   5.684  0.4180  0.1367 -0.0755
  946POPC   C1A13843  11.390  19.024   5.972 -0.1445 -0.0628 -0.1784
  946POPC   D2A13844  11.612  19.010   6.282  0.0777  0.1626  0.1899
  946POPC   C3A13845  11.335  18.942   6.597 -0.0225  0.0797  0.0960
  946POPC   C4A13846  11.274  18.734   6.878 -0.3580 -0.0228 -0.1949
  946POPC   C1B13847  12.010  18.846   6.077 -0.1158  0.0781 -0.1984
  946POPC   C2B13848  12.111  18.928   6.412  0.1569  0.0204  0.1661
  946POPC   C3B13849  12.446  19.055   6.632  0.0785 -0.1483  0.1015
  946POPC   C4B13850  12.554  19.388   6.992 -0.2227  0.1568  0.0733
  947POPC   NC313851  15.636  17.959   4.983 -0.1322 -0.2674 -0.1815
  947POPC   PO413852  15.590  17.813   5.387 -0.3358  0.0785 -0.1306
  947POPC   GL113853  15.737  17.974   5.720 -0.3414 -0.0550  0.0123
  947POPC   GL213854  15.747  17.774   5.961 -0.1005 -0.1888 -0.1008
  947POPC   C1A13855  16.049  18.156   6.072 -0.0740 -0.1896 -0.1591
  947POPC   D2A13856  16.215  18.334   6.498 -0.1609 -0.1715  0.1427
  947POPC   C3A13857  16.048  18.387   7.003  0.1571 -0.1144  0.0166
  947POPC   C4A13858  15.671  18.354   7.045 -0.0869 -0.3118  0.1658
  947POPC   C1B13859  15.904  17.689   6.281 -0.1869 -0.2020 -0.2838
  947POPC   C2B13860  16.091  17.583   6.726 -0.0376  0.0396  0.2469
  947POPC   C3B13861  16.021  17.773   7.052  0.0047 -0.2809  0.1947
  947POPC   C4B13862  15.852  17.944   7.446 -0.1088 -0.0129 -0.0017
  948POPC   NC313863  15.323  18.937   5.067  0.0506  0.2006  0.0494
  948POPC   PO413864  15.135  18.585   5.250  0.0217  0.0769  0.2677
  948POPC   GL113865  15.371  18.788   5.554 -0.0079  0.0981 -0.1089
  948POPC   GL213866  15.328  19.130   5.535  0.2652  0.0700  0.1497
  948POPC   C1A13867  15.460  18.867   5.958 -0.1285 -0.0146 -0.0886
  948POPC   D2A13868  15.327  18.911   6.412  0.0529  0.1130  0.1815
  948POPC   C3A13869  15.242  18.877   6.898 -0.1451  0.1469  0.0638
  948POPC   C4A13870  14.992  18.925   7.288  0.1271 -0.1002  0.1972
  948POPC   C1B13871  15.067  19.225   5.904  0.0069 -0.0851 -0.0466
  948POPC   C2B13872  14.946  18.974   6.120  0.0066  0.1246  0.1729
  948POPC   C3B13873  14.769  18.995   6.565  0.2191 -0.1026 -0.0827
  948POPC   C4B13874  14.564  19.257   6.897  0.1804 -0.0058 -0.0279
  949POPC   NC313875   4.331   1.613   5.631 -0.0433 -0.0525  0.3098
  949POPC   PO413876   4.010   1.446   5.826  0.1489 -0.1103 -0.2138
  949POPC   GL113877   3.957   1.190   6.241  0.1230  0.1581 -0.0394
  949POPC   GL213878   3.788   0.939   6.328  0.0746 -0.2244 -0.0298
  949POPC   C1A13879   4.029   1.284   6.608 -0.0756 -0.0172 -0.0832
  949POPC   D2A13880   3.873   1.503   6.957  0.0570 -0.1825 -0.0047
  949POPC   C3A13881   3.712   1.595   7.303 -0.0248 -0.0129  0.0024
  949POPC   C4A13882   3.398   1.698   7.622  0.0232  0.0640  0.3164
  949POPC   C1B13883   3.617   0.998   6.769  0.1513  0.1191  0.2469
  949POPC   C2B13884   3.511   0.845   7.154 -0.0659 -0.1878 -0.0900
  949POPC   C3B13885   3.554   0.660   7.424 -0.0757 -0.1985  0.2016
  949POPC   C4B13886   3.787   0.725   7.779 -0.3216 -0.0671 -0.0481
  950POPC   NC313887  14.713   9.417   5.091  0.1117  0.1861 -0.1737
  950POPC   PO413888  15.089   9.558   5.294  0.0303  0.1077 -0.0959
  950POPC   GL113889  15.343   9.440   5.552  0.0884 -0.1419 -0.0028
  950POPC   GL213890  15.607   9.465   5.481  0.0407  0.3239  0.2071
  950POPC   C1A13891  15.312   9.336   6.004  0.0695  0.0758 -0.0936
  950POPC   D2A13892  15.461   9.395   6.436 -0.1669  0.0698 -0.1498
  950POPC   C3A13893  15.604   9.688   6.796 -0.0283  0.1497 -0.1581
  950POPC   C4A13894  15.955   9.978   6.874  0.2013 -0.2584  0.2379
  950POPC   C1B13895  15.819   9.411   5.837 -0.0541 -0.0041 -0.2183
  950POPC   C2B13896  15.902   9.521   6.180  0.0264  0.2424  0.0305
  950POPC   C3B13897  16.096   9.683   6.510  0.0880  0.0422  0.3011
  950POPC   C4B13898  16.432   9.824   6.758  0.1466 -0.1304  0.2358
  951POPC   NC313899  17.372  13.188   5.158 -0.0548 -0.2273 -0.1626
  951POPC   PO413900  17.785  13.080   5.177  0.1149 -0.0600  0.4028
  951POPC   GL113901  17.581  13.155   5.632  0.2246 -0.0915  0.3197
  951POPC   GL213902  17.362  13.342   5.834  0.1833  0.4044  0.0858
  951POPC   C1A13903  17.716  13.123   6.107 -0.0805  0.3021  0.4508
  951POPC   D2A13904  17.657  13.190   6.548  0.0037 -0.1377 -0.2100
  951POPC   C3A13905  17.275  13.478   6.842 -0.1671  0.0304  0.3491
  951POPC   C4A13906  16.969  13.555   7.075 -0.0590 -0.0111 -0.0815
  951POPC   C1B13907  17.187  13.446   6.157  0.2316  0.3254  0.0574
  951POPC   C2B13908  16.872  13.438   6.517  0.2340  0.1069  0.0919
  951POPC   C3B13909  16.589  13.546   6.785 -0.3752 -0.1795  0.3454
  951POPC   C4B13910  16.484  13.778   7.147  0.1380  0.0302  0.1714
  952POPC   NC313911   9.439  16.174   5.523 -0.0042 -0.2068 -0.1364
  952POPC   PO413912   9.935  15.883   5.484 -0.1249 -0.0969 -0.2372
  952POPC   GL113913   9.767  15.971   5.867 -0.0912  0.1960  0.1986
  952POPC   GL213914   9.662  15.787   5.966  0.4066  0.2023 -0.1859
  952POPC   C1A13915   9.814  16.203   6.252 -0.1529  0.0735  0.2063
  952POPC   D2A13916   9.623  16.450   6.586  0.1923  0.1125 -0.0483
  952POPC   C3A13917   9.472  16.458   6.948 -0.4393  0.0153  0.1295
  952POPC   C4A13918   9.057  16.532   7.189 -0.0428  0.6906 -0.1368
  952POPC   C1B13919   9.449  15.832   6.294 -0.2304  0.0631 -0.0558
  952POPC   C2B13920   9.417  15.984   6.673 -0.0786  0.2791 -0.2297
  952POPC   C3B13921   9.332  16.009   7.141 -0.1985 -0.2047  0.0477
  952POPC   C4B13922   9.521  15.823   7.582 -0.0733  0.1724  0.1099
  953POPC   NC313923   5.369   7.500   5.350  0.0000 -0.1002 -0.1480
  953POPC   PO413924   5.025   7.285   5.302 -0.0625 -0.1799 -0.3484
  953POPC   GL113925   5.073   7.326   5.722 -0.0075  0.1357  0.2682
  953POPC   GL213926   4.803   7.243   5.799 -0.3867  0.1771 -0.0304
  953POPC   C1A13927   5.132   7.512   6.022  0.1695  0.2293 -0.0110
  953POPC   D2A13928   5.411   7.614   6.349  0.0722  0.0241 -0.0418
  953POPC   C3A13929   5.209   7.613   6.759 -0.2039 -0.0131  0.2550
  953POPC   C4A13930   4.920   7.742   7.104 -0.0503  0.1857 -0.0903
  953POPC   C1B13931   4.522   7.499   5.989  0.2433 -0.1538 -0.0343
  953POPC   C2B13932   4.581   7.986   6.085 -0.0557  0.1627  0.1843
  953POPC   C3B13933   4.687   8.417   6.265  0.4737  0.0359 -0.1933
  953POPC   C4B13934   4.724   8.293   6.712  0.1917 -0.0458 -0.0442
  954POPC   NC313935  18.005   1.733   5.197  0.0359 -0.3471 -0.0536
  954POPC   PO413936  17.977   1.234   5.108 -0.0914 -0.0019  0.0514
  954POPC   GL113937  17.991   1.136   5.483  0.1426  0.1038 -0.1044
  954POPC   GL213938  17.997   0.842   5.658  0.1188 -0.2384 -0.1101
  954POPC   C1A13939  17.937   1.238   5.924  0.2212 -0.0051 -0.0931
  954POPC   D2A13940  18.083   1.203   6.325 -0.0173 -0.3924 -0.0688
  954POPC   C3A13941  17.918   0.869   6.650 -0.0270 -0.0132  0.1215
  954POPC   C4A13942  17.909   0.553   7.025  0.3466 -0.0975  0.0513
  954POPC   C1B13943  17.771   0.812   6.066 -0.2473  0.1354  0.0109
  954POPC   C2B13944  17.579   0.648   6.312 -0.3363 -0.1876 -0.1588
  954POPC   C3B13945  17.401   0.773   6.668  0.1315 -0.2419  0.0073
  954POPC   C4B13946  17.180   0.761   7.093  0.0958  0.0722 -0.3439
  955POPC   NC313947  12.676  18.288   5.482  0.4546 -0.1491  0.0602
  955POPC   PO413948  12.701  18.733   5.338  0.0461 -0.2402  0.0781
  955POPC   GL113949  12.450  18.889   5.746  0.0510 -0.2552 -0.2800
  955POPC   GL213950  12.504  18.601   5.822  0.2270 -0.3441 -0.0528
  955POPC   C1A13951  12.491  19.109   6.094  0.1890 -0.2159 -0.0383
  955POPC   D2A13952  12.370  19.444   6.285  0.0873  0.0305  0.1111
  955POPC   C3A13953  12.676  19.711   6.614  0.0247  0.0252  0.1481
  955POPC   C4A13954  12.801  19.965   6.888  0.0803 -0.1894 -0.1292
  955POPC   C1B13955  12.758  18.696   6.249 -0.1128  0.1842 -0.0146
  955POPC   C2B13956  12.819  18.771   6.737 -0.2581  0.0346  0.0587
  955POPC   C3B13957  13.057  18.925   7.187  0.0177 -0.0343  0.1173
  955POPC   C4B13958  13.091  18.669   7.579 -0.3247  0.0761  0.1089
  956POPC   NC313959   9.240  17.558   5.134 -0.2968 -0.0547 -0.0700
  956POPC   PO413960   9.063  17.929   5.434 -0.1472  0.0618  0.2146
  956POPC   GL113961   9.262  17.922   5.798 -0.2430  0.1754  0.0670
  956POPC   GL213962   9.561  17.804   5.819 -0.2096  0.0489 -0.0707
  956POPC   C1A13963   9.255  17.945   6.257 -0.0867 -0.3223  0.1092
  956POPC   D2A13964   9.250  17.941   6.617 -0.1073 -0.1096 -0.2475
  956POPC   C3A13965   9.423  17.732   6.935 -0.1714 -0.2602 -0.1838
  956POPC   C4A13966   9.404  17.589   7.387  0.3444 -0.0265 -0.2440
  956POPC   C1B13967   9.666  17.683   6.251 -0.0825  0.0150 -0.0049
  956POPC   C2B13968   9.835  17.546   6.665  0.0196 -0.0492  0.0825
  956POPC   C3B13969   9.962  17.503   7.049 -0.1273  0.0577 -0.1196
  956POPC   C4B13970  10.305  17.341   7.319 -0.0900 -0.0814  0.0014
  957POPC   NC313971  11.931   3.214   4.682  0.1691 -0.1592  0.2380
  957POPC   PO413972  12.217   3.437   4.998 -0.1452  0.1525 -0.0106
  957POPC   GL113973  12.053   3.377   5.438  0.1887 -0.0606  0.2070
  957POPC   GL213974  12.148   3.053   5.504 -0.2322  0.2562 -0.1121
  957POPC   C1A13975  11.791   3.401   5.874 -0.3641  0.1466  0.1835
  957POPC   D2A13976  11.545   3.343   6.162  0.2272  0.2215 -0.1979
  957POPC   C3A13977  11.766   3.150   6.541  0.0043 -0.1445  0.3221
  957POPC   C4A13978  12.330   3.119   6.569  0.1779  0.4141  0.0053
  957POPC   C1B13979  12.074   2.921   5.943  0.1675  0.1173 -0.0362
  957POPC   C2B13980  11.764   2.815   6.161 -0.1577  0.1041 -0.1773
  957POPC   C3B13981  11.426   2.796   6.414 -0.1193 -0.2880  0.2371
  957POPC   C4B13982  11.249   2.516   6.702 -0.2729  0.1034 -0.1977
  958POPC   NC313983  15.566  11.569   5.631  0.0094 -0.2345  0.2911
  958POPC   PO413984  15.336  11.249   5.810  0.1294  0.1367 -0.2290
  958POPC   GL113985  15.562  11.523   6.192 -0.1533  0.1787  0.1385
  958POPC   GL213986  15.951  11.360   6.120  0.1443 -0.2739 -0.2613
  958POPC   C1A13987  15.710  11.846   6.300  0.0937 -0.2491  0.1554
  958POPC   D2A13988  15.364  12.169   6.315 -0.0903  0.2248  0.0178
  958POPC   C3A13989  15.185  12.239   6.671  0.2171 -0.2186  0.1864
  958POPC   C4A13990  15.254  12.385   7.081 -0.2449 -0.5578 -0.3691
  958POPC   C1B13991  15.756  11.192   6.434 -0.0884  0.0849  0.1373
  958POPC   C2B13992  15.598  11.049   6.891  0.0739  0.0025 -0.0414
  958POPC   C3B13993  15.419  10.924   7.291 -0.0644 -0.1480  0.0785
  958POPC   C4B13994  15.398  10.808   7.719 -0.0323  0.0128 -0.3552
  959POPC   NC313995   8.975   6.204   5.248 -0.0845 -0.1725 -0.1174
  959POPC   PO413996   9.162   6.615   5.342 -0.1263 -0.1200 -0.2449
  959POPC   GL113997   9.284   6.430   5.704  0.1506  0.1042 -0.0578
  959POPC   GL213998   8.989   6.297   5.969 -0.0628 -0.0091 -0.0508
  959POPC   C1A13999   9.385   6.682   6.060  0.0336  0.3167  0.0242
  959POPC   D2A14000   9.505   6.652   6.487  0.0745  0.3772  0.2579
  959POPC   C3A14001   9.467   6.956   6.907  0.2113  0.0797 -0.0531
  959POPC   C4A14002   9.214   7.158   7.137  0.0509 -0.3231 -0.3146
  959POPC   C1B14003   9.192   6.277   6.273 -0.0998 -0.0093 -0.2634
  959POPC   C2B14004   9.473   6.029   6.398  0.0008 -0.0963  0.1561
  959POPC   C3B14005   9.423   5.793   6.826 -0.2309  0.6210 -0.1158
  959POPC   C4B14006   9.557   5.797   7.230 -0.0953  0.0183 -0.3144
  960POPC   NC314007  14.513   9.879   5.018  0.2316 -0.2633  0.0760
  960POPC   PO414008  14.694   9.891   5.391 -0.0114  0.2748  0.1459
  960POPC   GL114009  14.857   9.572   5.795  0.1671 -0.0324 -0.0215
  960POPC   GL214010  14.701   9.302   5.989  0.0900  0.1324  0.2699
  960POPC   C1A14011  14.957   9.675   6.215 -0.3680 -0.2484 -0.1526
  960POPC   D2A14012  15.098   9.747   6.602 -0.0883 -0.2576  0.0703
  960POPC   C3A14013  15.235   9.349   6.836 -0.4249 -0.2038  0.0866
  960POPC   C4A14014  15.506   9.118   6.995 -0.2740 -0.2248  0.0053
  960POPC   C1B14015  14.966   9.120   6.323  0.0410  0.1451  0.4349
  960POPC   C2B14016  15.290   8.931   6.538  0.0115  0.0307  0.0681
  960POPC   C3B14017  15.566   8.474   6.376  0.1984 -0.0308 -0.1854
  960POPC   C4B14018  15.773   8.158   6.387 -0.4477 -0.3161 -0.0301
  961POPC   NC314019  13.033  11.627   5.437 -0.1949  0.2427 -0.1480
  961POPC   PO414020  12.954  11.249   5.706  0.0036  0.1863  0.3585
  961POPC   GL114021  12.866  11.334   6.159  0.2278 -0.0213  0.1733
  961POPC   GL214022  13.229  11.324   6.283 -0.2241 -0.1144 -0.1867
  961POPC   C1A14023  12.884  11.061   6.474 -0.0519  0.2058  0.0487
  961POPC   D2A14024  12.950  10.873   6.928  0.1536 -0.0034  0.3012
  961POPC   C3A14025  12.914  10.958   7.266  0.0871  0.0993 -0.1924
  961POPC   C4A14026  13.046  11.126   7.664 -0.0169 -0.0244 -0.0451
  961POPC   C1B14027  13.176  11.421   6.675 -0.0403 -0.1949  0.1384
  961POPC   C2B14028  13.304  11.217   7.028 -0.1961  0.4265  0.3748
  961POPC   C3B14029  13.466  11.196   7.394 -0.0859  0.1908  0.0087
  961POPC   C4B14030  13.801  11.211   7.695 -0.0078 -0.3298  0.2945
  962POPC   NC314031   1.692  14.052   5.370  0.3599 -0.0596  0.2274
  962POPC   PO414032   2.014  14.124   5.544  0.2251  0.1223 -0.0610
  962POPC   GL114033   2.157  13.953   5.962 -0.1655  0.0153 -0.2451
  962POPC   GL214034   2.417  13.729   6.049  0.1005  0.0644 -0.0208
  962POPC   C1A14035   2.291  14.215   6.325 -0.0455  0.1216  0.0649
  962POPC   D2A14036   2.045  14.591   6.558 -0.1912  0.2326 -0.2190
  962POPC   C3A14037   1.733  14.436   6.786 -0.2859  0.3644 -0.1365
  962POPC   C4A14038   1.567  14.501   7.197 -0.1265  0.0836  0.3887
  962POPC   C1B14039   2.305  13.630   6.417 -0.0046 -0.2492 -0.0476
  962POPC   C2B14040   2.333  13.429   6.788  0.2631 -0.1294  0.2511
  962POPC   C3B14041   2.550  13.529   7.148  0.0171  0.2415 -0.3696
  962POPC   C4B14042   2.943  13.620   7.262 -0.1788 -0.0214 -0.3757
  963POPC   NC314043   4.198   4.975   5.106 -0.1597  0.0648  0.2494
  963POPC   PO414044   4.261   5.083   5.412 -0.0722 -0.0073  0.0869
  963POPC   GL114045   4.568   5.025   5.736 -0.1225 -0.2240  0.1987
  963POPC   GL214046   4.810   5.157   5.906  0.1974 -0.1760  0.1314
  963POPC   C1A14047   4.445   4.949   6.155 -0.1162  0.1352 -0.0290
  963POPC   D2A14048   4.670   5.180   6.435 -0.1282  0.1542  0.4395
  963POPC   C3A14049   4.540   5.179   6.730  0.1726 -0.1799  0.0521
  963POPC   C4A14050   4.604   5.243   7.052  0.2088  0.1058 -0.3360
  963POPC   C1B14051   5.083   4.935   6.131  0.0314 -0.2727  0.3530
  963POPC   C2B14052   5.069   4.913   6.645  0.0134  0.3487 -0.2025
  963POPC   C3B14053   4.982   4.967   7.030  0.0989 -0.1131 -0.3583
  963POPC   C4B14054   5.014   5.162   7.450  0.0778 -0.2175  0.3032
  964POPC   NC314055   2.479   3.728   5.411 -0.1341  0.1492 -0.2637
  964POPC   PO414056   2.171   3.732   5.701  0.3368 -0.3026 -0.2117
  964POPC   GL114057   2.252   3.856   6.136  0.0440  0.1155  0.1690
  964POPC   GL214058   2.517   3.664   6.175 -0.2202 -0.1666  0.2276
  964POPC   C1A14059   2.248   4.015   6.601 -0.1036 -0.0397  0.2654
  964POPC   D2A14060   2.254   4.034   6.973 -0.1869  0.1386 -0.2488
  964POPC   C3A14061   2.139   3.762   7.257  0.2232  0.0539 -0.0753
  964POPC   C4A14062   1.743   3.685   7.553  0.1915 -0.2122 -0.0327
  964POPC   C1B14063   2.682   3.786   6.661 -0.0209  0.0773  0.3327
  964POPC   C2B14064   2.734   3.875   7.106 -0.1642  0.1702  0.1102
  964POPC   C3B14065   2.859   3.866   7.519  0.1477  0.1604  0.1494
  964POPC   C4B14066   2.839   3.825   7.944 -0.2819  0.1709 -0.1289
  965POPC   NC314067  17.335  16.679   5.180 -0.0614 -0.0997  0.2771
  965POPC   PO414068  17.324  16.472   5.430  0.0510 -0.0980  0.0022
  965POPC   GL114069  17.446  16.424   5.815 -0.1308 -0.2692 -0.1455
  965POPC   GL214070  17.256  16.365   6.067  0.3194  0.1178  0.3848
  965POPC   C1A14071  17.678  16.128   6.123  0.0920  0.1195  0.0559
  965POPC   D2A14072  17.619  16.109   6.597 -0.1095  0.0051 -0.0672
  965POPC   C3A14073  17.471  16.315   6.907 -0.1327 -0.0712 -0.1083
  965POPC   C4A14074  17.605  16.538   7.269 -0.0665 -0.0034 -0.2929
  965POPC   C1B14075  17.246  16.483   6.438  0.2334 -0.0390 -0.1652
  965POPC   C2B14076  16.986  16.427   6.795  0.2188  0.1728  0.1198
  965POPC   C3B14077  16.659  16.095   6.860  0.4318 -0.2174  0.2418
  965POPC   C4B14078  16.256  16.032   6.668  0.3130  0.1245  0.2542
  966POPC   NC314079   6.719   9.791   5.727  0.0710  0.2143 -0.1273
  966POPC   PO414080   7.118   9.779   5.630 -0.1060  0.3321 -0.2872
  966POPC   GL114081   6.996   9.956   6.160 -0.1921 -0.1654  0.1566
  966POPC   GL214082   6.762   9.686   6.316 -0.4656 -0.1285  0.0234
  966POPC   C1A14083   7.067  10.128   6.491 -0.2003  0.0917  0.3774
  966POPC   D2A14084   7.069  10.314   6.973 -0.2671 -0.1294  0.0043
  966POPC   C3A14085   7.435  10.423   7.193  0.1610  0.0826 -0.2664
  966POPC   C4A14086   7.715  10.725   7.266  0.0456  0.1187  0.0947
  966POPC   C1B14087   6.959   9.752   6.803 -0.1313 -0.1844  0.0550
  966POPC   C2B14088   7.260   9.463   7.064  0.1856 -0.5208  0.2522
  966POPC   C3B14089   7.520   9.417   7.436 -0.1425  0.0732  0.0567
  966POPC   C4B14090   7.931   9.155   7.484  0.0572  0.0441 -0.1742
  967POPC   NC314091  16.203  19.158   4.930  0.0159 -0.0730  0.0629
  967POPC   PO414092  16.169  19.156   5.314 -0.2350  0.1543 -0.0635
  967POPC   GL114093  16.315  18.937   5.688 -0.0508  0.1668 -0.1117
  967POPC   GL214094  16.002  18.701   5.818 -0.0823  0.0635 -0.0036
  967POPC   C1A14095  16.366  19.132   5.996 -0.0462 -0.0694  0.2112
  967POPC   D2A14096  16.303  19.262   6.457 -0.4829  0.1739 -0.0546
  967POPC   C3A14097  16.662  19.377   6.571 -0.0134  0.0046  0.1014
  967POPC   C4A14098  16.830  19.576   6.973  0.3871 -0.3454 -0.0335
  967POPC   C1B14099  15.892  18.974   6.134  0.0885 -0.2913 -0.1144
  967POPC   C2B14100  15.743  19.160   6.520  0.1033  0.3452 -0.1091
  967POPC   C3B14101  15.554  19.289   7.012 -0.3419  0.0781 -0.3026
  967POPC   C4B14102  15.540  19.226   7.330  0.1999 -0.1249  0.1095
  968POPC   NC314103   0.363  17.804   5.546  0.0356 -0.0664  0.1154
  968POPC   PO414104   0.691  17.692   5.624  0.1450  0.0276 -0.0029
  968POPC   GL114105   0.518  17.618   6.023 -0.1966  0.0581  0.0275
  968POPC   GL214106   0.491  17.872   6.148  0.1413  0.1577 -0.4404
  968POPC   C1A14107   0.597  17.435   6.448  0.0103 -0.0286 -0.0264
  968POPC   D2A14108   0.731  17.420   6.914  0.0697 -0.0555  0.0845
  968POPC   C3A14109   0.986  17.370   7.290 -0.1251  0.1407 -0.1374
  968POPC   C4A14110   1.430  17.301   7.481  0.1536  0.2312  0.1753
  968POPC   C1B14111   0.590  17.911   6.568 -0.2850 -0.0010  0.1965
  968POPC   C2B14112   0.435  18.067   6.986 -0.2820 -0.0192 -0.3580
  968POPC   C3B14113   0.253  18.414   7.160  0.1706  0.0613 -0.0038
  968POPC   C4B14114   0.293  18.638   7.475 -0.0524  0.2550 -0.1122
  969POPC   NC314115   9.683  11.499   5.333 -0.3198  0.2128  0.1650
  969POPC   PO414116   9.151  11.606   5.314 -0.1383 -0.0316 -0.3194
  969POPC   GL114117   8.939  11.495   5.761  0.1855 -0.2477 -0.1027
  969POPC   GL214118   8.782  11.221   5.970  0.0395  0.1025 -0.2540
  969POPC   C1A14119   8.831  11.677   6.198 -0.3028  0.1507 -0.1305
  969POPC   D2A14120   8.835  11.793   6.696 -0.0090 -0.7808 -0.0674
  969POPC   C3A14121   8.642  11.633   7.102  0.0356 -0.0025 -0.0463
  969POPC   C4A14122   8.353  11.463   7.398 -0.0623  0.0265 -0.2424
  969POPC   C1B14123   8.722  11.222   6.387 -0.1869  0.2111 -0.2670
  969POPC   C2B14124   8.960  11.330   6.812  0.0289  0.0845  0.1106
  969POPC   C3B14125   9.187  11.664   7.028  0.0445  0.0215 -0.0143
  969POPC   C4B14126   9.622  11.778   6.893 -0.0541  0.1898  0.1297
  970POPC   NC314127  13.680   5.627   5.301  0.2256  0.0541  0.2658
  970POPC   PO414128  13.322   5.441   5.563 -0.1968 -0.0070 -0.3033
  970POPC   GL114129  13.246   5.437   5.978 -0.2217  0.0777  0.5669
  970POPC   GL214130  12.882   5.441   6.038  0.3447  0.1705  0.1356
  970POPC   C1A14131  13.477   5.241   6.281  0.0697  0.1462  0.0220
  970POPC   D2A14132  13.932   5.137   6.453  0.0575 -0.3920 -0.1241
  970POPC   C3A14133  14.173   4.969   6.100  0.1316  0.1519  0.0281
  970POPC   C4A14134  14.334   4.631   5.800 -0.2869  0.1122 -0.2209
  970POPC   C1B14135  12.796   5.751   6.410  0.0305 -0.2044 -0.0704
  970POPC   C2B14136  12.812   5.752   6.813  0.1566  0.0785  0.1032
  970POPC   C3B14137  12.705   5.873   7.170  0.0750 -0.2141 -0.0930
  970POPC   C4B14138  12.668   5.688   7.416 -0.0876 -0.0288  0.0239
  971POPC   NC314139  18.873   8.616   5.171  0.2224 -0.2838 -0.1635
  971POPC   PO414140  19.277   8.600   5.256 -0.0279  0.1181  0.1841
  971POPC   GL114141  19.053   8.484   5.711  0.1296  0.0422  0.0828
  971POPC   GL214142  19.152   8.136   5.780 -0.2656 -0.0171 -0.2148
  971POPC   C1A14143  19.113   8.767   6.116  0.3323  0.2224  0.1047
  971POPC   D2A14144  19.140   8.798   6.512  0.0430  0.1992 -0.1019
  971POPC   C3A14145  19.465   8.937   6.732 -0.1559 -0.0485 -0.2102
  971POPC   C4A14146  19.619   9.166   7.202  0.0457  0.0389 -0.2738
  971POPC   C1B14147  19.026   8.292   6.209  0.1193  0.0132  0.1324
  971POPC   C2B14148  19.234   8.194   6.600 -0.2760  0.0585  0.3548
  971POPC   C3B14149  19.559   8.040   6.709 -0.0314  0.0452  0.1293
  971POPC   C4B14150  19.955   8.027   6.918  0.1592 -0.1248 -0.1215
  972POPC   NC314151  14.198  15.640   5.475 -0.0947  0.0638  0.3272
  972POPC   PO414152  13.736  15.822   5.596  0.2601  0.0322  0.0703
  972POPC   GL114153  13.886  16.167   5.785 -0.0667 -0.1037  0.0797
  972POPC   GL214154  14.145  16.029   5.853  0.0948 -0.1089  0.2016
  972POPC   C1A14155  13.810  16.507   6.146  0.2640 -0.1850  0.0269
  972POPC   D2A14156  13.643  16.560   6.628  0.3319  0.3563 -0.1589
  972POPC   C3A14157  13.234  16.693   6.747  0.0646  0.4611 -0.0269
  972POPC   C4A14158  13.028  16.860   7.158 -0.0187  0.0772 -0.0443
  972POPC   C1B14159  14.111  16.024   6.255  0.1170  0.1569 -0.0738
  972POPC   C2B14160  13.778  16.114   6.562 -0.0275  0.0869  0.0670
  972POPC   C3B14161  13.834  16.171   7.054  0.0215  0.0626  0.2591
  972POPC   C4B14162  13.770  16.115   7.464  0.0824  0.1887 -0.2459
  973POPC   NC314163   7.933  12.042   5.220  0.2418 -0.2369 -0.2992
  973POPC   PO414164   8.102  11.637   5.275  0.0906  0.2514  0.1362
  973POPC   GL114165   8.259  11.987   5.626  0.0285  0.1383 -0.0758
  973POPC   GL214166   8.546  11.982   5.898  0.0556  0.3870  0.2888
  973POPC   C1A14167   8.046  12.120   5.963  0.0071  0.3376 -0.1260
  973POPC   D2A14168   7.882  11.944   6.355 -0.1150  0.2067 -0.0371
  973POPC   C3A14169   7.658  12.144   6.648 -0.3451  0.0312  0.0182
  973POPC   C4A14170   7.184  12.300   6.884 -0.0760  0.2190 -0.1301
  973POPC   C1B14171   8.470  12.098   6.288  0.0343  0.1949  0.3397
  973POPC   C2B14172   8.542  12.206   6.687 -0.0234  0.0590 -0.0113
  973POPC   C3B14173   8.592  12.380   7.083  0.1958  0.0620  0.0781
  973POPC   C4B14174   8.580  12.370   7.473 -0.0786  0.0271 -0.3010
  974POPC   NC314175  15.475  15.513   5.207  0.3316  0.1161  0.0297
  974POPC   PO414176  15.006  15.628   5.140  0.0044  0.3405  0.1882
  974POPC   GL114177  14.810  15.708   5.549 -0.0996 -0.2884  0.1055
  974POPC   GL214178  14.631  15.901   5.572 -0.0742 -0.0002  0.1905
  974POPC   C1A14179  14.862  15.615   5.985  0.0382  0.1267  0.0418
  974POPC   D2A14180  14.794  15.628   6.380 -0.3747 -0.1775  0.0636
  974POPC   C3A14181  15.057  15.612   6.772 -0.3301 -0.0460 -0.1393
  974POPC   C4A14182  15.283  16.004   7.007 -0.0901 -0.3489  0.0902
  974POPC   C1B14183  14.697  16.072   6.014 -0.0474 -0.0551 -0.0145
  974POPC   C2B14184  14.658  16.054   6.481  0.0751 -0.0331 -0.0602
  974POPC   C3B14185  14.734  15.970   6.781 -0.1187 -0.1493 -0.1285
  974POPC   C4B14186  14.783  15.775   7.176 -0.2986  0.0037  0.3963
  975POPC   NC314187   8.814   0.360   5.042 -0.0175  0.1221 -0.2255
  975POPC   PO414188   8.355   0.208   5.142 -0.1199  0.1408 -0.1626
  975POPC   GL114189   8.361   0.243   5.500 -0.2319 -0.3169  0.3797
  975POPC   GL214190   8.115   0.278   5.627 -0.2479  0.0132  0.2028
  975POPC   C1A14191   8.587   0.387   5.924  0.1958  0.1399 -0.3044
  975POPC   D2A14192   8.750   0.316   6.336  0.0085  0.3481 -0.2372
  975POPC   C3A14193   8.474   0.286   6.638  0.1423 -0.1562  0.0057
  975POPC   C4A14194   8.206   0.008   6.930 -0.0035 -0.2670 -0.0431
  975POPC   C1B14195   8.086   0.468   5.860 -0.2569 -0.0826  0.0596
  975POPC   C2B14196   8.186   0.532   6.227 -0.0216  0.2613 -0.0312
  975POPC   C3B14197   8.523   0.756   6.543  0.2133  0.3240  0.0113
  975POPC   C4B14198   8.907   0.974   6.501  0.1440 -0.0482  0.3179
  976POPC   NC314199   0.495   9.917   5.176  0.0505 -0.1151  0.1582
  976POPC   PO414200   0.527   9.465   5.170 -0.2772  0.1120  0.1365
  976POPC   GL114201   0.301   9.607   5.531  0.0250  0.2663 -0.3300
  976POPC   GL214202   0.317   9.912   5.657 -0.1324  0.0166 -0.2037
  976POPC   C1A14203   0.334   9.625   6.035  0.0302  0.1501 -0.4434
  976POPC   D2A14204   0.396   9.656   6.507  0.3222  0.0674 -0.1272
  976POPC   C3A14205   0.084   9.526   6.710  0.3144  0.3993 -0.0406
  976POPC   C4A14206  -0.301   9.591   6.812  0.4591  0.1159  0.0991
  976POPC   C1B14207   0.561  10.098   5.966  0.2148  0.0604 -0.0039
  976POPC   C2B14208   0.562  10.156   6.466  0.0064 -0.3958  0.2424
  976POPC   C3B14209   0.409  10.123   6.912  0.3822 -0.0386  0.2432
  976POPC   C4B14210   0.086  10.049   7.076  0.1301  0.1660 -0.0371
  977POPC   NC314211  15.692  14.348   5.092 -0.0649  0.1926  0.0811
  977POPC   PO414212  15.522  14.600   5.248 -0.1686  0.0649  0.0584
  977POPC   GL114213  15.849  14.658   5.542 -0.2782  0.1421 -0.0508
  977POPC   GL214214  15.828  14.421   5.767 -0.1934  0.1275 -0.1120
  977POPC   C1A14215  15.905  15.098   5.786  0.1548  0.0036  0.1337
  977POPC   D2A14216  15.816  15.507   6.010 -0.0494 -0.0300 -0.3907
  977POPC   C3A14217  15.539  15.438   6.303  0.2522  0.3023 -0.1902
  977POPC   C4A14218  15.232  15.382   6.341  0.1671  0.0606 -0.1380
  977POPC   C1B14219  15.673  14.481   6.126  0.3798  0.0606 -0.0437
  977POPC   C2B14220  15.378  14.520   6.390 -0.2054  0.2987 -0.0161
  977POPC   C3B14221  15.229  14.835   6.566 -0.1584 -0.1890  0.0610
  977POPC   C4B14222  15.118  15.083   6.937  0.1670  0.0314  0.0268
  978POPC   NC314223   6.408  14.283   4.649 -0.0125  0.0910 -0.3554
  978POPC   PO414224   6.411  14.016   5.000  0.1208  0.4949 -0.0219
  978POPC   GL114225   6.393  13.844   5.401  0.0304  0.2391  0.1792
  978POPC   GL214226   6.173  13.517   5.538 -0.1817  0.1047 -0.1565
  978POPC   C1A14227   6.384  14.050   5.857  0.2186  0.0183  0.3244
  978POPC   D2A14228   6.549  14.039   6.281 -0.0417  0.1158  0.1430
  978POPC   C3A14229   6.598  13.596   6.517 -0.2656  0.0600  0.1359
  978POPC   C4A14230   6.658  13.452   6.896  0.0593  0.0299 -0.2345
  978POPC   C1B14231   6.011  13.697   5.908  0.1079 -0.1120 -0.0687
  978POPC   C2B14232   6.111  13.732   6.364  0.0609  0.0969 -0.3897
  978POPC   C3B14233   6.191  13.897   6.779 -0.0803 -0.2337  0.1562
  978POPC   C4B14234   6.418  13.832   7.112 -0.1864  0.0164 -0.3445
  979POPC   NC314235   2.881   4.968   5.319 -0.4219 -0.0175 -0.4568
  979POPC   PO414236   3.258   5.142   5.280 -0.0454  0.0078 -0.0438
  979POPC   GL114237   3.360   5.144   5.776  0.0725 -0.0147 -0.2572
  979POPC   GL214238   3.313   5.438   5.901 -0.0741 -0.0960 -0.2289
  979POPC   C1A14239   3.633   5.122   6.038 -0.1687  0.1665  0.0456
  979POPC   D2A14240   3.966   5.399   6.322  0.0248  0.2728 -0.0203
  979POPC   C3A14241   3.997   5.384   6.813  0.6152 -0.1020  0.1711
  979POPC   C4A14242   4.045   5.555   7.212  0.3076 -0.0269  0.0505
  979POPC   C1B14243   3.451   5.693   6.221 -0.2221 -0.0042  0.0823
  979POPC   C2B14244   3.339   5.940   6.613  0.1185  0.0936 -0.0013
  979POPC   C3B14245   3.073   5.865   6.893  0.0840  0.0324 -0.5663
  979POPC   C4B14246   3.187   5.726   7.261 -0.0718  0.3863 -0.2389
  980POPC   NC314247   5.046   9.798   4.695  0.0468  0.1261  0.0055
  980POPC   PO414248   5.358   9.642   4.915 -0.0336 -0.0305  0.3419
  980POPC   GL114249   5.471   9.689   5.401  0.2609 -0.3607 -0.0605
  980POPC   GL214250   5.825   9.815   5.411 -0.0594 -0.0131  0.1268
  980POPC   C1A14251   5.339   9.956   5.784 -0.2112 -0.2277 -0.0263
  980POPC   D2A14252   5.137   9.912   6.110 -0.2100  0.2121 -0.4712
  980POPC   C3A14253   5.208  10.186   6.478  0.1323  0.2475 -0.0928
  980POPC   C4A14254   5.220  10.557   6.734 -0.1898  0.1103  0.0008
  980POPC   C1B14255   5.822   9.882   5.888  0.1594  0.1659 -0.4381
  980POPC   C2B14256   5.758   9.942   6.267  0.0266  0.2865 -0.1645
  980POPC   C3B14257   5.640   9.963   6.700 -0.0347 -0.5296 -0.0279
  980POPC   C4B14258   5.702   9.814   7.113  0.4732 -0.1025 -0.0359
  981YOPC   NC314259  18.519   7.440   4.460 -0.0158 -0.0904 -0.1543
  981YOPC   PO414260  18.526   7.311   4.937 -0.0247  0.0766 -0.0129
  981YOPC   GL114261  18.353   7.301   5.369 -0.0169  0.0196  0.2640
  981YOPC   GL214262  18.000   7.127   5.238 -0.1420 -0.0248  0.2950
  981YOPC   C1A14263  18.270   7.261   5.876  0.0187  0.3701  0.0398
  981YOPC   D2A14264  18.112   7.286   6.294 -0.2728  0.3286  0.1170
  981YOPC   C3A14265  17.887   7.148   6.622  0.0642  0.2527  0.1428
  981YOPC   C4A14266  17.564   6.967   6.986  0.1645  0.0546 -0.0805
  981YOPC   C1B14267  18.241   6.874   5.572  0.0026  0.2562  0.2042
  981YOPC   C2B14268  18.416   6.817   6.079  0.1637 -0.2675  0.1792
  981YOPC   D3B14269  18.241   6.838   6.429 -0.2042  0.2313  0.0301
  981YOPC   C4B14270  18.083   6.768   6.828  0.1479  0.2201  0.0035
  982YOPC   NC314271  19.133  16.973   5.681  0.1038  0.0541 -0.1564
  982YOPC   PO414272  19.258  17.403   5.742 -0.2396  0.4233  0.0898
  982YOPC   GL114273  19.225  17.177   6.134 -0.1856  0.0052  0.0403
  982YOPC   GL214274  19.259  16.815   6.148 -0.0088 -0.0835  0.0617
  982YOPC   C1A14275  18.943  17.160   6.520 -0.0110 -0.0602  0.2376
  982YOPC   D2A14276  18.743  16.931   6.892 -0.0676 -0.2557 -0.0485
  982YOPC   C3A14277  18.612  16.523   6.985  0.1327  0.1079  0.2317
  982YOPC   C4A14278  18.853  16.226   7.105  0.2413  0.2339  0.3858
  982YOPC   C1B14279  19.483  16.945   6.514  0.2304  0.0504 -0.1664
  982YOPC   C2B14280  19.435  17.196   6.849 -0.0081 -0.1032 -0.3832
  982YOPC   D3B14281  19.327  17.600   6.749 -0.0699 -0.1778  0.0799
  982YOPC   C4B14282  19.148  17.811   6.454  0.1893 -0.1414 -0.3072
  983YOPC   NC314283   2.032   1.470   5.832 -0.3033  0.0150  0.0187
  983YOPC   PO414284   1.984   1.923   5.727  0.1196  0.1266  0.4739
  983YOPC   GL114285   1.741   1.958   6.213  0.0739  0.0853 -0.0359
  983YOPC   GL214286   1.686   1.631   6.291 -0.0632  0.2692 -0.0727
  983YOPC   C1A14287   1.522   2.006   6.565  0.0032 -0.0744 -0.2172
  983YOPC   D2A14288   1.470   1.931   6.996 -0.0999 -0.0676 -0.1911
  983YOPC   C3A14289   1.470   1.949   7.431 -0.1006  0.2108 -0.1880
  983YOPC   C4A14290   1.553   2.216   7.758  0.1227  0.0493 -0.1119
  983YOPC   C1B14291   1.742   1.575   6.750  0.1557 -0.3569 -0.2770
  983YOPC   C2B14292   1.726   1.508   7.197 -0.0662 -0.0156 -0.1521
  983YOPC   D3B14293   2.012   1.261   7.466 -0.3651 -0.3236  0.0610
  983YOPC   C4B14294   2.508   1.153   7.593 -0.1157  0.0728  0.0016
  984YOPC   NC314295  15.696   7.515   5.364  0.0235  0.0307 -0.0892
  984YOPC   PO414296  16.037   7.349   5.437 -0.1814  0.2586 -0.0998
  984YOPC   GL114297  16.261   7.367   5.808 -0.0200 -0.0117 -0.1040
  984YOPC   GL214298  16.088   7.091   5.893  0.0838 -0.1494 -0.0958
  984YOPC   C1A14299  16.206   7.498   6.212  0.0743 -0.0356  0.1871
  984YOPC   D2A14300  16.196   7.398   6.524  0.1147  0.1230  0.2569
  984YOPC   C3A14301  16.237   6.989   6.640  0.0799 -0.1226  0.1765
  984YOPC   C4A14302  16.216   6.537   6.959 -0.0324  0.0585 -0.1637
  984YOPC   C1B14303  16.096   6.980   6.174  0.1480 -0.1921  0.2856
  984YOPC   C2B14304  16.108   6.557   6.412  0.2331  0.1332 -0.0941
  984YOPC   D3B14305  15.896   6.249   6.715  0.1035  0.0810  0.2049
  984YOPC   C4B14306  15.473   6.226   6.945 -0.0279  0.2943 -0.2333
  985YOPC   NC314307   5.063  14.114   5.095 -0.0118 -0.2150 -0.2768
  985YOPC   PO414308   4.733  13.874   5.030 -0.1834 -0.0978  0.1278
  985YOPC   GL114309   4.745  13.682   5.497  0.1419  0.0742  0.1808
  985YOPC   GL214310   4.626  13.417   5.454  0.0744  0.1156  0.1904
  985YOPC   C1A14311   4.867  13.606   5.977 -0.2819  0.0745 -0.1652
  985YOPC   D2A14312   5.053  13.749   6.300 -0.0465  0.1380  0.1472
  985YOPC   C3A14313   5.225  13.527   6.536 -0.3500 -0.2518 -0.2493
  985YOPC   C4A14314   5.214  13.158   6.870 -0.2533 -0.1069  0.2503
  985YOPC   C1B14315   4.218  13.222   5.565 -0.1244  0.2448 -0.3139
  985YOPC   C2B14316   3.782  12.900   5.594 -0.1775 -0.0220  0.3617
  985YOPC   D3B14317   3.654  12.828   6.012 -0.0712  0.0638  0.0138
  985YOPC   C4B14318   3.308  12.620   6.269 -0.2527 -0.3298  0.1046
  986YOPC   NC314319  19.052  14.547   5.345 -0.2482  0.2775  0.0502
  986YOPC   PO414320  19.286  14.890   5.318  0.1011 -0.0388 -0.1844
  986YOPC   GL114321  19.101  14.857   5.702 -0.1456 -0.0644 -0.0766
  986YOPC   GL214322  18.720  15.017   5.807 -0.1173  0.0405  0.0965
  986YOPC   C1A14323  19.259  14.914   6.145  0.0938 -0.4494  0.0858
  986YOPC   D2A14324  19.353  15.159   6.397  0.1208  0.0597 -0.1111
  986YOPC   C3A14325  19.199  14.922   6.857 -0.1397  0.1250  0.1598
  986YOPC   C4A14326  19.482  15.009   7.184  0.2290  0.1602 -0.2702
  986YOPC   C1B14327  18.785  15.139   6.205  0.2115  0.0462 -0.2064
  986YOPC   C2B14328  18.729  15.063   6.656 -0.0662 -0.4309 -0.0772
  986YOPC   D3B14329  18.848  15.190   7.008 -0.3596 -0.0941 -0.1143
  986YOPC   C4B14330  18.728  15.368   7.307 -0.2905  0.2095 -0.0143
  987YOPC   NC314331   9.698   1.254   5.103  0.2310  0.1464 -0.2319
  987YOPC   PO414332   9.705   0.934   5.229  0.3379  0.2697 -0.1123
  987YOPC   GL114333   9.801   1.027   5.574  0.0987  0.0356  0.0410
  987YOPC   GL214334   9.934   0.801   5.806  0.0656 -0.1565  0.3791
  987YOPC   C1A14335   9.622   1.341   5.884 -0.0920 -0.3028  0.2700
  987YOPC   D2A14336   9.734   1.496   6.322  0.2847 -0.2470 -0.2530
  987YOPC   C3A14337  10.139   1.740   6.321  0.3147 -0.0870  0.4481
  987YOPC   C4A14338  10.487   1.910   6.188  0.1168 -0.2735  0.0348
  987YOPC   C1B14339   9.626   0.494   6.007 -0.1031  0.0804  0.5754
  987YOPC   C2B14340   9.516   0.023   6.237  0.2295  0.0278 -0.2864
  987YOPC   D3B14341   9.550   0.139   6.673  0.3032 -0.0621  0.1711
  987YOPC   C4B14342   9.362   0.073   7.065  0.6177  0.0629 -0.0470
  988YOPC   NC314343   1.281  10.856   4.880 -0.0707 -0.1137 -0.0389
  988YOPC   PO414344   0.969  11.026   5.118 -0.0454  0.0672 -0.1188
  988YOPC   GL114345   0.722  10.939   5.369  0.3912 -0.0069 -0.0627
  988YOPC   GL214346   0.515  10.708   5.292  0.1846 -0.1020  0.1786
  988YOPC   C1A14347   0.576  10.954   5.818  0.1211 -0.2632 -0.2999
  988YOPC   D2A14348   0.309  10.716   6.093 -0.1039 -0.0801  0.2431
  988YOPC   C3A14349  -0.058  10.637   6.085  0.0971 -0.1953 -0.0747
  988YOPC   C4A14350  -0.412  10.692   6.351 -0.2893 -0.2583  0.1454
  988YOPC   C1B14351   0.647  10.531   5.618 -0.1993 -0.3413  0.1032
  988YOPC   C2B14352   0.858  10.531   6.058 -0.1272 -0.2271 -0.1133
  988YOPC   D3B14353   0.713  10.681   6.499 -0.0172 -0.0502 -0.0885
  988YOPC   C4B14354   0.381  11.000   6.532 -0.1957 -0.0901  0.1397
  989YOPC   NC314355  10.469   6.043   5.363 -0.1262 -0.0017 -0.0474
  989YOPC   PO414356  10.961   6.174   5.553 -0.1407 -0.1145  0.1399
  989YOPC   GL114357  10.963   6.067   6.059 -0.0566  0.0729 -0.1054
  989YOPC   GL214358  11.300   6.066   6.255  0.0723  0.0861 -0.0750
  989YOPC   C1A14359  10.866   5.941   6.430  0.1589 -0.3216  0.5165
  989YOPC   D2A14360  10.744   6.093   6.839  0.2608  0.3339 -0.2449
  989YOPC   C3A14361  10.945   6.324   7.099 -0.0134  0.1160  0.1061
  989YOPC   C4A14362  10.714   6.502   7.578  0.5580 -0.1140 -0.3533
  989YOPC   C1B14363  11.274   6.165   6.667 -0.1036  0.0861  0.1247
  989YOPC   C2B14364  11.427   6.259   7.115  0.1873 -0.1714  0.0841
  989YOPC   D3B14365  11.883   6.297   7.324 -0.2092 -0.0098  0.2935
  989YOPC   C4B14366  12.396   6.298   7.349 -0.3165  0.0166  0.4461
  990YOPC   NC314367  17.731   8.324   4.679  0.0955 -0.0961  0.2755
  990YOPC   PO414368  17.563   8.018   5.016  0.0840 -0.0162  0.4311
  990YOPC   GL114369  17.784   7.927   5.373 -0.0278  0.1800  0.1238
  990YOPC   GL214370  18.080   7.695   5.395 -0.1054 -0.2760 -0.0649
  990YOPC   C1A14371  17.612   7.737   5.815  0.3369 -0.2105  0.0926
  990YOPC   D2A14372  17.645   7.495   6.177  0.0592 -0.0753  0.1643
  990YOPC   C3A14373  17.423   7.354   6.673  0.3564 -0.0658  0.1205
  990YOPC   C4A14374  17.108   7.163   6.966  0.0661 -0.1098  0.0837
  990YOPC   C1B14375  18.073   7.664   5.841  0.0076 -0.0147 -0.0619
  990YOPC   C2B14376  17.963   7.862   6.124 -0.0801  0.0799 -0.0378
  990YOPC   D3B14377  17.950   7.757   6.518 -0.4167  0.1741  0.3751
  990YOPC   C4B14378  18.305   7.539   6.695  0.0853  0.2437 -0.3518
  991YOPC   NC314379   1.195  12.687   5.346  0.4601 -0.3039  0.0637
  991YOPC   PO414380   1.381  12.921   5.585  0.1443 -0.1817 -0.1424
  991YOPC   GL114381   1.086  12.733   5.916  0.1401 -0.1346  0.3067
  991YOPC   GL214382   0.989  12.357   5.854 -0.4545 -0.0911  0.2514
  991YOPC   C1A14383   0.739  12.605   6.146 -0.1165 -0.2435  0.1233
  991YOPC   D2A14384   0.572  12.623   6.591 -0.2400  0.0688 -0.0833
  991YOPC   C3A14385   0.598  12.228   6.762  0.1174 -0.2271  0.0012
  991YOPC   C4A14386   0.980  11.872   6.656  0.1795 -0.0359 -0.2033
  991YOPC   C1B14387   1.150  12.277   6.156 -0.0458 -0.0560  0.4181
  991YOPC   C2B14388   1.394  12.156   6.531  0.0518  0.2270  0.1634
  991YOPC   D3B14389   1.691  12.412   6.720  0.1383  0.1108  0.1757
  991YOPC   C4B14390   1.686  12.734   7.039  0.2806 -0.0292  0.0200
  992YOPC   NC314391  14.848   5.426   5.304 -0.0574 -0.2241 -0.1185
  992YOPC   PO414392  14.526   5.788   5.206 -0.1041 -0.0765  0.1058
  992YOPC   GL114393  14.717   5.718   5.685  0.1195  0.1917  0.2662
  992YOPC   GL214394  15.044   5.622   5.738  0.2034 -0.1765  0.1371
  992YOPC   C1A14395  14.582   5.439   6.110  0.2347  0.3026  0.1604
  992YOPC   D2A14396  14.435   5.204   6.434 -0.1453 -0.2128 -0.0216
  992YOPC   C3A14397  14.649   5.100   6.889  0.2743 -0.2477 -0.0593
  992YOPC   C4A14398  14.762   5.259   7.157  0.1166 -0.2371  0.1589
  992YOPC   C1B14399  15.127   5.397   6.032 -0.0139 -0.0058  0.0766
  992YOPC   C2B14400  15.259   5.456   6.446  0.1266 -0.1636 -0.5160
  992YOPC   D3B14401  15.198   5.260   6.908  0.2937  0.1479  0.1473
  992YOPC   C4B14402  15.114   5.393   7.421  0.0844  0.0886  0.0587
  993YOPC   NC314403  11.400  16.419   5.231  0.3307  0.2141 -0.2655
  993YOPC   PO414404  10.905  16.323   5.359 -0.1014  0.0459 -0.2147
  993YOPC   GL114405  10.811  16.015   5.741  0.0398  0.0668 -0.2034
  993YOPC   GL214406  10.855  16.231   6.059 -0.3510  0.1905  0.0805
  993YOPC   C1A14407  11.042  15.688   5.988 -0.3127  0.4863  0.1107
  993YOPC   D2A14408  11.434  15.566   5.834 -0.0264 -0.0243 -0.5360
  993YOPC   C3A14409  11.655  15.683   6.240  0.2174 -0.0901  0.2564
  993YOPC   C4A14410  11.991  15.545   6.551 -0.4053 -0.0898  0.1634
  993YOPC   C1B14411  10.966  15.987   6.356 -0.0080  0.3354 -0.1093
  993YOPC   C2B14412  10.976  15.711   6.451 -0.1934 -0.0702 -0.2229
  993YOPC   D3B14413  11.044  15.646   6.951 -0.0585  0.2227  0.2628
  993YOPC   C4B14414  11.451  15.819   7.213  0.1604  0.3613  0.0419
  994YOPC   NC314415  16.034   8.923   5.346  0.3900  0.4973 -0.0153
  994YOPC   PO414416  15.739   8.600   5.504 -0.1218  0.1776  0.0479
  994YOPC   GL114417  15.878   8.799   5.833 -0.0363 -0.0767  0.2732
  994YOPC   GL214418  15.631   8.969   6.068  0.1120 -0.0642 -0.0715
  994YOPC   C1A14419  16.177   9.089   6.061  0.0218  0.0721  0.1269
  994YOPC   D2A14420  16.319   8.983   6.577 -0.0605 -0.0928  0.1629
  994YOPC   C3A14421  16.483   9.312   6.744  0.0412  0.0251 -0.2774
  994YOPC   C4A14422  16.660   9.360   7.136 -0.1383  0.3022 -0.0907
  994YOPC   C1B14423  15.806   9.024   6.427 -0.1554  0.0163 -0.0351
  994YOPC   C2B14424  15.936   9.301   6.765 -0.3800  0.1744  0.2414
  994YOPC   D3B14425  15.906   9.414   7.155  0.2042  0.0778  0.2921
  994YOPC   C4B14426  16.232   9.619   7.181  0.4711  0.1211  0.0185
  995YOPC   NC314427   6.840   9.844   5.223  0.1434  0.0027  0.2958
  995YOPC   PO414428   6.428   9.978   5.313 -0.0127  0.1149 -0.0435
  995YOPC   GL114429   6.299   9.968   5.776  0.0757  0.0840  0.0278
  995YOPC   GL214430   6.443  10.236   5.939  0.1112  0.1349 -0.4928
  995YOPC   C1A14431   6.189   9.667   6.174 -0.0954 -0.2333  0.1692
  995YOPC   D2A14432   5.977   9.306   6.419  0.1327  0.2913 -0.1127
  995YOPC   C3A14433   5.619   9.443   6.714  0.1367 -0.1844 -0.0124
  995YOPC   C4A14434   5.269   9.621   6.561 -0.0916  0.0751  0.1442
  995YOPC   C1B14435   6.573  10.147   6.441 -0.1374  0.0392  0.1528
  995YOPC   C2B14436   6.589  10.080   6.880 -0.1605  0.0748  0.3051
  995YOPC   D3B14437   6.142  10.113   7.024 -0.0682  0.0904  0.1611
  995YOPC   C4B14438   5.889  10.061   7.493  0.0179  0.0472  0.1487
  996YOPC   NC314439  15.332   5.737   5.005  0.2367 -0.1937 -0.5332
  996YOPC   PO414440  15.306   5.536   5.359  0.1516  0.1386 -0.0293
  996YOPC   GL114441  15.514   5.235   5.778 -0.0816  0.1607 -0.1527
  996YOPC   GL214442  15.637   4.866   5.773 -0.0182 -0.1242  0.1371
  996YOPC   C1A14443  15.625   5.191   6.239  0.0590  0.1033  0.0274
  996YOPC   D2A14444  15.711   5.244   6.684 -0.2539  0.0001  0.1918
  996YOPC   C3A14445  15.931   4.880   6.887  0.0092  0.1016  0.2664
  996YOPC   C4A14446  15.739   4.578   7.104  0.0147 -0.1900 -0.2323
  996YOPC   C1B14447  15.632   4.713   6.297  0.4229  0.2737  0.0005
  996YOPC   C2B14448  15.448   4.398   6.520 -0.0660  0.0797  0.3725
  996YOPC   D3B14449  15.463   4.162   6.775 -0.1399 -0.1493  0.2037
  996YOPC   C4B14450  15.112   4.236   7.017 -0.0195  0.0262  0.0655
  997YOPC   NC314451  12.820  15.836   5.328 -0.1314  0.1267 -0.0797
  997YOPC   PO414452  12.700  16.215   5.203 -0.1836  0.1770  0.1906
  997YOPC   GL114453  12.845  16.480   5.649  0.1132  0.3273  0.1212
  997YOPC   GL214454  12.587  16.721   5.763 -0.0343  0.0064  0.1090
  997YOPC   C1A14455  12.866  16.362   6.065 -0.0969  0.0384  0.1136
  997YOPC   D2A14456  12.736  16.003   6.300  0.0298 -0.0174 -0.1194
  997YOPC   C3A14457  12.815  15.983   6.845  0.0400 -0.0235 -0.0411
  997YOPC   C4A14458  13.083  15.959   7.222  0.0569  0.0572 -0.3124
  997YOPC   C1B14459  12.904  16.851   6.082  0.1954  0.2990 -0.0492
  997YOPC   C2B14460  13.180  16.718   6.233  0.0455 -0.3814 -0.2689
  997YOPC   D3B14461  13.533  16.884   6.271  0.3502  0.1676 -0.3697
  997YOPC   C4B14462  13.600  17.323   6.356  0.2095 -0.0307 -0.0471
  998YOPC   NC314463  16.417   0.579   5.210 -0.1060  0.0438 -0.0151
  998YOPC   PO414464  16.933   0.546   5.383 -0.0599 -0.0438  0.1359
  998YOPC   GL114465  16.771   0.708   5.715 -0.1978  0.0805 -0.2077
  998YOPC   GL214466  16.859   0.993   5.593 -0.1492 -0.1031 -0.2118
  998YOPC   C1A14467  16.599   0.529   6.109  0.0677  0.1113 -0.1484
  998YOPC   D2A14468  16.113   0.389   6.081  0.1897  0.3432 -0.2834
  998YOPC   C3A14469  15.905   0.439   6.379  0.0615 -0.4103 -0.1655
  998YOPC   C4A14470  15.818   0.441   6.763  0.1514  0.2730  0.3707
  998YOPC   C1B14471  16.573   1.095   5.989  0.0155  0.1725  0.0472
  998YOPC   C2B14472  16.539   0.987   6.415 -0.1279  0.0407  0.0500
  998YOPC   D3B14473  16.331   0.645   6.530 -0.3084 -0.0653 -0.0788
  998YOPC   C4B14474  16.276   0.398   6.911 -0.2822 -0.1448  0.0263
  999YOPC   NC314475   8.645   9.785   5.543 -0.0654 -0.0476 -0.1810
  999YOPC   PO414476   8.816   9.449   5.805 -0.1808  0.3405 -0.0476
  999YOPC   GL114477   8.737   9.485   6.220 -0.0126  0.3387  0.0041
  999YOPC   GL214478   8.483   9.646   6.261  0.0636 -0.1010  0.0181
  999YOPC   C1A14479   8.909   9.605   6.602  0.2717  0.0593  0.0781
  999YOPC   D2A14480   8.726   9.591   6.975 -0.1014  0.3629  0.3006
  999YOPC   C3A14481   8.906   9.891   7.361  0.2600 -0.0004  0.0283
  999YOPC   C4A14482   9.030   9.817   7.861  0.1538 -0.0833  0.0416
  999YOPC   C1B14483   8.375   9.506   6.626  0.0754  0.0854 -0.1424
  999YOPC   C2B14484   8.314   9.267   7.057 -0.1010 -0.0751 -0.0472
  999YOPC   D3B14485   8.589   9.095   7.322 -0.1829 -0.2478 -0.2120
  999YOPC   C4B14486   8.673   8.892   7.765 -0.3911  0.2308 -0.0911
 1000YOPC   NC314487   9.152  13.860   5.506  0.3445  0.2397 -0.1588
 1000YOPC   PO414488   9.513  13.640   5.414 -0.0222 -0.3255  0.0883
 1000YOPC   GL114489   9.442  13.451   5.796  0.1269 -0.5399 -0.1052
 1000YOPC   GL214490   9.217  13.617   5.938 -0.3844 -0.3362  0.1441
 1000YOPC   C1A14491   9.316  13.142   6.219 -0.1573 -0.2549  0.0369
 1000YOPC   D2A14492   9.371  13.243   6.583 -0.3649 -0.2728  0.1971
 1000YOPC   C3A14493   9.630  13.524   6.663  0.1153  0.0721  0.1224
 1000YOPC   C4A14494   9.986  13.472   6.823 -0.2978  0.2551  0.3532
 1000YOPC   C1B14495   9.119  13.578   6.317  0.2136 -0.2497  0.2855
 1000YOPC   C2B14496   8.814  13.729   6.641  0.0972 -0.0112  0.0567
 1000YOPC   D3B14497   8.905  14.193   6.865 -0.0787 -0.0728 -0.3714
 1000YOPC   C4B14498   8.863  14.608   6.595 -0.3054 -0.0171 -0.0498
 1001YOPC   NC314499   7.676   7.547   5.270  0.4064  0.0022 -0.0512
 1001YOPC   PO414500   7.499   7.187   5.456 -0.1233 -0.2069 -0.1754
 1001YOPC   GL114501   7.593   7.368   5.820  0.4650 -0.0858  0.3873
 1001YOPC   GL214502   7.860   7.490   5.803 -0.1480 -0.0738 -0.1363
 1001YOPC   C1A14503   7.243   7.461   6.136  0.0693 -0.0860 -0.1510
 1001YOPC   D2A14504   6.873   7.581   6.186  0.1899 -0.0327  0.3781
 1001YOPC   C3A14505   6.839   7.830   6.573  0.2743  0.1347  0.0017
 1001YOPC   C4A14506   7.076   7.743   6.967 -0.0715 -0.0033 -0.2916
 1001YOPC   C1B14507   7.731   7.627   6.262  0.0512  0.0352  0.1344
 1001YOPC   C2B14508   7.499   7.766   6.668  0.0862 -0.1355  0.0983
 1001YOPC   D3B14509   7.586   7.659   7.097 -0.0830 -0.1621  0.1683
 1001YOPC   C4B14510   7.416   7.569   7.525 -0.2875 -0.1128 -0.2629
 1002YOPC   NC314511   3.327  15.868   5.402  0.1445 -0.2261 -0.2225
 1002YOPC   PO414512   3.784  16.100   5.487  0.2217 -0.0055  0.2176
 1002YOPC   GL114513   3.828  16.056   5.876  0.2195 -0.0990 -0.0694
 1002YOPC   GL214514   4.184  16.032   5.961 -0.1537  0.0044  0.0578
 1002YOPC   C1A14515   3.718  16.088   6.254 -0.0403  0.0268 -0.3125
 1002YOPC   D2A14516   3.865  16.250   6.682 -0.0257  0.1207 -0.0395
 1002YOPC   C3A14517   4.222  16.392   6.893  0.1070  0.1347 -0.1365
 1002YOPC   C4A14518   4.614  16.383   6.835  0.1098  0.2413  0.0932
 1002YOPC   C1B14519   4.104  16.451   6.216  0.0157 -0.3161  0.0661
 1002YOPC   C2B14520   3.968  16.765   6.606  0.4466 -0.0505  0.0697
 1002YOPC   D3B14521   3.770  16.787   7.056 -0.1545  0.3521  0.2091
 1002YOPC   C4B14522   3.468  16.657   7.301  0.0788 -0.1535  0.1581
 1003YOPC   NC314523   0.551   8.805   5.089 -0.1317  0.2799  0.1695
 1003YOPC   PO414524   0.790   8.630   5.310  0.2939 -0.1057 -0.1218
 1003YOPC   GL114525   0.993   8.589   5.731 -0.0233 -0.0662 -0.1273
 1003YOPC   GL214526   1.178   8.214   5.695  0.1455  0.2193 -0.0256
 1003YOPC   C1A14527   0.976   8.517   6.115 -0.0530  0.1910 -0.0051
 1003YOPC   D2A14528   1.018   8.329   6.532 -0.3367  0.2964  0.0514
 1003YOPC   C3A14529   1.085   8.424   7.002 -0.0151  0.0014 -0.2643
 1003YOPC   C4A14530   1.110   8.562   7.454 -0.2783  0.0381  0.0088
 1003YOPC   C1B14531   1.058   8.071   6.084 -0.0079 -0.1038 -0.0199
 1003YOPC   C2B14532   0.871   7.856   6.475 -0.1200 -0.0496 -0.2112
 1003YOPC   D3B14533   0.549   7.574   6.863 -0.0884 -0.0146  0.0496
 1003YOPC   C4B14534   0.382   7.356   7.130 -0.3077  0.2271 -0.0746
 1004YOPC   NC314535   7.867  12.878   4.823  0.0079  0.2683  0.1690
 1004YOPC   PO414536   7.682  12.553   5.113 -0.0197 -0.4349  0.0033
 1004YOPC   GL114537   7.430  12.644   5.437  0.0795  0.0063  0.5572
 1004YOPC   GL214538   7.283  12.320   5.641  0.0962  0.3718 -0.0605
 1004YOPC   C1A14539   7.187  12.832   5.789  0.0504 -0.0718  0.3010
 1004YOPC   D2A14540   7.132  12.849   6.190 -0.2176  0.3393 -0.0277
 1004YOPC   C3A14541   7.223  12.374   6.397  0.1326 -0.0088 -0.3359
 1004YOPC   C4A14542   7.142  11.986   6.532  0.0802  0.2544  0.0920
 1004YOPC   C1B14543   7.534  12.480   5.966  0.0144  0.0284  0.0172
 1004YOPC   C2B14544   7.942  12.640   6.145  0.0723 -0.1999 -0.2298
 1004YOPC   D3B14545   8.052  12.431   6.528 -0.0117 -0.1200  0.0821
 1004YOPC   C4B14546   8.179  12.588   6.879  0.5321  0.1029 -0.0500
 1005YOPC   NC314547   2.233  11.997   4.997 -0.0909  0.1164 -0.1824
 1005YOPC   PO414548   2.678  12.083   4.967  0.0044 -0.1106 -0.0320
 1005YOPC   GL114549   2.680  11.959   5.448  0.3794  0.1308  0.4438
 1005YOPC   GL214550   2.402  11.972   5.528  0.1194 -0.1503 -0.2896
 1005YOPC   C1A14551   3.027  11.947   5.697 -0.0149  0.1700 -0.0525
 1005YOPC   D2A14552   3.411  12.077   5.668 -0.1159 -0.2085 -0.0465
 1005YOPC   C3A14553   3.581  12.251   6.177 -0.3179  0.0211 -0.0039
 1005YOPC   C4A14554   3.645  12.438   6.615  0.1543 -0.2782  0.3575
 1005YOPC   C1B14555   2.584  11.878   5.972 -0.3580  0.1577  0.3715
 1005YOPC   C2B14556   2.711  11.894   6.433 -0.0947  0.1204  0.1751
 1005YOPC   D3B14557   2.557  11.790   6.793 -0.0054 -0.0141  0.2561
 1005YOPC   C4B14558   2.598  11.736   7.194  0.2098 -0.0878  0.1237
 1006YOPC   NC314559  10.101   0.596   5.340  0.0759  0.2846 -0.2586
 1006YOPC   PO414560  10.328   0.980   5.161  0.1541  0.1609  0.0624
 1006YOPC   GL114561  10.300   1.047   5.559 -0.0184  0.2817 -0.1212
 1006YOPC   GL214562  10.391   0.870   5.713  0.1324  0.0780  0.0750
 1006YOPC   C1A14563  10.145   1.254   5.925  0.1741 -0.4360 -0.0068
 1006YOPC   D2A14564   9.917   0.915   6.271 -0.1907 -0.3757 -0.0872
 1006YOPC   C3A14565   9.986   1.178   6.609 -0.0011  0.0043  0.2125
 1006YOPC   C4A14566   9.946   1.546   6.780 -0.1414  0.1968  0.1466
 1006YOPC   C1B14567  10.453   0.799   6.101 -0.2305  0.0909 -0.0835
 1006YOPC   C2B14568  10.398   0.733   6.451  0.1386  0.0048  0.1687
 1006YOPC   D3B14569  10.621   0.896   6.756 -0.2118  0.0110 -0.2401
 1006YOPC   C4B14570  10.856   1.249   6.972  0.1504 -0.1256  0.5899
 1007YOPC   NC314571   8.286  14.387   5.366 -0.0772  0.1016  0.0504
 1007YOPC   PO414572   8.543  14.722   5.312 -0.1653  0.1460 -0.1381
 1007YOPC   GL114573   8.400  15.208   5.369 -0.0629 -0.2501  0.3095
 1007YOPC   GL214574   8.245  15.359   5.285  0.2373 -0.1059  0.2798
 1007YOPC   C1A14575   8.565  15.661   5.529  0.2757 -0.0019 -0.2109
 1007YOPC   D2A14576   8.381  15.885   5.861 -0.0402 -0.2387  0.2929
 1007YOPC   C3A14577   8.647  16.112   6.223 -0.1510 -0.0428  0.1925
 1007YOPC   C4A14578   8.475  16.367   6.588  0.2243 -0.0305 -0.0661
 1007YOPC   C1B14579   8.124  15.391   5.796 -0.0135 -0.2322 -0.1136
 1007YOPC   C2B14580   7.949  15.505   6.156  0.0714 -0.2234 -0.0833
 1007YOPC   D3B14581   8.030  15.409   6.573  0.1298  0.0131  0.2010
 1007YOPC   C4B14582   7.763  15.225   6.929 -0.1060 -0.2053  0.3254
 1008YOPC   NC314583  11.738  14.708   5.189  0.1741 -0.1290  0.0100
 1008YOPC   PO414584  12.046  15.082   5.411 -0.0564  0.0441 -0.0608
 1008YOPC   GL114585  12.050  15.391   5.785 -0.1223 -0.0089  0.1676
 1008YOPC   GL214586  11.908  15.237   6.065  0.3231 -0.0685 -0.1663
 1008YOPC   C1A14587  12.158  15.746   6.085 -0.2744 -0.0346 -0.0962
 1008YOPC   D2A14588  12.231  15.994   6.429 -0.2406 -0.0052  0.0570
 1008YOPC   C3A14589  12.499  16.443   6.518 -0.0355  0.1428 -0.0694
 1008YOPC   C4A14590  12.804  16.599   6.557 -0.1011  0.0395  0.2494
 1008YOPC   C1B14591  11.810  14.991   6.409 -0.0450 -0.3116 -0.3471
 1008YOPC   C2B14592  11.937  14.989   6.843 -0.1051  0.0547  0.1236
 1008YOPC   D3B14593  11.726  15.042   7.229 -0.4230 -0.0057  0.2440
 1008YOPC   C4B14594  11.859  15.189   7.587 -0.1553  0.0467  0.3508
 1009YOPC   NC314595   1.191  18.397   5.736  0.2537  0.2602  0.0119
 1009YOPC   PO414596   1.535  18.299   5.750  0.0396 -0.0723  0.1175
 1009YOPC   GL114597   1.359  18.282   6.177  0.0881  0.0734  0.0520
 1009YOPC   GL214598   1.477  18.430   6.344 -0.1558 -0.3676 -0.0263
 1009YOPC   C1A14599   1.070  18.146   6.498 -0.2190  0.0837 -0.2116
 1009YOPC   D2A14600   0.985  18.059   6.952 -0.0294 -0.0695 -0.1786
 1009YOPC   C3A14601   0.711  18.295   7.333 -0.2331  0.2886  0.1471
 1009YOPC   C4A14602   0.324  18.156   7.532  0.3980 -0.0419 -0.2727
 1009YOPC   C1B14603   1.366  18.491   6.804 -0.0087 -0.2859  0.1508
 1009YOPC   C2B14604   1.325  18.417   7.251  0.1814  0.0251 -0.0584
 1009YOPC   D3B14605   1.143  18.028   7.429 -0.3279 -0.4665  0.1153
 1009YOPC   C4B14606   1.169  17.723   7.586  0.0742 -0.1622  0.0842
 1010YOPC   NC314607  10.567   7.005   5.227  0.0807  0.1653  0.1691
 1010YOPC   PO414608  10.214   7.037   5.396 -0.1458 -0.4467 -0.2742
 1010YOPC   GL114609   9.926   6.893   5.724  0.3805 -0.0416 -0.1834
 1010YOPC   GL214610   9.691   6.673   5.604  0.2597 -0.0121  0.1579
 1010YOPC   C1A14611   9.860   6.899   6.207 -0.0237  0.2891 -0.1694
 1010YOPC   D2A14612   9.865   6.985   6.607 -0.0458  0.0983  0.0649
 1010YOPC   C3A14613   9.902   6.619   6.801 -0.0088  0.3111 -0.2922
 1010YOPC   C4A14614   9.901   6.207   7.116 -0.1557 -0.0334  0.0795
 1010YOPC   C1B14615   9.760   6.331   5.945  0.0603  0.0408 -0.0808
 1010YOPC   C2B14616  10.030   6.371   6.275  0.0930 -0.0304  0.0923
 1010YOPC   D3B14617   9.960   6.035   6.669 -0.0243  0.0776  0.1323
 1010YOPC   C4B14618   9.984   5.621   6.937 -0.1075  0.0107  0.0015
 1011YOPC   NC314619   7.042   5.957   5.343  0.1360 -0.1025 -0.1494
 1011YOPC   PO414620   6.759   6.055   5.629 -0.1600  0.0276  0.0783
 1011YOPC   GL114621   6.944   6.370   5.883  0.2875 -0.0437  0.3258
 1011YOPC   GL214622   6.840   6.063   6.146 -0.0763 -0.0817  0.1368
 1011YOPC   C1A14623   6.931   6.542   6.262 -0.3635 -0.4040 -0.0878
 1011YOPC   D2A14624   6.751   6.645   6.651 -0.0417  0.1982 -0.0168
 1011YOPC   C3A14625   7.010   6.809   6.908 -0.1376  0.5438  0.0016
 1011YOPC   C4A14626   7.064   6.863   7.346 -0.1206 -0.0563  0.4103
 1011YOPC   C1B14627   6.851   6.171   6.582 -0.1988 -0.1271 -0.2018
 1011YOPC   C2B14628   6.602   6.234   7.013  0.0377  0.0589  0.1803
 1011YOPC   D3B14629   6.583   6.645   7.171 -0.0151 -0.0111 -0.2265
 1011YOPC   C4B14630   6.351   6.965   7.081 -0.1836 -0.0889 -0.0233
 1012YOPC   NC314631   0.949   1.696   5.716 -0.1743  0.1404 -0.3240
 1012YOPC   PO414632   0.607   1.645   5.891  0.0036  0.0604 -0.2464
 1012YOPC   GL114633   0.670   1.252   6.200  0.2368  0.0573  0.1557
 1012YOPC   GL214634   0.839   0.908   6.310 -0.0904  0.0461  0.1256
 1012YOPC   C1A14635   0.491   1.191   6.630 -0.1991  0.0866  0.0503
 1012YOPC   D2A14636   0.520   1.085   7.069  0.1211  0.1098 -0.0220
 1012YOPC   C3A14637   0.644   1.389   7.246 -0.0384 -0.4065 -0.4833
 1012YOPC   C4A14638   0.654   1.811   7.235  0.1475  0.0215  0.0643
 1012YOPC   C1B14639   0.973   0.883   6.682 -0.2206 -0.1538  0.0431
 1012YOPC   C2B14640   0.968   0.920   7.125  0.0282 -0.2052  0.2163
 1012YOPC   D3B14641   1.184   0.524   7.260 -0.2846 -0.1191 -0.1399
 1012YOPC   C4B14642   1.054   0.089   7.162 -0.0468 -0.2033 -0.0437
 1013YOPC   NC314643   6.750   4.142   5.453  0.0343  0.1015  0.1124
 1013YOPC   PO414644   6.372   4.084   5.649  0.2804 -0.1765 -0.1690
 1013YOPC   GL114645   6.237   4.271   5.999 -0.1831  0.2811 -0.0290
 1013YOPC   GL214646   5.911   4.512   6.185 -0.0431 -0.3360  0.2436
 1013YOPC   C1A14647   6.263   4.228   6.455  0.0761 -0.0733 -0.0890
 1013YOPC   D2A14648   6.201   4.367   6.845 -0.2166 -0.3565  0.1000
 1013YOPC   C3A14649   6.426   4.370   7.175 -0.1212  0.0387  0.0171
 1013YOPC   C4A14650   6.579   4.313   7.518 -0.2136  0.2503 -0.1254
 1013YOPC   C1B14651   5.796   4.552   6.631  0.1648  0.1949 -0.3403
 1013YOPC   C2B14652   5.486   4.654   6.962  0.1183 -0.1274  0.1155
 1013YOPC   D3B14653   5.584   4.840   7.390 -0.0221  0.0905 -0.3643
 1013YOPC   C4B14654   5.340   4.883   7.806 -0.0911 -0.0662 -0.2210
 1014YOPC   NC314655   3.592  16.635   5.389 -0.1903  0.1547 -0.1664
 1014YOPC   PO414656   3.283  16.365   5.440  0.0452  0.1340 -0.0126
 1014YOPC   GL114657   3.335  16.128   5.883 -0.0920  0.1082 -0.0571
 1014YOPC   GL214658   2.904  16.328   5.896  0.1655  0.1656  0.3060
 1014YOPC   C1A14659   3.252  15.973   6.201 -0.0250 -0.2754 -0.1441
 1014YOPC   D2A14660   3.368  15.930   6.658 -0.0853 -0.0608 -0.0207
 1014YOPC   C3A14661   3.519  15.540   6.779  0.3014  0.0096  0.0017
 1014YOPC   C4A14662   3.286  15.151   6.915 -0.3501  0.2571 -0.1560
 1014YOPC   C1B14663   2.856  16.333   6.380 -0.2324  0.2039  0.0363
 1014YOPC   C2B14664   2.961  16.165   6.832  0.2008 -0.1121  0.0928
 1014YOPC   D3B14665   3.097  15.805   7.031 -0.1770  0.1238 -0.1829
 1014YOPC   C4B14666   3.284  15.438   7.316  0.3056 -0.3511  0.1202
 1015YOPC   NC314667  17.252   9.366   4.929 -0.0905 -0.2301 -0.0608
 1015YOPC   PO414668  17.480   9.142   5.294 -0.1701  0.0328 -0.0564
 1015YOPC   GL114669  17.927   9.024   5.419  0.1783  0.2696  0.0497
 1015YOPC   GL214670  18.237   9.266   5.432  0.2382 -0.0920 -0.0245
 1015YOPC   C1A14671  18.056   8.685   5.602  0.1648  0.2364 -0.2383
 1015YOPC   D2A14672  17.936   8.364   5.951 -0.0452 -0.0074  0.0969
 1015YOPC   C3A14673  18.034   8.308   6.411 -0.0531  0.0748  0.0383
 1015YOPC   C4A14674  17.874   8.237   6.876 -0.0424  0.1855 -0.1747
 1015YOPC   C1B14675  17.961   9.540   5.603 -0.1292  0.2483 -0.1318
 1015YOPC   C2B14676  17.880   9.983   5.557 -0.0971  0.1157  0.1007
 1015YOPC   D3B14677  17.836  10.268   5.894 -0.3560 -0.0507 -0.1493
 1015YOPC   C4B14678  17.738  10.285   6.289  0.0576  0.0496  0.1476
 1016YOPC   NC314679   5.634   9.177   4.643 -0.0874  0.1146  0.4449
 1016YOPC   PO414680   5.698   9.311   5.126 -0.1184 -0.2338  0.3368
 1016YOPC   GL114681   5.435   9.122   5.449 -0.0679 -0.1612  0.2956
 1016YOPC   GL214682   5.150   9.369   5.603  0.1999 -0.1131 -0.1266
 1016YOPC   C1A14683   5.489   8.863   5.804  0.2248 -0.0835  0.2127
 1016YOPC   D2A14684   5.659   8.533   6.055  0.0951 -0.0255 -0.1751
 1016YOPC   C3A14685   5.624   8.520   6.409  0.3930  0.1843  0.0718
 1016YOPC   C4A14686   5.512   8.570   6.905  0.1831 -0.0514  0.0674
 1016YOPC   C1B14687   4.895   9.710   5.625  0.0367  0.0147 -0.0799
 1016YOPC   C2B14688   4.851  10.032   5.711 -0.0602 -0.1646  0.1145
 1016YOPC   D3B14689   4.680  10.126   6.142 -0.1001  0.0761  0.0512
 1016YOPC   C4B14690   4.446   9.850   6.234 -0.0497  0.1239 -0.1441
 1017YOPC   NC314691  11.022  12.113   5.769 -0.0657 -0.1308 -0.4043
 1017YOPC   PO414692  11.041  12.607   5.717  0.1184 -0.0434 -0.0394
 1017YOPC   GL114693  11.164  12.620   6.139 -0.1058 -0.2273  0.1490
 1017YOPC   GL214694  10.908  12.457   6.223 -0.1740 -0.2819 -0.0771
 1017YOPC   C1A14695  11.174  12.795   6.527 -0.4701  0.5567  0.0705
 1017YOPC   D2A14696  10.984  12.895   6.881  0.0419 -0.2515  0.1332
 1017YOPC   C3A14697  11.015  12.699   7.387  0.3690  0.3044  0.0881
 1017YOPC   C4A14698  11.272  12.807   7.806 -0.2501  0.0246  0.1780
 1017YOPC   C1B14699  10.775  12.014   6.438  0.2126  0.0292 -0.0636
 1017YOPC   C2B14700  11.016  11.805   6.683  0.1592  0.2481 -0.0468
 1017YOPC   D3B14701  11.383  11.539   6.640 -0.0905 -0.2189 -0.0244
 1017YOPC   C4B14702  11.393  11.077   6.665 -0.0461  0.0780 -0.0003
 1018YOPC   NC314703   8.033  17.507   5.849 -0.1175 -0.2727  0.3490
 1018YOPC   PO414704   8.225  17.868   5.610 -0.1671 -0.4029 -0.1743
 1018YOPC   GL114705   8.398  18.000   5.987  0.0779  0.1962  0.4798
 1018YOPC   GL214706   8.453  18.409   5.933 -0.2324  0.1793  0.3978
 1018YOPC   C1A14707   8.213  18.121   6.400 -0.1291  0.1390 -0.1492
 1018YOPC   D2A14708   8.424  18.168   6.717  0.1253 -0.0356 -0.3385
 1018YOPC   C3A14709   8.079  18.302   6.974  0.0795 -0.4106  0.0802
 1018YOPC   C4A14710   8.120  18.275   7.384 -0.1713 -0.1835 -0.2488
 1018YOPC   C1B14711   8.525  18.675   6.315  0.0003 -0.1920  0.3631
 1018YOPC   C2B14712   8.608  18.960   6.599  0.1545 -0.0132 -0.1791
 1018YOPC   D3B14713   8.746  19.100   6.976 -0.2626  0.0352  0.0615
 1018YOPC   C4B14714   8.961  18.966   7.349  0.3041 -0.2974 -0.1798
 1019YOPC   NC314715  14.743   0.246   4.817 -0.0490 -0.1964 -0.3838
 1019YOPC   PO414716  14.799  -0.126   5.010  0.0252  0.0988 -0.1558
 1019YOPC   GL114717  14.826  -0.146   5.435  0.0282 -0.2999  0.0014
 1019YOPC   GL214718  14.860  -0.364   5.619 -0.1073  0.1648 -0.0439
 1019YOPC   C1A14719  14.518  -0.056   5.754  0.0056 -0.0957  0.2786
 1019YOPC   D2A14720  14.478   0.012   6.239 -0.2679  0.1265 -0.0455
 1019YOPC   C3A14721  14.195   0.132   6.579  0.4316 -0.1890 -0.2278
 1019YOPC   C4A14722  13.950   0.169   6.873 -0.1781 -0.3065 -0.1646
 1019YOPC   C1B14723  14.852  -0.674   5.980  0.0623 -0.3155  0.2525
 1019YOPC   C2B14724  14.910  -0.611   6.426 -0.0504 -0.0350 -0.2368
 1019YOPC   D3B14725  15.213  -0.767   6.719  0.0007 -0.2463  0.2896
 1019YOPC   C4B14726  15.165  -0.795   7.157 -0.0683 -0.1988 -0.0346
 1020YOPC   NC314727   8.661   8.070   5.533  0.0192  0.0462  0.3588
 1020YOPC   PO414728   8.424   8.405   5.476  0.3369 -0.0729  0.1777
 1020YOPC   GL114729   8.386   8.556   5.815  0.0238 -0.1275 -0.0902
 1020YOPC   GL214730   8.684   8.716   5.936  0.1540  0.0101  0.0788
 1020YOPC   C1A14731   8.348   8.481   6.337  0.1731 -0.2931  0.0527
 1020YOPC   D2A14732   8.465   8.568   6.775  0.0856 -0.3623 -0.1762
 1020YOPC   C3A14733   8.762   8.626   7.142  0.0210  0.2827 -0.0360
 1020YOPC   C4A14734   9.056   8.975   7.411  0.0875 -0.2581 -0.2965
 1020YOPC   C1B14735   8.752   8.965   6.284  0.0825 -0.1753  0.0567
 1020YOPC   C2B14736   9.059   9.152   6.454 -0.0412  0.2903 -0.0348
 1020YOPC   D3B14737   9.222   9.045   6.844  0.0424 -0.1763 -0.1335
 1020YOPC   C4B14738   9.162   9.395   7.131 -0.2679 -0.2319 -0.1666
 1021YOPC   NC314739  16.178  12.109   5.030 -0.0274 -0.1124 -0.1372
 1021YOPC   PO414740  16.298  11.990   5.428 -0.1764  0.3130  0.2107
 1021YOPC   GL114741  16.451  11.874   5.820  0.0982  0.0488  0.1148
 1021YOPC   GL214742  16.419  11.542   5.996 -0.0626 -0.2124 -0.4576
 1021YOPC   C1A14743  16.638  11.968   6.223 -0.0707 -0.3309 -0.1218
 1021YOPC   D2A14744  16.771  12.138   6.565 -0.1284  0.0372  0.2414
 1021YOPC   C3A14745  16.646  12.166   7.003 -0.2024  0.2139 -0.0382
 1021YOPC   C4A14746  16.504  12.022   7.403 -0.0897  0.2862 -0.1251
 1021YOPC   C1B14747  16.207  11.615   6.409  0.1028 -0.1052  0.1436
 1021YOPC   C2B14748  15.896  11.630   6.804  0.3272  0.1551 -0.1195
 1021YOPC   D3B14749  15.515  11.533   6.704 -0.0016  0.1866  0.0752
 1021YOPC   C4B14750  15.197  11.173   6.598  0.0546  0.1077 -0.1443
 1022YOPC   NC314751   5.336   6.327   4.676  0.1475 -0.3135 -0.2254
 1022YOPC   PO414752   5.225   6.501   5.064  0.0916 -0.1577  0.2240
 1022YOPC   GL114753   5.174   6.355   5.427  0.0653  0.1493 -0.2797
 1022YOPC   GL214754   5.486   6.159   5.593  0.0891  0.2043  0.1640
 1022YOPC   C1A14755   4.958   6.140   5.740  0.2141  0.2051 -0.0729
 1022YOPC   D2A14756   4.667   6.191   6.055 -0.0932 -0.0208  0.0298
 1022YOPC   C3A14757   4.456   6.203   6.427 -0.1413  0.0352  0.2612
 1022YOPC   C4A14758   4.252   6.310   6.755 -0.0096 -0.0701 -0.1718
 1022YOPC   C1B14759   5.386   6.027   5.953 -0.1392 -0.0439 -0.1462
 1022YOPC   C2B14760   5.493   6.104   6.313  0.1824  0.2390 -0.0202
 1022YOPC   D3B14761   5.383   5.743   6.516  0.0993  0.0491  0.2952
 1022YOPC   C4B14762   5.389   5.748   6.837 -0.1537  0.1257 -0.1136
 1023YOPC   NC314763   1.775   3.281   5.729 -0.2049  0.1063  0.2236
 1023YOPC   PO414764   2.095   2.947   5.880  0.2775  0.2498 -0.0216
 1023YOPC   GL114765   2.108   3.340   6.057  0.0491 -0.0745 -0.0726
 1023YOPC   GL214766   2.036   3.215   6.360 -0.1538  0.2536  0.3585
 1023YOPC   C1A14767   1.884   3.642   6.468  0.1170 -0.1104 -0.0475
 1023YOPC   D2A14768   1.728   3.561   6.956 -0.1872  0.1613  0.0459
 1023YOPC   C3A14769   1.361   3.646   7.103 -0.3576  0.2590  0.6365
 1023YOPC   C4A14770   1.232   3.774   7.503 -0.0051 -0.2292 -0.3670
 1023YOPC   C1B14771   2.240   2.869   6.587 -0.1696 -0.5952 -0.1385
 1023YOPC   C2B14772   2.180   2.618   6.941 -0.2539 -0.2023  0.1012
 1023YOPC   D3B14773   2.507   2.478   7.256  0.0173  0.2174  0.3258
 1023YOPC   C4B14774   2.919   2.467   7.308 -0.1404  0.0513 -0.0887
 1024YOPC   NC314775   2.260   4.452   5.380 -0.1421 -0.0518  0.0295
 1024YOPC   PO414776   2.763   4.549   5.577 -0.3452 -0.2870  0.1283
 1024YOPC   GL114777   2.559   4.532   5.976 -0.0365  0.0299 -0.1140
 1024YOPC   GL214778   2.786   4.725   6.240  0.0986 -0.0432  0.0542
 1024YOPC   C1A14779   2.216   4.462   6.229 -0.1361  0.1124 -0.1999
 1024YOPC   D2A14780   2.029   4.484   6.603 -0.2800 -0.0667  0.0565
 1024YOPC   C3A14781   2.078   4.542   7.019 -0.0125  0.1024 -0.1128
 1024YOPC   C4A14782   2.262   4.683   7.269 -0.3271 -0.1188 -0.0316
 1024YOPC   C1B14783   2.835   5.105   6.353 -0.1353  0.2302  0.1351
 1024YOPC   C2B14784   3.270   5.261   6.383  0.0668  0.0243 -0.0697
 1024YOPC   D3B14785   3.354   5.413   6.715  0.0583  0.0385  0.0171
 1024YOPC   C4B14786   3.600   5.593   7.010  0.1096 -0.3532  0.0589
 1025YOPC   NC314787  15.600   1.287   5.201 -0.0893  0.0403  0.2916
 1025YOPC   PO414788  15.541   0.756   5.092  0.1556  0.1900  0.0594
 1025YOPC   GL114789  15.489   0.838   5.585 -0.0399 -0.4600 -0.2336
 1025YOPC   GL214790  15.260   1.142   5.591 -0.0710 -0.0349 -0.1709
 1025YOPC   C1A14791  15.584   0.570   5.946 -0.0142 -0.1381 -0.1810
 1025YOPC   D2A14792  15.472   0.171   6.171 -0.0117 -0.0822 -0.2897
 1025YOPC   C3A14793  15.284   0.272   6.489 -0.0569  0.3645 -0.1464
 1025YOPC   C4A14794  15.281   0.550   6.823  0.1330 -0.0753 -0.2726
 1025YOPC   C1B14795  15.157   0.936   5.914  0.3406  0.0039 -0.1710
 1025YOPC   C2B14796  15.065   0.583   6.147  0.1401 -0.1138 -0.0156
 1025YOPC   D3B14797  14.816   0.489   6.569 -0.3036  0.0959 -0.2351
 1025YOPC   C4B14798  14.749   0.522   7.037  0.1718 -0.0376 -0.0193
 1026YOPC   NC314799  13.206   5.349   5.126  0.2825 -0.0379  0.0770
 1026YOPC   PO414800  13.659   5.139   5.209 -0.1181 -0.3205 -0.0545
 1026YOPC   GL114801  13.621   5.035   5.608  0.2082  0.0130 -0.0095
 1026YOPC   GL214802  13.348   4.895   5.837  0.2426  0.1466 -0.4264
 1026YOPC   C1A14803  13.835   5.294   5.920 -0.0309  0.1140  0.1149
 1026YOPC   D2A14804  14.157   5.624   6.061 -0.0997 -0.1879  0.1605
 1026YOPC   C3A14805  14.217   5.660   6.459  0.0302  0.0743 -0.0570
 1026YOPC   C4A14806  14.263   5.469   6.892 -0.1579 -0.0005  0.0184
 1026YOPC   C1B14807  13.531   4.701   6.199 -0.1724 -0.1989  0.2296
 1026YOPC   C2B14808  13.800   4.644   6.574 -0.0969 -0.0676  0.2511
 1026YOPC   D3B14809  14.199   4.717   6.616 -0.1075  0.0242 -0.1682
 1026YOPC   C4B14810  14.647   4.754   6.561 -0.0732 -0.0201 -0.0900
 1027YOPC   NC314811   3.527  13.888   5.356 -0.2223  0.0805 -0.2228
 1027YOPC   PO414812   3.938  13.723   5.322 -0.1119 -0.0811  0.4259
 1027YOPC   GL114813   4.209  13.716   5.658  0.0248 -0.0068  0.1002
 1027YOPC   GL214814   4.377  13.937   5.794 -0.0725  0.2629 -0.0087
 1027YOPC   C1A14815   4.386  13.478   5.977 -0.3394 -0.3019 -0.1603
 1027YOPC   D2A14816   4.741  13.366   6.371  0.1022 -0.0717  0.0171
 1027YOPC   C3A14817   4.791  13.552   6.829 -0.2212 -0.1751  0.3528
 1027YOPC   C4A14818   5.084  13.656   7.055 -0.1116 -0.2091 -0.1098
 1027YOPC   C1B14819   4.294  13.907   6.214 -0.0965 -0.2070 -0.2439
 1027YOPC   C2B14820   4.310  13.630   6.460 -0.2502 -0.1997  0.2882
 1027YOPC   D3B14821   4.277  13.720   6.909  0.4027 -0.0475 -0.1316
 1027YOPC   C4B14822   3.965  13.867   7.122 -0.2065  0.2271  0.2068
 1028YOPC   NC314823   5.558   1.232   5.889 -0.3338  0.0294 -0.0315
 1028YOPC   PO414824   5.532   1.502   5.563  0.1428 -0.2547 -0.3819
 1028YOPC   GL114825   5.757   1.768   5.790  0.2743 -0.0891 -0.2286
 1028YOPC   GL214826   5.765   2.111   5.693  0.4333  0.2469 -0.3902
 1028YOPC   C1A14827   5.814   1.842   6.240  0.1483  0.2024  0.1613
 1028YOPC   D2A14828   5.685   2.101   6.551  0.1371 -0.1180 -0.2037
 1028YOPC   C3A14829   5.321   1.928   6.923  0.1697  0.0376  0.1263
 1028YOPC   C4A14830   4.872   1.941   7.107 -0.2495 -0.0598  0.0758
 1028YOPC   C1B14831   5.684   2.386   6.114  0.1257  0.3818  0.2162
 1028YOPC   C2B14832   5.514   2.561   6.583 -0.2119 -0.1465 -0.0466
 1028YOPC   D3B14833   5.634   2.333   7.000 -0.0450  0.1389 -0.0692
 1028YOPC   C4B14834   6.091   2.175   7.240 -0.1419 -0.0041  0.0988
 1029YOPC   NC314835   4.475   8.696   4.760  0.1092 -0.4355 -0.1670
 1029YOPC   PO414836   4.798   8.928   5.050 -0.2215  0.3396  0.1601
 1029YOPC   GL114837   4.756   9.093   5.460 -0.0250 -0.0618  0.3699
 1029YOPC   GL214838   4.625   9.270   5.542 -0.0259 -0.2396  0.1412
 1029YOPC   C1A14839   4.716   8.880   5.915  0.2205  0.1658 -0.4248
 1029YOPC   D2A14840   4.786   8.974   6.344 -0.1021  0.0205 -0.1673
 1029YOPC   C3A14841   4.572   9.195   6.557 -0.1628 -0.0377  0.1546
 1029YOPC   C4A14842   4.895   9.311   6.915 -0.1491 -0.0028 -0.1289
 1029YOPC   C1B14843   4.604   9.436   6.013 -0.0072 -0.0006 -0.2241
 1029YOPC   C2B14844   4.856   9.564   6.321 -0.1720 -0.1494  0.2458
 1029YOPC   D3B14845   4.805   9.775   6.619  0.0628  0.2504  0.0546
 1029YOPC   C4B14846   5.147   9.940   6.928  0.1204 -0.1982 -0.2797
 1030YOPC   NC314847   2.592   0.394   5.534  0.4099  0.0229  0.2016
 1030YOPC   PO414848   2.508   0.584   5.937  0.2749 -0.1220 -0.0580
 1030YOPC   GL114849   2.749   0.537   6.293 -0.0936  0.2589 -0.0825
 1030YOPC   GL214850   2.851   0.755   6.500  0.0517 -0.0061 -0.1296
 1030YOPC   C1A14851   2.649   0.247   6.624  0.0266 -0.0701  0.3154
 1030YOPC   D2A14852   2.612  -0.133   6.856  0.0462  0.1618  0.2582
 1030YOPC   C3A14853   2.635  -0.005   7.329 -0.0214  0.0167  0.0919
 1030YOPC   C4A14854   2.503   0.318   7.523 -0.2786  0.1650  0.0142
 1030YOPC   C1B14855   3.011   1.013   6.884  0.1296 -0.0732 -0.1652
 1030YOPC   C2B14856   3.323   1.315   6.986  0.0908 -0.0229 -0.2872
 1030YOPC   D3B14857   3.108   1.621   7.187 -0.0380 -0.1667 -0.0852
 1030YOPC   C4B14858   3.089   2.048   7.127 -0.1116 -0.1796  0.0436
 1031YOPC   NC314859   7.703  10.141   5.441 -0.0641  0.1785 -0.0685
 1031YOPC   PO414860   7.898  10.630   5.546 -0.1747  0.3274  0.1910
 1031YOPC   GL114861   7.803  10.470   5.922 -0.2834  0.0566 -0.0500
 1031YOPC   GL214862   7.861  10.112   5.950  0.0919 -0.0383  0.3330
 1031YOPC   C1A14863   8.006  10.387   6.357 -0.3019 -0.1723 -0.0564
 1031YOPC   D2A14864   8.302  10.533   6.632 -0.0456  0.0988  0.0294
 1031YOPC   C3A14865   8.227  10.818   6.991  0.1803  0.0850 -0.1339
 1031YOPC   C4A14866   8.197  10.942   7.413  0.2432  0.0690 -0.1016
 1031YOPC   C1B14867   7.622  10.047   6.259  0.0354  0.0955  0.5024
 1031YOPC   C2B14868   7.572  10.221   6.624  0.2669 -0.2347 -0.2985
 1031YOPC   D3B14869   7.830  10.570   6.756  0.4223 -0.3477 -0.2802
 1031YOPC   C4B14870   7.778  10.881   6.831 -0.1148 -0.1884  0.0437
 1032YOPC   NC314871   8.768   4.621   4.396 -0.0369 -0.0221  0.0145
 1032YOPC   PO414872   8.724   4.525   4.833 -0.1457 -0.0464  0.1235
 1032YOPC   GL114873   8.977   4.591   5.274  0.0494 -0.0948 -0.0392
 1032YOPC   GL214874   9.277   4.708   5.425 -0.4169  0.2530  0.2201
 1032YOPC   C1A14875   8.863   4.495   5.672 -0.2748  0.2535 -0.3163
 1032YOPC   D2A14876   8.576   4.238   5.798  0.1222 -0.3773  0.3334
 1032YOPC   C3A14877   8.511   4.344   6.161 -0.0363 -0.0117 -0.0251
 1032YOPC   C4A14878   8.340   4.543   6.501  0.1182 -0.0809 -0.1032
 1032YOPC   C1B14879   9.564   4.631   5.818 -0.1337  0.1025  0.0882
 1032YOPC   C2B14880  10.043   4.587   6.091 -0.0861  0.2160 -0.3020
 1032YOPC   D3B14881  10.138   4.898   6.310  0.0738  0.0239 -0.0968
 1032YOPC   C4B14882  10.188   5.296   6.637 -0.0471 -0.0327 -0.0503
 1033YOPC   NC314883  17.189   4.138   5.200 -0.0850  0.1756 -0.1476
 1033YOPC   PO414884  17.046   4.462   5.155  0.1358 -0.0804  0.1698
 1033YOPC   GL114885  17.166   4.414   5.594 -0.0610  0.0429  0.2231
 1033YOPC   GL214886  17.105   4.787   5.655 -0.0461 -0.0104  0.1703
 1033YOPC   C1A14887  17.171   4.170   5.961  0.1779  0.2013 -0.5380
 1033YOPC   D2A14888  17.309   4.126   6.349  0.2512  0.0344  0.1360
 1033YOPC   C3A14889  17.320   4.457   6.679  0.0016  0.2493 -0.2255
 1033YOPC   C4A14890  17.306   4.795   6.964 -0.0880 -0.0746  0.1739
 1033YOPC   C1B14891  17.120   4.895   6.209 -0.3271 -0.0868 -0.3626
 1033YOPC   C2B14892  17.205   5.280   6.440  0.0527 -0.0634 -0.0410
 1033YOPC   D3B14893  17.480   5.627   6.534  0.1885 -0.0297 -0.1180
 1033YOPC   C4B14894  17.346   6.092   6.535  0.0698 -0.0089 -0.1776
 1034YOPC   NC314895   1.071   3.151   4.919  0.0887 -0.0988 -0.2750
 1034YOPC   PO414896   1.073   3.439   5.419 -0.0795 -0.0300 -0.3409
 1034YOPC   GL114897   1.008   3.714   5.815 -0.1013  0.0226  0.2984
 1034YOPC   GL214898   1.191   3.884   5.842 -0.1259  0.2912 -0.2253
 1034YOPC   C1A14899   0.911   3.694   6.178  0.1599  0.1013  0.2329
 1034YOPC   D2A14900   0.729   3.832   6.452 -0.2473  0.1108  0.2377
 1034YOPC   C3A14901   0.991   3.972   6.908  0.1367  0.2552  0.2550
 1034YOPC   C4A14902   1.127   4.187   7.300  0.4409  0.1843  0.0015
 1034YOPC   C1B14903   1.375   3.890   6.181  0.0541 -0.0624  0.1813
 1034YOPC   C2B14904   1.253   3.647   6.478 -0.1040 -0.0762 -0.1593
 1034YOPC   D3B14905   1.420   3.258   6.579 -0.2473  0.0995  0.1662
 1034YOPC   C4B14906   1.279   2.925   6.340  0.3468  0.0721 -0.0857
 1035YOPC   NC314907  15.451  13.736   4.663  0.2629  0.0237  0.2711
 1035YOPC   PO414908  15.544  13.835   5.071 -0.5415  0.0477  0.0089
 1035YOPC   GL114909  15.597  14.008   5.466  0.1796 -0.0404 -0.1737
 1035YOPC   GL214910  15.798  13.864   5.775  0.0316  0.2341  0.2206
 1035YOPC   C1A14911  15.418  14.120   5.896  0.0315 -0.0937 -0.3746
 1035YOPC   D2A14912  15.189  14.071   6.268 -0.0885  0.1841 -0.3243
 1035YOPC   C3A14913  15.033  13.936   6.688 -0.0112  0.2947  0.3218
 1035YOPC   C4A14914  14.988  14.142   7.115  0.3716  0.1657  0.0768
 1035YOPC   C1B14915  15.746  13.669   6.096  0.0630 -0.0269 -0.2890
 1035YOPC   C2B14916  15.613  13.240   6.231 -0.0532 -0.3000  0.1331
 1035YOPC   D3B14917  15.681  13.097   6.629 -0.0959 -0.0781 -0.0694
 1035YOPC   C4B14918  15.897  13.250   6.982 -0.1244 -0.4690 -0.0374
 1036YOPC   NC314919  12.355   7.708   4.889  0.2239  0.1075 -0.1418
 1036YOPC   PO414920  12.522   7.685   5.349  0.1436 -0.0059  0.0305
 1036YOPC   GL114921  12.762   7.606   5.817  0.2192  0.2412  0.0379
 1036YOPC   GL214922  12.562   7.411   6.078  0.2508 -0.2276 -0.0322
 1036YOPC   C1A14923  13.061   7.483   6.099  0.3090 -0.0164  0.0729
 1036YOPC   D2A14924  13.248   7.517   6.468  0.2906 -0.1846  0.0221
 1036YOPC   C3A14925  12.979   7.553   6.766  0.0166  0.2214 -0.0514
 1036YOPC   C4A14926  12.510   7.538   7.009 -0.0967  0.0068 -0.0821
 1036YOPC   C1B14927  12.544   7.673   6.432 -0.1334 -0.0697 -0.0169
 1036YOPC   C2B14928  12.281   7.993   6.613 -0.0864 -0.2927 -0.0057
 1036YOPC   D3B14929  12.414   8.049   7.080  0.2935  0.1798  0.0829
 1036YOPC   C4B14930  12.705   8.240   7.412 -0.1978  0.0330 -0.2638
 1037YOPC   NC314931   4.638  10.644   4.905  0.1290  0.0121  0.1505
 1037YOPC   PO414932   4.165  10.573   4.901 -0.0968 -0.0665 -0.0595
 1037YOPC   GL114933   3.930  10.542   5.241 -0.1719  0.0697 -0.4298
 1037YOPC   GL214934   3.607  10.491   5.254 -0.0783 -0.0759  0.1105
 1037YOPC   C1A14935   3.933  10.460   5.770  0.0172 -0.2786  0.3028
 1037YOPC   D2A14936   3.667  10.598   6.065  0.1222 -0.0968  0.0079
 1037YOPC   C3A14937   3.296  10.775   5.895  0.0115 -0.0006 -0.2363
 1037YOPC   C4A14938   3.308  11.128   5.520  0.1441  0.1378 -0.4762
 1037YOPC   C1B14939   3.215  10.605   5.439 -0.0225  0.2934 -0.0168
 1037YOPC   C2B14940   2.855  10.607   5.671 -0.2224  0.2094 -0.1419
 1037YOPC   D3B14941   2.655  10.685   6.050  0.2833 -0.0199  0.0400
 1037YOPC   C4B14942   2.266  10.646   6.269  0.0699  0.1795 -0.0036
 1038YOPC   NC314943  13.913  19.084   5.030  0.2629 -0.1082 -0.2482
 1038YOPC   PO414944  13.509  19.265   5.245  0.5558  0.0486  0.3541
 1038YOPC   GL114945  13.350  19.457   5.696 -0.1856 -0.2748 -0.2774
 1038YOPC   GL214946  13.369  19.770   5.780  0.2248 -0.1338  0.3859
 1038YOPC   C1A14947  13.309  19.475   6.177 -0.2116  0.1242 -0.0209
 1038YOPC   D2A14948  13.222  19.683   6.670 -0.0734 -0.0500 -0.1262
 1038YOPC   C3A14949  13.367  19.898   7.049  0.0616 -0.1061  0.0159
 1038YOPC   C4A14950  13.607  20.091   7.512 -0.0063  0.3252 -0.2232
 1038YOPC   C1B14951  13.871  19.802   5.829 -0.1970 -0.1687 -0.4761
 1038YOPC   C2B14952  14.382  19.967   5.901 -0.0366 -0.1145 -0.4066
 1038YOPC   D3B14953  14.701  19.610   5.809  0.1853 -0.0370 -0.2087
 1038YOPC   C4B14954  15.127  19.614   5.641  0.1001  0.3454 -0.2741
 1039YOPC   NC314955  17.566  15.745   5.351 -0.1798 -0.1338 -0.1818
 1039YOPC   PO414956  17.711  15.296   5.504  0.0133  0.0117  0.1067
 1039YOPC   GL114957  17.585  15.171   5.901 -0.0067 -0.3633 -0.2012
 1039YOPC   GL214958  17.795  14.998   6.091 -0.0666 -0.0533  0.2263
 1039YOPC   C1A14959  17.354  15.278   6.226 -0.3044 -0.3165 -0.1904
 1039YOPC   D2A14960  17.232  15.449   6.583 -0.0967  0.0214  0.0638
 1039YOPC   C3A14961  17.334  15.591   6.990 -0.1743  0.2094 -0.3506
 1039YOPC   C4A14962  17.267  15.654   7.388 -0.0579 -0.0846  0.1113
 1039YOPC   C1B14963  17.737  14.979   6.498 -0.1111  0.1439 -0.2124
 1039YOPC   C2B14964  17.292  14.978   6.773 -0.1568 -0.1498  0.3252
 1039YOPC   D3B14965  17.054  15.094   7.139  0.1177  0.1346 -0.1251
 1039YOPC   C4B14966  17.116  14.845   7.462 -0.0305  0.1311 -0.0784
 1040YOPC   NC314967   6.416  16.579   5.672  0.3378 -0.3660 -0.1733
 1040YOPC   PO414968   6.723  16.854   5.565  0.2489  0.2009  0.4247
 1040YOPC   GL114969   6.670  16.960   5.984  0.1145 -0.2041  0.1630
 1040YOPC   GL214970   6.355  16.881   6.050  0.2458 -0.1737  0.1960
 1040YOPC   C1A14971   6.892  17.090   6.382  0.2607  0.0858 -0.1923
 1040YOPC   D2A14972   7.105  17.087   6.767 -0.0284 -0.0947 -0.0770
 1040YOPC   C3A14973   7.313  17.017   7.131  0.2051 -0.4098 -0.1775
 1040YOPC   C4A14974   7.298  16.863   7.522 -0.3997  0.2005 -0.1079
 1040YOPC   C1B14975   6.429  17.017   6.489 -0.0279  0.0165  0.2077
 1040YOPC   C2B14976   6.410  17.050   6.850  0.0620 -0.1521 -0.0234
 1040YOPC   D3B14977   6.734  16.887   7.091 -0.1030  0.0024  0.2662
 1040YOPC   C4B14978   6.891  16.604   7.452  0.2184 -0.3499 -0.2175
 1041YOPC   NC314979  13.936   9.092   5.427  0.0584  0.0195  0.0535
 1041YOPC   PO414980  14.391   9.018   5.619  0.0452 -0.0893  0.2060
 1041YOPC   GL114981  14.446   8.786   5.910 -0.2337 -0.2270  0.2692
 1041YOPC   GL214982  14.221   8.492   6.151 -0.3955  0.2385  0.3870
 1041YOPC   C1A14983  14.632   8.727   6.235 -0.1463 -0.0495  0.1796
 1041YOPC   D2A14984  14.897   8.507   6.447 -0.0434 -0.1948  0.1185
 1041YOPC   C3A14985  14.846   8.377   6.854 -0.1717  0.0698  0.0479
 1041YOPC   C4A14986  14.677   8.046   7.043 -0.0239  0.4339  0.0702
 1041YOPC   C1B14987  13.725   8.454   6.302  0.0754  0.1994  0.0793
 1041YOPC   C2B14988  13.267   8.480   6.268  0.0894 -0.1296 -0.1204
 1041YOPC   D3B14989  12.944   8.666   6.551  0.0085  0.2545  0.1260
 1041YOPC   C4B14990  12.548   8.974   6.489 -0.1067 -0.0452 -0.0231
 1042YOPC   NC314991   6.381  17.797   5.160 -0.0240  0.2719 -0.1185
 1042YOPC   PO414992   6.667  17.513   5.289 -0.1558  0.2449 -0.2084
 1042YOPC   GL114993   6.765  17.563   5.701 -0.1093  0.4016  0.0114
 1042YOPC   GL214994   6.994  17.290   5.817  0.1182  0.0205  0.1057
 1042YOPC   C1A14995   6.648  17.482   6.118 -0.0247 -0.0952 -0.1648
 1042YOPC   D2A14996   6.652  17.686   6.491 -0.0583  0.1242  0.2699
 1042YOPC   C3A14997   6.778  17.446   6.848  0.0472  0.2178 -0.2044
 1042YOPC   C4A14998   6.889  17.329   7.289 -0.0079 -0.1470 -0.2593
 1042YOPC   C1B14999   7.278  17.362   5.989  0.0997 -0.1981 -0.0750
 1042YOPC   C2B15000   7.579  17.228   6.171  0.0990  0.1531 -0.0631
 1042YOPC   D3B15001   7.900  17.047   6.424 -0.1935  0.1603 -0.0447
 1042YOPC   C4B15002   8.313  16.830   6.389  0.1223  0.0945 -0.0382
 1043YOPC   NC315003   7.648  13.606   4.528 -0.0184 -0.1111 -0.0725
 1043YOPC   PO415004   7.810  13.377   4.894  0.0614 -0.1557 -0.1183
 1043YOPC   GL115005   7.588  13.470   5.317 -0.3597 -0.1417 -0.0870
 1043YOPC   GL215006   7.430  13.236   5.484  0.2630 -0.1187  0.0278
 1043YOPC   C1A15007   7.616  13.556   5.850  0.0516  0.3246 -0.1531
 1043YOPC   D2A15008   7.515  13.495   6.291 -0.0302 -0.0757  0.0371
 1043YOPC   C3A15009   7.374  13.140   6.550  0.0776  0.1593  0.1507
 1043YOPC   C4A15010   7.168  12.799   6.702 -0.0581  0.4996 -0.4596
 1043YOPC   C1B15011   7.701  13.051   5.727  0.0789  0.1815 -0.2439
 1043YOPC   C2B15012   7.619  12.989   6.186 -0.0047  0.0067  0.1287
 1043YOPC   D3B15013   7.611  12.686   6.533 -0.0106 -0.1417 -0.2119
 1043YOPC   C4B15014   7.667  12.509   6.923  0.1200 -0.0938 -0.2399
 1044YOPC   NC315015   3.991   7.584   5.087  0.0923 -0.1587  0.1860
 1044YOPC   PO415016   3.714   7.868   5.141  0.2649  0.0420 -0.2643
 1044YOPC   GL115017   3.601   7.525   5.433 -0.1461 -0.1101 -0.2718
 1044YOPC   GL215018   3.414   7.645   5.637  0.2984 -0.0488  0.0410
 1044YOPC   C1A15019   3.870   7.493   5.817  0.1815 -0.2508  0.0667
 1044YOPC   D2A15020   4.052   7.406   6.254 -0.3079  0.2551  0.2502
 1044YOPC   C3A15021   4.115   7.273   6.777 -0.1679 -0.1863 -0.0183
 1044YOPC   C4A15022   3.701   7.423   6.920 -0.2732 -0.2671 -0.1992
 1044YOPC   C1B15023   3.412   7.463   6.077 -0.0475 -0.2938 -0.2492
 1044YOPC   C2B15024   3.669   7.183   6.457 -0.2230 -0.0425  0.0866
 1044YOPC   D3B15025   3.465   6.795   6.661 -0.2331  0.1269  0.0073
 1044YOPC   C4B15026   3.254   6.436   6.878  0.1866 -0.0337  0.0474
 1045YOPC   NC315027   4.060   6.172   4.814  0.0328 -0.1851  0.1372
 1045YOPC   PO415028   3.908   6.500   5.024  0.0528  0.1577 -0.0438
 1045YOPC   GL115029   3.998   6.498   5.419  0.0123 -0.0894 -0.0289
 1045YOPC   GL215030   3.958   6.217   5.610  0.3090  0.0971 -0.1204
 1045YOPC   C1A15031   4.377   6.515   5.655  0.2273 -0.0551  0.1576
 1045YOPC   D2A15032   4.771   6.688   5.735 -0.2942 -0.0670 -0.3722
 1045YOPC   C3A15033   5.066   6.498   6.123 -0.3838  0.1026 -0.2743
 1045YOPC   C4A15034   5.281   6.465   6.559 -0.0472 -0.0121 -0.0595
 1045YOPC   C1B15035   4.078   6.379   6.004 -0.0488  0.1140 -0.1880
 1045YOPC   C2B15036   4.041   6.814   6.360 -0.2016 -0.0693 -0.0774
 1045YOPC   D3B15037   4.445   7.079   6.436 -0.0735 -0.2098  0.0624
 1045YOPC   C4B15038   4.933   6.984   6.160 -0.1222  0.0159 -0.3358
 1046YOPC   NC315039   7.972   4.771   4.897  0.1222  0.0105  0.1682
 1046YOPC   PO415040   7.954   4.858   5.366  0.1727  0.0711  0.1133
 1046YOPC   GL115041   7.843   4.945   5.759 -0.1800  0.0943  0.2402
 1046YOPC   GL215042   7.636   4.820   5.809  0.0007 -0.1156  0.1988
 1046YOPC   C1A15043   7.972   4.775   6.234 -0.3878  0.0689 -0.1230
 1046YOPC   D2A15044   7.956   4.934   6.735 -0.0734 -0.1382  0.0951
 1046YOPC   C3A15045   8.105   4.554   6.942 -0.2979 -0.1424  0.1342
 1046YOPC   C4A15046   8.335   4.334   7.222 -0.2508 -0.1535 -0.0838
 1046YOPC   C1B15047   7.404   4.928   6.202  0.1000  0.3826 -0.0115
 1046YOPC   C2B15048   7.392   5.008   6.600 -0.1222  0.0982  0.0780
 1046YOPC   D3B15049   7.595   5.119   7.057 -0.0983  0.2997 -0.2277
 1046YOPC   C4B15050   7.512   5.298   7.456  0.4512  0.1137 -0.2208
 1047YOPC   NC315051  16.443  17.544   5.419 -0.2574  0.3246  0.2048
 1047YOPC   PO415052  16.827  17.503   5.587 -0.2997 -0.1287 -0.0762
 1047YOPC   GL115053  16.555  17.555   5.974  0.2534  0.1723  0.2722
 1047YOPC   GL215054  16.288  17.445   6.041  0.2276 -0.2921  0.0026
 1047YOPC   C1A15055  16.352  17.872   6.306  0.0309 -0.2604 -0.0500
 1047YOPC   D2A15056  16.391  17.964   6.750  0.1110 -0.1139  0.2500
 1047YOPC   C3A15057  16.690  17.882   6.750 -0.2368  0.1505  0.0861
 1047YOPC   C4A15058  16.929  17.786   7.145  0.1758  0.1077  0.1886
 1047YOPC   C1B15059  16.493  17.387   6.434  0.0989 -0.1456 -0.1210
 1047YOPC   C2B15060  16.590  17.405   6.864 -0.2691 -0.2451 -0.0712
 1047YOPC   D3B15061  16.923  17.266   7.087 -0.2296  0.0287 -0.1851
 1047YOPC   C4B15062  17.241  17.202   7.431 -0.2502  0.0751  0.0962
 1048YOPC   NC315063   0.744  16.756   5.544  0.1441 -0.1348  0.0199
 1048YOPC   PO415064   0.917  16.364   5.713 -0.0292  0.0360  0.1123
 1048YOPC   GL115065   0.935  16.196   6.165  0.1933 -0.1881  0.1187
 1048YOPC   GL215066   0.793  15.932   6.153 -0.0630 -0.1686 -0.1160
 1048YOPC   C1A15067   1.113  16.033   6.545  0.1519 -0.1359  0.2109
 1048YOPC   D2A15068   1.032  16.135   6.938 -0.2272 -0.1022 -0.1063
 1048YOPC   C3A15069   1.316  15.945   7.232 -0.2134 -0.1130  0.0936
 1048YOPC   C4A15070   1.804  15.856   7.420 -0.3341  0.3530 -0.2838
 1048YOPC   C1B15071   0.533  16.032   6.516 -0.0002 -0.2118  0.1239
 1048YOPC   C2B15072   0.601  15.928   7.022  0.2989  0.2817  0.1810
 1048YOPC   D3B15073   0.729  16.299   7.310  0.1041  0.3972  0.2644
 1048YOPC   C4B15074   1.169  16.328   7.453  0.1078 -0.0853 -0.0738
 1049YOPC   NC315075  17.699   2.502   5.494 -0.0093  0.1574 -0.0674
 1049YOPC   PO415076  17.827   2.567   5.816  0.0362 -0.1981  0.0334
 1049YOPC   GL115077  17.605   2.662   6.150 -0.0870  0.1494 -0.5658
 1049YOPC   GL215078  17.876   2.752   6.442 -0.2088  0.1320 -0.0158
 1049YOPC   C1A15079  17.372   2.683   6.453  0.1705 -0.1308  0.0698
 1049YOPC   D2A15080  17.498   2.536   6.908 -0.0112 -0.1239 -0.1562
 1049YOPC   C3A15081  17.824   2.215   7.007 -0.0797  0.1085 -0.5203
 1049YOPC   C4A15082  17.982   2.063   7.439 -0.0930 -0.1974  0.0803
 1049YOPC   C1B15083  18.125   2.511   6.718  0.1456  0.1888  0.2624
 1049YOPC   C2B15084  18.298   2.391   7.049 -0.0073  0.0187 -0.0150
 1049YOPC   D3B15085  18.361   2.010   7.113 -0.0793 -0.0837 -0.2955
 1049YOPC   C4B15086  18.327   1.584   7.140 -0.0197  0.0720 -0.1564
 1050YOPC   NC315087  16.277   1.991   5.068 -0.1465 -0.1585 -0.0013
 1050YOPC   PO415088  16.762   2.086   5.167 -0.1248 -0.3158  0.1014
 1050YOPC   GL115089  16.350   2.151   5.546  0.1907  0.1306  0.2343
 1050YOPC   GL215090  16.154   2.408   5.667  0.0388 -0.1291  0.1949
 1050YOPC   C1A15091  16.300   2.083   6.024 -0.1238  0.1243  0.1036
 1050YOPC   D2A15092  15.982   2.307   6.242  0.0117  0.2836  0.2507
 1050YOPC   C3A15093  15.982   2.430   6.538  0.0838  0.1382  0.0713
 1050YOPC   C4A15094  16.051   2.607   6.885  0.3773  0.0335  0.1971
 1050YOPC   C1B15095  16.093   2.765   5.905 -0.3255  0.1871  0.4207
 1050YOPC   C2B15096  16.183   2.936   6.336  0.1208 -0.1144 -0.0659
 1050YOPC   D3B15097  16.403   3.281   6.337 -0.2555 -0.2472 -0.1947
 1050YOPC   C4B15098  16.822   3.328   6.127 -0.2405  0.0830 -0.0255
 1051YOPC   NC315099   9.342   2.885   5.361 -0.0567  0.0376 -0.0208
 1051YOPC   PO415100   8.912   2.647   5.188 -0.0997 -0.0352 -0.3416
 1051YOPC   GL115101   9.042   2.422   5.524 -0.1446  0.0260 -0.0166
 1051YOPC   GL215102   8.853   2.180   5.708  0.0165  0.2126  0.2203
 1051YOPC   C1A15103   9.382   2.295   5.891 -0.1412 -0.1606  0.1032
 1051YOPC   D2A15104   9.792   2.465   6.159  0.3516 -0.0437  0.0218
 1051YOPC   C3A15105   9.678   2.700   6.553 -0.1195  0.2684 -0.2266
 1051YOPC   C4A15106   9.727   2.856   6.968  0.2660  0.2416  0.2685
 1051YOPC   C1B15107   8.896   2.362   6.027 -0.1490 -0.0985 -0.1142
 1051YOPC   C2B15108   9.219   2.498   6.392 -0.1357  0.2362  0.2416
 1051YOPC   D3B15109   9.359   2.302   6.675 -0.0932 -0.2194  0.0789
 1051YOPC   C4B15110   9.514   2.296   7.023 -0.1092 -0.0483  0.0831
 1052YOPC   NC315111   2.714  18.167   5.577 -0.0879 -0.1424  0.0007
 1052YOPC   PO415112   2.272  18.425   5.492  0.2490  0.4602  0.2154
 1052YOPC   GL115113   2.383  18.381   5.874 -0.1212  0.1912 -0.2881
 1052YOPC   GL215114   2.183  18.313   6.162  0.3462 -0.1535 -0.1015
 1052YOPC   C1A15115   2.604  18.696   6.121 -0.0690  0.2975  0.0367
 1052YOPC   D2A15116   2.425  18.805   6.499 -0.0935 -0.1846 -0.4378
 1052YOPC   C3A15117   2.406  18.578   6.738 -0.0214 -0.0255 -0.1211
 1052YOPC   C4A15118   2.248  18.213   6.947 -0.0781 -0.2552  0.0785
 1052YOPC   C1B15119   2.361  18.150   6.459 -0.0848  0.0942 -0.0166
 1052YOPC   C2B15120   2.653  18.044   6.694 -0.0440  0.0173 -0.1532
 1052YOPC   D3B15121   2.751  17.637   6.784  0.2184 -0.1651 -0.1902
 1052YOPC   C4B15122   2.991  17.549   7.192 -0.2353  0.0680  0.0238
 1053YOPC   NC315123   0.351   2.217   5.593  0.0690  0.1151 -0.0401
 1053YOPC   PO415124   0.474   2.582   5.805 -0.3743  0.3972  0.3129
 1053YOPC   GL115125   0.815   2.606   6.074  0.1903 -0.2286  0.1798
 1053YOPC   GL215126   0.518   2.647   6.298 -0.0540  0.1132 -0.2352
 1053YOPC   C1A15127   0.903   2.562   6.590 -0.3682  0.0333 -0.0704
 1053YOPC   D2A15128   0.887   2.567   6.955  0.1914  0.0874  0.1371
 1053YOPC   C3A15129   0.605   2.374   7.260  0.0693 -0.1569 -0.0941
 1053YOPC   C4A15130   0.572   2.235   7.638  0.1958  0.3330 -0.5675
 1053YOPC   C1B15131   0.487   2.739   6.789  0.1983 -0.0504 -0.1454
 1053YOPC   C2B15132   0.295   2.695   7.191 -0.1375  0.0861 -0.0503
 1053YOPC   D3B15133   0.306   3.106   7.403 -0.0811  0.1302 -0.2498
 1053YOPC   C4B15134   0.277   3.570   7.445  0.0275 -0.0580  0.1014
 1054YOPC   NC315135   1.542  15.206   5.203 -0.0976 -0.1243  0.0764
 1054YOPC   PO415136   1.953  15.449   5.402 -0.0367  0.0561 -0.0359
 1054YOPC   GL115137   2.001  15.331   5.803 -0.0819 -0.2016 -0.2373
 1054YOPC   GL215138   2.196  15.019   5.835  0.0662 -0.2725  0.1541
 1054YOPC   C1A15139   1.891  15.467   6.207  0.1447 -0.0329  0.2925
 1054YOPC   D2A15140   2.040  15.742   6.553 -0.2944  0.0181 -0.2289
 1054YOPC   C3A15141   2.442  15.760   6.661 -0.2274  0.3035 -0.0946
 1054YOPC   C4A15142   2.553  15.519   7.040 -0.0517 -0.0601 -0.0719
 1054YOPC   C1B15143   1.965  14.967   6.183 -0.1569 -0.2501  0.3834
 1054YOPC   C2B15144   1.815  15.101   6.613 -0.1943  0.0494 -0.0072
 1054YOPC   D3B15145   1.673  15.073   7.024  0.2178  0.0430 -0.1956
 1054YOPC   C4B15146   1.739  15.015   7.415 -0.1041  0.3790 -0.0975
 1055YOPC   NC315147  14.987  12.754   5.460  0.0251 -0.1032  0.1281
 1055YOPC   PO415148  14.891  13.169   5.566 -0.5066  0.0094  0.1310
 1055YOPC   GL115149  14.954  13.420   5.908  0.2518 -0.0448  0.0801
 1055YOPC   GL215150  15.192  13.276   5.989  0.0167 -0.1845 -0.1959
 1055YOPC   C1A15151  14.855  13.620   6.188  0.0334  0.0158  0.2299
 1055YOPC   D2A15152  14.663  13.572   6.502 -0.1340 -0.1621 -0.1698
 1055YOPC   C3A15153  14.580  13.794   6.840  0.0513  0.2427  0.0471
 1055YOPC   C4A15154  14.477  13.833   7.239 -0.0508 -0.2418  0.0702
 1055YOPC   C1B15155  15.195  13.397   6.479  0.3049  0.0267 -0.2119
 1055YOPC   C2B15156  14.965  13.425   6.827 -0.0257  0.0289  0.1307
 1055YOPC   D3B15157  15.014  13.657   7.164 -0.0554 -0.0676  0.0809
 1055YOPC   C4B15158  15.183  13.453   7.522 -0.3229 -0.1858 -0.1069
 1056YOPC   NC315159  18.919  10.475   4.963 -0.2891  0.2835 -0.3560
 1056YOPC   PO415160  18.730  10.887   4.948 -0.1932 -0.2071 -0.0429
 1056YOPC   GL115161  18.832  10.762   5.373 -0.0346 -0.1683  0.1250
 1056YOPC   GL215162  19.186  10.729   5.562 -0.0077  0.0365  0.1150
 1056YOPC   C1A15163  18.549  10.605   5.615  0.1712 -0.1286  0.1245
 1056YOPC   D2A15164  18.370  10.455   6.040 -0.1342 -0.1308  0.1036
 1056YOPC   C3A15165  18.182  10.605   6.280 -0.0844 -0.1638  0.1794
 1056YOPC   C4A15166  18.317  11.017   6.412  0.2562  0.3595  0.2180
 1056YOPC   C1B15167  19.360  10.388   5.720  0.1751 -0.2483 -0.1573
 1056YOPC   C2B15168  19.282  10.159   6.193 -0.0175  0.0623  0.0020
 1056YOPC   D3B15169  19.276  10.519   6.520  0.0763  0.1985  0.0861
 1056YOPC   C4B15170  19.416  10.686   6.949 -0.2306 -0.3827  0.1523
 1057YOPC   NC315171  14.127  14.485   5.397  0.0217  0.2515 -0.0088
 1057YOPC   PO415172  14.362  14.131   5.597  0.0491 -0.3251  0.4030
 1057YOPC   GL115173  14.497  13.953   5.930 -0.0707  0.0722  0.0334
 1057YOPC   GL215174  14.729  14.139   6.166  0.0442  0.0384 -0.1105
 1057YOPC   C1A15175  14.331  13.882   6.269 -0.1825 -0.0902  0.0617
 1057YOPC   D2A15176  14.135  13.848   6.547  0.0818  0.0563  0.0381
 1057YOPC   C3A15177  14.122  14.089   6.807 -0.2111 -0.0282 -0.0900
 1057YOPC   C4A15178  13.785  14.317   7.134 -0.1811 -0.1814 -0.1050
 1057YOPC   C1B15179  14.551  14.172   6.556  0.0267  0.0654 -0.1886
 1057YOPC   C2B15180  14.525  14.323   7.025  0.1002  0.2208 -0.0417
 1057YOPC   D3B15181  14.795  14.394   7.467  0.2974  0.0800  0.1697
 1057YOPC   C4B15182  15.171  14.370   7.570 -0.1014 -0.0813 -0.1554
 1058YOPC   NC315183   6.779  11.551   5.315 -0.0341 -0.0527 -0.1179
 1058YOPC   PO415184   6.680  11.066   5.378  0.1556 -0.1609 -0.2819
 1058YOPC   GL115185   6.779  10.829   5.742 -0.2225 -0.2865 -0.0983
 1058YOPC   GL215186   6.938  10.946   5.934  0.0613 -0.1221 -0.2559
 1058YOPC   C1A15187   6.782  10.584   6.230 -0.2552 -0.1441  0.1781
 1058YOPC   D2A15188   6.773  10.581   6.680  0.1171 -0.0051  0.0298
 1058YOPC   C3A15189   6.362  10.517   6.862 -0.1994  0.0230 -0.1056
 1058YOPC   C4A15190   6.103  10.788   7.261 -0.0342  0.1573 -0.0367
 1058YOPC   C1B15191   6.789  11.101   6.377  0.0245  0.3570  0.2010
 1058YOPC   C2B15192   6.615  11.104   6.746  0.1192  0.2361 -0.2550
 1058YOPC   D3B15193   6.286  11.238   7.008  0.0888  0.2130 -0.3263
 1058YOPC   C4B15194   5.943  11.343   7.110 -0.1353 -0.0119  0.1051
 1059YOPC   NC315195   2.266  12.863   5.046 -0.0708  0.6255  0.1729
 1059YOPC   PO415196   1.940  13.164   5.284  0.2094 -0.1201  0.0268
 1059YOPC   GL115197   2.043  13.103   5.599 -0.1604  0.1853  0.1898
 1059YOPC   GL215198   2.237  13.381   5.785  0.3304 -0.2055  0.1899
 1059YOPC   C1A15199   1.894  12.920   5.955  0.2069 -0.0963 -0.0279
 1059YOPC   D2A15200   1.645  12.546   6.007 -0.2695 -0.3663  0.0981
 1059YOPC   C3A15201   1.877  12.274   6.278 -0.1308 -0.3421  0.0558
 1059YOPC   C4A15202   2.169  11.927   6.277  0.1831  0.1585 -0.4746
 1059YOPC   C1B15203   2.014  13.375   6.050 -0.1386 -0.0834 -0.0457
 1059YOPC   C2B15204   1.832  13.321   6.458 -0.0260 -0.1331  0.2279
 1059YOPC   D3B15205   1.988  13.015   6.812 -0.0809  0.2466 -0.0181
 1059YOPC   C4B15206   2.195  12.603   6.855  0.1535 -0.0864  0.3007
 1060YOPC   NC315207   4.247   5.490   5.687  0.2043  0.0248  0.4084
 1060YOPC   PO415208   4.377   5.918   5.656 -0.1986  0.1741  0.0022
 1060YOPC   GL115209   4.095   5.864   5.932  0.3194 -0.2374 -0.2326
 1060YOPC   GL215210   3.767   5.808   5.823 -0.0890  0.2209  0.0145
 1060YOPC   C1A15211   3.906   5.980   6.295 -0.0927 -0.2205 -0.0078
 1060YOPC   D2A15212   3.848   5.821   6.636  0.0527 -0.0210  0.0945
 1060YOPC   C3A15213   3.785   6.164   6.877 -0.1207  0.0617  0.2856
 1060YOPC   C4A15214   3.592   6.053   7.234 -0.0006  0.1653  0.2068
 1060YOPC   C1B15215   3.580   6.178   6.006  0.1580 -0.2543  0.1073
 1060YOPC   C2B15216   3.267   6.345   6.316  0.0062 -0.1811 -0.1491
 1060YOPC   D3B15217   2.884   6.131   6.500 -0.0097  0.1214  0.1025
 1060YOPC   C4B15218   2.438   6.295   6.522 -0.2927  0.0861 -0.2510
 1061YOPC   NC315219   7.742   2.532   4.763  0.0221  0.0973 -0.0561
 1061YOPC   PO415220   7.512   2.513   5.223 -0.1865 -0.2023  0.2082
 1061YOPC   GL115221   7.629   2.604   5.689 -0.1868  0.2986  0.1456
 1061YOPC   GL215222   7.402   2.773   5.887 -0.1045  0.0642 -0.1701
 1061YOPC   C1A15223   7.909   2.531   5.967  0.0552  0.0453  0.2367
 1061YOPC   D2A15224   8.354   2.435   6.043 -0.2348  0.2171  0.2023
 1061YOPC   C3A15225   8.609   2.565   6.394 -0.3423  0.2676 -0.0268
 1061YOPC   C4A15226   8.879   2.457   6.797  0.1339 -0.0273 -0.1470
 1061YOPC   C1B15227   7.443   2.511   6.222 -0.3632 -0.2931 -0.0847
 1061YOPC   C2B15228   7.288   2.497   6.516 -0.0592  0.3126 -0.0705
 1061YOPC   D3B15229   7.567   2.211   6.679 -0.1012  0.1827  0.3145
 1061YOPC   C4B15230   7.864   1.891   6.946  0.2938  0.2194  0.1146
 1062YOPC   NC315231  12.314   8.301   5.514 -0.2638  0.0271  0.1632
 1062YOPC   PO415232  12.194   8.726   5.679  0.1066  0.1690  0.0452
 1062YOPC   GL115233  12.363   8.708   6.056  0.1026  0.0455 -0.2264
 1062YOPC   GL215234  12.778   8.787   6.093 -0.1445 -0.3347 -0.1031
 1062YOPC   C1A15235  12.498   8.462   6.412 -0.0871  0.1701  0.2028
 1062YOPC   D2A15236  12.681   8.310   6.768 -0.0891  0.2185  0.0175
 1062YOPC   C3A15237  12.697   8.704   7.005  0.1829 -0.3535 -0.0959
 1062YOPC   C4A15238  12.720   9.018   6.925 -0.0493  0.2876 -0.0958
 1062YOPC   C1B15239  12.801   8.328   5.961  0.1651 -0.0178  0.0000
 1062YOPC   C2B15240  12.895   7.974   6.089 -0.1965  0.1510  0.2403
 1062YOPC   D3B15241  13.051   7.997   6.586  0.4265 -0.2934 -0.4499
 1062YOPC   C4B15242  12.956   7.989   7.064  0.0292 -0.0278  0.1458
 1063YOPC   NC315243   6.669  14.665   4.852  0.0449  0.0263  0.0536
 1063YOPC   PO415244   6.878  14.325   4.801  0.0648  0.3629  0.1329
 1063YOPC   GL115245   6.996  14.324   5.263 -0.1284 -0.2450 -0.2694
 1063YOPC   GL215246   7.202  14.428   5.398 -0.1118 -0.2126  0.1411
 1063YOPC   C1A15247   6.846  14.051   5.651 -0.0735  0.0657  0.0726
 1063YOPC   D2A15248   6.842  13.750   5.968  0.1506 -0.1069  0.2841
 1063YOPC   C3A15249   6.590  13.399   6.033  0.0672 -0.0717  0.4943
 1063YOPC   C4A15250   6.665  12.945   6.006 -0.2731 -0.1076  0.1828
 1063YOPC   C1B15251   7.418  14.149   5.661  0.1033 -0.2724 -0.0200
 1063YOPC   C2B15252   7.423  13.983   6.047 -0.1220  0.1436  0.0979
 1063YOPC   D3B15253   7.113  13.787   6.394 -0.1531  0.2714  0.0028
 1063YOPC   C4B15254   7.128  13.637   6.788  0.0707  0.3637 -0.0496
 1064YOPC   NC315255   0.197   4.950   5.020 -0.1364  0.0539 -0.2000
 1064YOPC   PO415256  -0.016   5.280   5.182 -0.2313 -0.1009 -0.1869
 1064YOPC   GL115257   0.113   5.066   5.544 -0.0892 -0.2017 -0.2074
 1064YOPC   GL215258  -0.262   4.964   5.623  0.0687 -0.1259 -0.0124
 1064YOPC   C1A15259   0.206   5.130   5.985 -0.0662 -0.0905 -0.0452
 1064YOPC   D2A15260   0.625   5.118   6.159 -0.2497 -0.1721  0.0269
 1064YOPC   C3A15261   0.691   5.121   6.620  0.2128 -0.0189 -0.0329
 1064YOPC   C4A15262   0.755   5.000   6.996 -0.0170  0.1517  0.2229
 1064YOPC   C1B15263  -0.131   4.714   6.000  0.0067  0.1329  0.1149
 1064YOPC   C2B15264  -0.035   4.446   6.357 -0.1901 -0.3144 -0.1184
 1064YOPC   D3B15265  -0.023   4.445   6.859 -0.1182  0.2248  0.0678
 1064YOPC   C4B15266  -0.300   4.356   7.111  0.0210 -0.4342  0.2091
 1065YOPC   NC315267   2.141   6.488   5.253  0.0959 -0.0527 -0.1824
 1065YOPC   PO415268   2.042   6.809   5.103  0.1128  0.1168 -0.0659
 1065YOPC   GL115269   1.827   6.848   5.467 -0.5323 -0.1072  0.2085
 1065YOPC   GL215270   1.966   6.987   5.763  0.3363 -0.0624  0.2734
 1065YOPC   C1A15271   1.551   6.714   5.778 -0.1157 -0.0118 -0.1625
 1065YOPC   D2A15272   1.075   6.613   5.973  0.3216 -0.3683  0.3448
 1065YOPC   C3A15273   0.980   6.605   6.396 -0.0174 -0.0330  0.1127
 1065YOPC   C4A15274   1.024   6.626   6.820  0.1970  0.2448 -0.2005
 1065YOPC   C1B15275   2.010   7.018   6.241 -0.0358  0.1306  0.2344
 1065YOPC   C2B15276   1.940   7.187   6.644 -0.1471 -0.2452  0.4083
 1065YOPC   D3B15277   1.910   6.993   7.008  0.3397 -0.2945  0.0408
 1065YOPC   C4B15278   2.207   7.026   7.414  0.0519 -0.1463 -0.1238
 1066YOPC   NC315279   8.013   6.121   5.132  0.2292  0.2623 -0.1664
 1066YOPC   PO415280   8.087   5.725   5.314 -0.1707 -0.1902 -0.0728
 1066YOPC   GL115281   8.068   5.616   5.672 -0.0399  0.0369 -0.1798
 1066YOPC   GL215282   8.193   5.343   5.654  0.1172  0.0063  0.2422
 1066YOPC   C1A15283   8.272   5.658   6.106  0.1307 -0.1358 -0.2627
 1066YOPC   D2A15284   8.394   5.556   6.483 -0.1300  0.0242 -0.0638
 1066YOPC   C3A15285   8.700   5.798   6.684 -0.1401  0.4968  0.1773
 1066YOPC   C4A15286   9.002   6.180   6.746 -0.0912  0.0336 -0.2999
 1066YOPC   C1B15287   8.259   5.156   6.070  0.1024  0.1680  0.1352
 1066YOPC   C2B15288   8.409   5.009   6.423  0.1284 -0.1276 -0.4273
 1066YOPC   D3B15289   8.387   5.214   6.873  0.2047  0.0870 -0.4164
 1066YOPC   C4B15290   8.642   5.278   7.145 -0.0730  0.2245 -0.1068
 1067YOPC   NC315291  12.598  10.862   5.846 -0.0890  0.3046  0.0051
 1067YOPC   PO415292  12.994  10.638   5.900  0.2507  0.1539  0.2919
 1067YOPC   GL115293  13.022  10.555   6.348  0.1344 -0.1641 -0.1720
 1067YOPC   GL215294  13.342  10.325   6.381 -0.1032  0.1208 -0.2181
 1067YOPC   C1A15295  12.959  10.433   6.745 -0.0330 -0.0710  0.0892
 1067YOPC   D2A15296  13.004  10.398   7.181 -0.0277 -0.0442  0.2941
 1067YOPC   C3A15297  13.058  10.038   7.368  0.2997  0.0637 -0.1041
 1067YOPC   C4A15298  13.194   9.621   7.501  0.1280 -0.1213  0.2389
 1067YOPC   C1B15299  13.429  10.215   6.659  0.2688 -0.0801 -0.1147
 1067YOPC   C2B15300  13.506  10.264   7.174  0.2591  0.3386  0.3029
 1067YOPC   D3B15301  13.432  10.333   7.596  0.0707  0.0200  0.0010
 1067YOPC   C4B15302  13.330  10.287   8.058 -0.0568  0.0566  0.2187
 1068YOPC   NC315303   0.753  11.847   5.520 -0.0934 -0.2632  0.1761
 1068YOPC   PO415304   1.221  11.959   5.527 -0.0306 -0.0451  0.4175
 1068YOPC   GL115305   1.228  11.646   5.893  0.1554  0.1259 -0.0763
 1068YOPC   GL215306   0.960  11.882   6.003 -0.2247 -0.0428 -0.0058
 1068YOPC   C1A15307   1.206  11.529   6.315  0.1034 -0.1913  0.0628
 1068YOPC   D2A15308   1.410  11.519   6.716  0.1066  0.2773 -0.1189
 1068YOPC   C3A15309   1.391  11.897   7.013  0.0690  0.3241  0.0108
 1068YOPC   C4A15310   1.424  12.239   7.269 -0.3054  0.1179 -0.0046
 1068YOPC   C1B15311   0.604  12.070   6.181 -0.0227  0.1061  0.2172
 1068YOPC   C2B15312   0.213  12.241   6.477 -0.2729  0.1363  0.0882
 1068YOPC   D3B15313   0.087  12.003   6.756  0.1050 -0.0455  0.3238
 1068YOPC   C4B15314   0.076  11.631   6.917 -0.2151  0.2017 -0.3626
 1069YOPC   NC315315  17.885   0.269   5.606 -0.2771  0.0754 -0.2477
 1069YOPC   PO415316  17.674  -0.100   5.424  0.1371  0.0126  0.2248
 1069YOPC   GL115317  17.759  -0.238   5.871 -0.0617 -0.2908  0.0135
 1069YOPC   GL215318  17.630  -0.463   5.994 -0.4421  0.1163 -0.1307
 1069YOPC   C1A15319  18.126  -0.255   6.183 -0.0733 -0.0264  0.1284
 1069YOPC   D2A15320  18.284  -0.410   6.653 -0.0829  0.0055 -0.1495
 1069YOPC   C3A15321  18.521  -0.805   6.913  0.0447 -0.2278  0.1576
 1069YOPC   C4A15322  18.868  -0.765   7.163 -0.2463 -0.1870  0.0364
 1069YOPC   C1B15323  17.863  -0.603   6.343  0.2340  0.1404  0.1254
 1069YOPC   C2B15324  18.036  -0.924   6.746  0.0617 -0.5060 -0.1452
 1069YOPC   D3B15325  18.131  -1.286   7.086 -0.1380  0.2406 -0.1766
 1069YOPC   C4B15326  18.369  -1.466   7.435  0.0966 -0.1441 -0.1036
 1070YOPC   NC315327   0.871   5.707   4.606 -0.1099  0.3255  0.2223
 1070YOPC   PO415328   0.763   5.920   5.012  0.1879  0.0301  0.0920
 1070YOPC   GL115329   0.736   6.161   5.425 -0.3544 -0.1581 -0.0502
 1070YOPC   GL215330   0.497   6.093   5.665 -0.2234  0.2202 -0.1748
 1070YOPC   C1A15331   1.035   6.186   5.734  0.0206  0.1163  0.0683
 1070YOPC   D2A15332   1.469   6.139   5.929 -0.0735  0.1099 -0.0791
 1070YOPC   C3A15333   1.441   6.290   6.341 -0.0029 -0.3293  0.0833
 1070YOPC   C4A15334   1.546   6.190   6.745  0.0877 -0.3329  0.0417
 1070YOPC   C1B15335   0.225   6.108   5.976 -0.0588 -0.0418  0.1401
 1070YOPC   C2B15336   0.197   5.931   6.432 -0.2167 -0.0769 -0.0124
 1070YOPC   D3B15337   0.461   6.036   6.714 -0.1734 -0.0812  0.1421
 1070YOPC   C4B15338   0.590   5.959   7.110 -0.1795  0.0426 -0.0177
 1071YOPC   NC315339  18.211  18.538   5.281  0.3093  0.1929  0.0035
 1071YOPC   PO415340  18.563  18.216   5.367 -0.1584 -0.3437 -0.0874
 1071YOPC   GL115341  18.642  18.238   5.784  0.0076  0.1606  0.0096
 1071YOPC   GL215342  18.612  18.497   5.950 -0.0479 -0.2148 -0.2723
 1071YOPC   C1A15343  18.708  18.023   6.211 -0.0940  0.2721 -0.2642
 1071YOPC   D2A15344  18.689  17.588   6.649  0.3366 -0.0487  0.1043
 1071YOPC   C3A15345  18.924  17.496   7.044  0.1993  0.0207 -0.0305
 1071YOPC   C4A15346  19.193  17.266   7.339  0.3098 -0.1758  0.0012
 1071YOPC   C1B15347  18.338  18.365   6.341 -0.1312 -0.0771 -0.0028
 1071YOPC   C2B15348  18.386  17.974   6.574  0.5458  0.5413  0.0057
 1071YOPC   D3B15349  18.615  17.923   7.025 -0.1410  0.1942 -0.3908
 1071YOPC   C4B15350  18.612  18.094   7.449  0.0927  0.0907  0.0717
 1072YOPC   NC315351  18.780   7.669   5.466 -0.0022  0.0061  0.1719
 1072YOPC   PO415352  19.229   7.747   5.475  0.2638  0.0134  0.1039
 1072YOPC   GL115353  19.159   7.631   5.896  0.2424  0.2959 -0.2249
 1072YOPC   GL215354  18.933   7.828   6.098  0.2005 -0.1067 -0.1408
 1072YOPC   C1A15355  19.006   7.391   6.324  0.0453 -0.1605 -0.2302
 1072YOPC   D2A15356  18.621   7.200   6.452 -0.1059  0.0605 -0.0730
 1072YOPC   C3A15357  18.491   7.108   6.952  0.0482 -0.0814  0.0791
 1072YOPC   C4A15358  18.309   7.292   7.407 -0.2880  0.1273  0.2276
 1072YOPC   C1B15359  18.824   7.837   6.465  0.1869 -0.1082  0.3172
 1072YOPC   C2B15360  18.708   7.631   6.936  0.0738 -0.1138 -0.1020
 1072YOPC   D3B15361  18.831   7.383   7.306 -0.1758  0.0583  0.2006
 1072YOPC   C4B15362  18.730   7.086   7.619  0.0017 -0.1474  0.1464
 1073YOPC   NC315363   7.885   9.297   5.709 -0.2887 -0.2972 -0.0708
 1073YOPC   PO415364   7.640   9.658   5.730 -0.1465  0.2895  0.5052
 1073YOPC   GL115365   7.791   9.605   6.116 -0.0775 -0.0174  0.2017
 1073YOPC   GL215366   8.057   9.357   6.166  0.1963  0.2413 -0.0996
 1073YOPC   C1A15367   8.054   9.784   6.343  0.1356 -0.1955 -0.0126
 1073YOPC   D2A15368   7.958   9.929   6.728  0.0485  0.0053 -0.0640
 1073YOPC   C3A15369   8.301   9.853   7.044  0.0129 -0.3445 -0.0221
 1073YOPC   C4A15370   8.418  10.021   7.345 -0.4332  0.2239 -0.0022
 1073YOPC   C1B15371   7.917   9.343   6.581 -0.0946  0.0816 -0.1108
 1073YOPC   C2B15372   7.779   9.337   7.013 -0.1849 -0.1612 -0.1759
 1073YOPC   D3B15373   7.525   8.945   7.171  0.1193 -0.0659 -0.2143
 1073YOPC   C4B15374   7.358   8.713   7.470 -0.1599  0.0179 -0.1232
 1074YOPC   NC315375  13.323  12.862   5.445  0.1919 -0.0396 -0.3095
 1074YOPC   PO415376  13.764  12.748   5.186  0.1493 -0.0386  0.0715
 1074YOPC   GL115377  13.847  12.994   5.570  0.1542  0.1748 -0.0839
 1074YOPC   GL215378  14.039  12.872   5.800  0.1622  0.0339  0.0095
 1074YOPC   C1A15379  13.801  13.375   5.897 -0.0350 -0.3462  0.0525
 1074YOPC   D2A15380  13.836  13.755   6.089 -0.0676  0.0182  0.2610
 1074YOPC   C3A15381  13.660  13.702   6.467  0.1232 -0.0891 -0.2663
 1074YOPC   C4A15382  13.861  13.658   6.970  0.5526  0.1822 -0.1759
 1074YOPC   C1B15383  13.905  12.945   6.101 -0.0965  0.2820  0.1501
 1074YOPC   C2B15384  13.570  13.260   6.272  0.0119  0.2279  0.1960
 1074YOPC   D3B15385  13.248  13.182   6.620 -0.0205 -0.2519  0.0849
 1074YOPC   C4B15386  12.838  13.362   6.451  0.1359 -0.2265  0.1843
 1075YOPC   NC315387  18.043  12.822   5.464  0.0729  0.1765 -0.1981
 1075YOPC   PO415388  18.241  13.260   5.428 -0.2175  0.0716 -0.2508
 1075YOPC   GL115389  18.503  13.199   5.772  0.0687  0.0907  0.1427
 1075YOPC   GL215390  18.631  13.374   5.851 -0.0823  0.2735 -0.2017
 1075YOPC   C1A15391  18.298  12.879   6.067  0.5519 -0.2616 -0.1631
 1075YOPC   D2A15392  18.089  12.809   6.462  0.1143 -0.0589  0.1589
 1075YOPC   C3A15393  18.003  12.448   6.684  0.0791 -0.2425 -0.2846
 1075YOPC   C4A15394  17.946  12.156   6.990 -0.0298  0.0517  0.0505
 1075YOPC   C1B15395  18.632  13.638   6.135 -0.1574 -0.1344  0.0935
 1075YOPC   C2B15396  18.780  13.796   6.427 -0.0414  0.0714 -0.1535
 1075YOPC   D3B15397  18.673  14.037   6.729  0.1014  0.0784 -0.4150
 1075YOPC   C4B15398  18.627  14.207   7.227  0.2602 -0.0917  0.3783
 1076YOPC   NC315399   6.005  12.627   5.137  0.2022 -0.0944  0.0987
 1076YOPC   PO415400   5.764  12.300   5.134 -0.0048  0.2584  0.2997
 1076YOPC   GL115401   5.857  12.305   5.536  0.0476  0.1809 -0.1238
 1076YOPC   GL215402   6.195  12.382   5.503  0.0117 -0.0845 -0.1439
 1076YOPC   C1A15403   5.707  12.370   6.003 -0.2508  0.2554  0.2470
 1076YOPC   D2A15404   5.981  12.383   6.326  0.1252 -0.1391 -0.1143
 1076YOPC   C3A15405   5.903  12.300   6.740  0.1407 -0.1332  0.1142
 1076YOPC   C4A15406   5.631  12.372   7.116 -0.2730 -0.0701 -0.0183
 1076YOPC   C1B15407   6.171  12.500   5.889  0.0581 -0.1526 -0.0769
 1076YOPC   C2B15408   6.336  12.758   6.308  0.1568  0.0165 -0.0331
 1076YOPC   D3B15409   6.252  12.614   6.702 -0.3831  0.0483  0.0930
 1076YOPC   C4B15410   6.042  12.746   7.006  0.2041  0.0759 -0.2781
 1077YOPC   NC315411  14.076   8.558   5.626 -0.0086 -0.0370 -0.0950
 1077YOPC   PO415412  14.334   8.242   5.720 -0.0752  0.0375  0.2564
 1077YOPC   GL115413  14.336   7.917   6.039 -0.4247 -0.2893  0.0421
 1077YOPC   GL215414  14.644   7.842   6.160 -0.3939  0.2529  0.4009
 1077YOPC   C1A15415  14.102   8.025   6.458  0.0338  0.0397  0.3645
 1077YOPC   D2A15416  14.022   7.971   6.874  0.2576  0.0106  0.1012
 1077YOPC   C3A15417  13.697   8.139   7.038  0.0686 -0.2341 -0.1058
 1077YOPC   C4A15418  13.307   8.396   6.773  0.3350 -0.0593  0.0939
 1077YOPC   C1B15419  14.550   8.095   6.514  0.0381  0.0862 -0.1611
 1077YOPC   C2B15420  14.359   8.417   6.718 -0.3615 -0.0491 -0.2674
 1077YOPC   D3B15421  14.563   8.868   6.715  0.1444  0.1920  0.5064
 1077YOPC   C4B15422  14.945   8.968   6.895 -0.0289  0.2012 -0.1250
 1078YOPC   NC315423   5.259  18.878   5.395 -0.1766  0.0121  0.1433
 1078YOPC   PO415424   4.937  19.190   5.756  0.0076 -0.1508 -0.1292
 1078YOPC   GL115425   4.905  19.287   6.203  0.1205  0.2362  0.1048
 1078YOPC   GL215426   4.706  19.513   6.290  0.0274 -0.1211 -0.0504
 1078YOPC   C1A15427   4.974  19.308   6.684 -0.3000  0.4564  0.0099
 1078YOPC   D2A15428   4.614  19.482   7.003 -0.0981 -0.0129  0.0131
 1078YOPC   C3A15429   4.614  19.679   7.424  0.0489 -0.0884 -0.1502
 1078YOPC   C4A15430   4.616  19.734   7.833 -0.1411  0.1082  0.1196
 1078YOPC   C1B15431   4.721  19.793   6.656  0.2641 -0.1090 -0.1400
 1078YOPC   C2B15432   4.643  20.086   7.006 -0.0810  0.3731  0.1645
 1078YOPC   D3B15433   4.683  20.193   7.449 -0.0578 -0.0221  0.1142
 1078YOPC   C4B15434   5.093  20.344   7.749  0.1651 -0.5393 -0.3019
 1079YOPC   NC315435  14.406   7.887   5.371  0.4188  0.3370  0.1101
 1079YOPC   PO415436  14.306   7.452   5.416  0.1299 -0.1756  0.1367
 1079YOPC   GL115437  14.278   7.384   5.916  0.1324 -0.1660 -0.2236
 1079YOPC   GL215438  14.040   7.158   5.886 -0.0789  0.0210  0.2354
 1079YOPC   C1A15439  14.321   7.592   6.414  0.2236  0.0295  0.1140
 1079YOPC   D2A15440  14.465   7.666   6.833 -0.4112 -0.4060 -0.0224
 1079YOPC   C3A15441  14.946   7.744   6.744 -0.0289 -0.0627  0.2139
 1079YOPC   C4A15442  15.191   7.551   6.689 -0.1163  0.0746 -0.0850
 1079YOPC   C1B15443  14.083   7.073   6.249 -0.0905  0.0878  0.0305
 1079YOPC   C2B15444  14.250   7.047   6.627 -0.1895  0.1446  0.0033
 1079YOPC   D3B15445  14.290   6.727   6.951 -0.2536  0.0980  0.0951
 1079YOPC   C4B15446  14.401   6.423   7.301  0.1061  0.0864  0.0019
 1080YOPC   NC315447   9.169   0.708   5.297  0.2293  0.1653  0.3752
 1080YOPC   PO415448   9.216   1.211   5.277  0.0264 -0.0876  0.2094
 1080YOPC   GL115449   9.232   1.065   5.638 -0.0396  0.0094 -0.2409
 1080YOPC   GL215450   9.396   0.877   5.759 -0.2131 -0.2327 -0.1745
 1080YOPC   C1A15451   9.088   1.291   5.992 -0.1854  0.2786 -0.1970
 1080YOPC   D2A15452   9.293   1.607   6.208 -0.0674 -0.0287  0.1778
 1080YOPC   C3A15453   9.134   1.966   6.251  0.0087  0.1383 -0.1543
 1080YOPC   C4A15454   8.730   2.088   6.428 -0.0299 -0.1638 -0.0620
 1080YOPC   C1B15455   9.451   1.056   6.220 -0.1278 -0.2915  0.0130
 1080YOPC   C2B15456   9.452   1.248   6.687  0.2547 -0.0075 -0.2054
 1080YOPC   D3B15457   9.129   1.106   6.892  0.0740  0.0228  0.1891
 1080YOPC   C4B15458   8.673   1.040   6.916  0.0481  0.4048 -0.2228
 1081YOPC   NC315459   3.597  18.401   5.237  0.2521 -0.0382  0.5931
 1081YOPC   PO415460   3.124  18.424   5.580 -0.3633  0.1442 -0.0813
 1081YOPC   GL115461   3.235  18.363   5.990  0.2961 -0.0907 -0.1344
 1081YOPC   GL215462   3.191  18.530   6.190  0.0216 -0.2447  0.1014
 1081YOPC   C1A15463   3.497  18.127   6.225  0.2857 -0.3580 -0.4070
 1081YOPC   D2A15464   3.863  17.847   6.312  0.0437  0.3565 -0.2191
 1081YOPC   C3A15465   4.130  17.767   6.663  0.2382 -0.1585  0.1745
 1081YOPC   C4A15466   4.478  17.945   6.420  0.3231 -0.2407 -0.2390
 1081YOPC   C1B15467   2.961  18.411   6.582 -0.2326  0.1372  0.0603
 1081YOPC   C2B15468   2.783  18.578   7.074  0.1216  0.0003  0.1566
 1081YOPC   D3B15469   2.431  18.606   7.247 -0.2414 -0.0376 -0.3245
 1081YOPC   C4B15470   2.367  18.547   7.733 -0.1641 -0.0012  0.2500
 1082YOPC   NC315471   5.779  11.121   4.823 -0.3139  0.1926  0.0666
 1082YOPC   PO415472   5.607  10.691   5.045  0.2663  0.0975 -0.1084
 1082YOPC   GL115473   5.501  10.479   5.408  0.0650  0.1490  0.0606
 1082YOPC   GL215474   5.275  10.303   5.368 -0.0617 -0.2457 -0.3178
 1082YOPC   C1A15475   5.777  10.351   5.777  0.5039  0.1681  0.2889
 1082YOPC   D2A15476   6.063  10.415   6.163  0.1020  0.1021 -0.2087
 1082YOPC   C3A15477   6.110  10.252   6.551  0.2405 -0.1848  0.0707
 1082YOPC   C4A15478   6.237   9.859   6.640  0.0253  0.2516 -0.2205
 1082YOPC   C1B15479   5.216  10.399   5.920 -0.3797 -0.2662 -0.3544
 1082YOPC   C2B15480   4.949  10.712   6.017 -0.0051  0.0199  0.1240
 1082YOPC   D3B15481   4.888  10.922   6.461  0.1171  0.0041  0.2526
 1082YOPC   C4B15482   5.041  11.050   6.882  0.3377 -0.3286 -0.0167
 1083YOPC   NC315483   4.786  13.417   4.939 -0.1098 -0.1311 -0.1328
 1083YOPC   PO415484   4.562  13.106   4.923 -0.3023 -0.0327  0.5940
 1083YOPC   GL115485   4.910  13.034   5.276 -0.1026  0.1573  0.2972
 1083YOPC   GL215486   5.051  12.852   5.337 -0.1277  0.3134 -0.0878
 1083YOPC   C1A15487   4.860  12.978   5.749  0.1310  0.2705  0.1474
 1083YOPC   D2A15488   4.619  12.944   6.194 -0.0528  0.2083  0.2602
 1083YOPC   C3A15489   4.410  12.637   6.385 -0.2946  0.2604  0.1337
 1083YOPC   C4A15490   4.041  12.287   6.375 -0.1730  0.0802 -0.1407
 1083YOPC   C1B15491   5.329  12.681   5.694 -0.0644  0.2201 -0.3904
 1083YOPC   C2B15492   5.185  12.516   6.093 -0.2021  0.2295 -0.2784
 1083YOPC   D3B15493   4.974  12.623   6.401  0.0794  0.1612 -0.1087
 1083YOPC   C4B15494   4.732  12.412   6.774 -0.1478  0.3269  0.2010
 1084YOPC   NC315495   3.824  10.116   4.852 -0.0786  0.2130 -0.2906
 1084YOPC   PO415496   3.607   9.694   4.733 -0.1827 -0.0216  0.2465
 1084YOPC   GL115497   3.659   9.837   5.291  0.1062  0.1441  0.3403
 1084YOPC   GL215498   3.888   9.978   5.522 -0.1007 -0.0991 -0.2868
 1084YOPC   C1A15499   3.428  10.143   5.592  0.0634  0.1477  0.1118
 1084YOPC   D2A15500   3.120  10.247   5.948  0.0532 -0.2770  0.1353
 1084YOPC   C3A15501   3.199  10.474   6.232  0.2173 -0.4798 -0.1187
 1084YOPC   C4A15502   2.782  10.546   6.510 -0.3835  0.4894  0.1735
 1084YOPC   C1B15503   3.717  10.008   5.954 -0.3815  0.1692  0.1836
 1084YOPC   C2B15504   3.457  10.051   6.301  0.2186  0.2405 -0.0169
 1084YOPC   D3B15505   3.432   9.735   6.546  0.1620  0.0272  0.1141
 1084YOPC   C4B15506   3.653   9.628   6.929  0.2563 -0.3093 -0.0079
 1085YOPC   NC315507  14.910   3.388   4.816 -0.0778 -0.1022 -0.2691
 1085YOPC   PO415508  14.704   3.482   5.266 -0.1353  0.0548 -0.0012
 1085YOPC   GL115509  14.509   3.217   5.586 -0.0232  0.1629  0.0347
 1085YOPC   GL215510  14.291   3.529   5.657 -0.1610 -0.0363 -0.0625
 1085YOPC   C1A15511  14.665   3.029   5.941  0.1590 -0.0691 -0.1946
 1085YOPC   D2A15512  14.888   2.947   6.419  0.1626 -0.2647  0.0509
 1085YOPC   C3A15513  14.847   2.690   6.803  0.2549  0.3224 -0.1046
 1085YOPC   C4A15514  14.637   2.485   7.025 -0.0001  0.1892 -0.1585
 1085YOPC   C1B15515  14.300   3.260   6.080  0.2350  0.0706 -0.1243
 1085YOPC   C2B15516  14.351   3.280   6.569 -0.0919  0.1266  0.0606
 1085YOPC   D3B15517  14.012   3.340   6.738 -0.0290  0.0129 -0.1947
 1085YOPC   C4B15518  13.605   3.253   6.840  0.2062  0.1205  0.3268
 1086YOPC   NC315519  12.495  13.096   5.174  0.0350  0.2834  0.1267
 1086YOPC   PO415520  12.513  13.492   5.468  0.2212  0.1062  0.2433
 1086YOPC   GL115521  12.685  13.435   5.828 -0.1325  0.1346  0.1294
 1086YOPC   GL215522  12.944  13.581   5.906 -0.1664 -0.0589  0.1153
 1086YOPC   C1A15523  12.513  13.143   6.132 -0.0573  0.1156 -0.0288
 1086YOPC   D2A15524  12.408  13.156   6.530 -0.1313  0.2556  0.0238
 1086YOPC   C3A15525  12.668  13.106   6.858 -0.1593 -0.1941  0.2822
 1086YOPC   C4A15526  12.919  13.391   6.988 -0.1557  0.2181 -0.0319
 1086YOPC   C1B15527  13.314  13.601   6.070 -0.1221 -0.0510 -0.0319
 1086YOPC   C2B15528  13.139  13.747   6.532 -0.0453  0.1125  0.0392
 1086YOPC   D3B15529  13.358  13.770   6.954 -0.1187 -0.0305 -0.1647
 1086YOPC   C4B15530  13.448  13.696   7.290  0.0194  0.0400  0.4580
 1087YOPC   NC315531  19.002   0.249   5.428 -0.0599 -0.1537 -0.0395
 1087YOPC   PO415532  18.678  -0.017   5.705 -0.2905 -0.0519  0.0346
 1087YOPC   GL115533  18.625  -0.146   6.111  0.0047  0.1066 -0.0986
 1087YOPC   GL215534  18.945  -0.165   6.253  0.0587 -0.0408  0.2104
 1087YOPC   C1A15535  18.474   0.050   6.511 -0.3302 -0.1091  0.0376
 1087YOPC   D2A15536  18.429   0.282   6.951 -0.1455  0.0099 -0.2262
 1087YOPC   C3A15537  18.103   0.191   7.207 -0.2544  0.2032  0.2182
 1087YOPC   C4A15538  17.804  -0.028   7.576  0.0854 -0.1074  0.1473
 1087YOPC   C1B15539  18.947  -0.000   6.553 -0.0005 -0.3371 -0.0989
 1087YOPC   C2B15540  18.864   0.086   7.024 -0.1240 -0.3416  0.0077
 1087YOPC   D3B15541  18.593   0.242   7.414  0.1383  0.1698 -0.2832
 1087YOPC   C4B15542  18.199   0.372   7.694 -0.2300  0.0831  0.3166
 1088YOPC   NC315543  18.365   0.967   5.181  0.0662 -0.0578 -0.2676
 1088YOPC   PO415544  18.748   1.149   5.140 -0.2365  0.1206  0.1269
 1088YOPC   GL115545  18.696   1.089   5.690  0.2084 -0.1376  0.1954
 1088YOPC   GL215546  18.980   0.885   5.877  0.1433 -0.0120  0.0789
 1088YOPC   C1A15547  18.563   0.741   5.939  0.0247 -0.0659  0.0006
 1088YOPC   D2A15548  18.355   0.654   6.274 -0.1538  0.2771 -0.3150
 1088YOPC   C3A15549  18.023   0.408   6.281  0.2527 -0.0488 -0.0226
 1088YOPC   C4A15550  17.980   0.161   6.675  0.1689 -0.0613 -0.0155
 1088YOPC   C1B15551  19.051   0.998   6.281 -0.1136  0.0353  0.0401
 1088YOPC   C2B15552  18.953   1.252   6.686  0.1001  0.0280  0.3542
 1088YOPC   D3B15553  19.168   1.127   7.073 -0.1624  0.2292  0.0605
 1088YOPC   C4B15554  19.261   1.182   7.462  0.2374  0.0691 -0.0580
 1089YOPC   NC315555  14.068   4.851   5.167 -0.4105  0.3063 -0.0321
 1089YOPC   PO415556  14.477   5.155   5.132  0.1086  0.0676  0.4728
 1089YOPC   GL115557  14.559   5.022   5.589 -0.2902  0.0268 -0.0564
 1089YOPC   GL215558  14.946   5.069   5.617 -0.4052  0.0130  0.1067
 1089YOPC   C1A15559  14.706   4.911   6.019 -0.0953  0.0597 -0.0667
 1089YOPC   D2A15560  14.903   5.141   6.447 -0.0258 -0.1905  0.0100
 1089YOPC   C3A15561  15.193   4.949   6.449  0.0276 -0.0590 -0.0855
 1089YOPC   C4A15562  15.288   4.718   6.845  0.3642  0.2493 -0.1323
 1089YOPC   C1B15563  15.131   4.663   5.827 -0.2190 -0.3336 -0.0284
 1089YOPC   C2B15564  15.054   4.522   6.204 -0.0400  0.3484 -0.0605
 1089YOPC   D3B15565  14.582   4.461   6.158  0.0554 -0.1519  0.1478
 1089YOPC   C4B15566  14.334   4.103   5.801 -0.0964 -0.0450 -0.0859
 1090YOPC   NC315567   7.734  16.533   5.046 -0.0313 -0.2391 -0.0490
 1090YOPC   PO415568   7.591  16.859   5.281 -0.0899  0.0181  0.1136
 1090YOPC   GL115569   7.648  16.899   5.730 -0.0463 -0.3958 -0.2678
 1090YOPC   GL215570   7.261  16.881   5.738 -0.0694  0.0917  0.2198
 1090YOPC   C1A15571   8.172  16.868   5.930 -0.1401 -0.1042  0.3369
 1090YOPC   D2A15572   8.287  17.253   6.169 -0.0371  0.1893  0.1947
 1090YOPC   C3A15573   8.065  17.563   6.502 -0.0263  0.0869 -0.2373
 1090YOPC   C4A15574   7.875  17.830   6.849  0.0836  0.0122  0.0098
 1090YOPC   C1B15575   7.335  16.772   6.188 -0.0116 -0.3756  0.0304
 1090YOPC   C2B15576   7.477  16.846   6.628 -0.2240 -0.2643  0.1836
 1090YOPC   D3B15577   7.806  16.930   6.899  0.2168 -0.3172  0.1584
 1090YOPC   C4B15578   8.052  17.328   6.930  0.1130  0.0818  0.1474
 1091YOPC   NC315579   1.589  15.786   5.451  0.0209  0.0474  0.0712
 1091YOPC   PO415580   1.976  15.963   5.208 -0.1367  0.2915 -0.2300
 1091YOPC   GL115581   1.978  15.926   5.702 -0.1242  0.1176 -0.0128
 1091YOPC   GL215582   1.649  15.740   5.903  0.1049 -0.2680 -0.0257
 1091YOPC   C1A15583   2.133  15.895   6.038 -0.1820 -0.1691 -0.0603
 1091YOPC   D2A15584   2.348  16.169   6.369  0.1120  0.3412  0.3117
 1091YOPC   C3A15585   2.120  16.477   6.702 -0.1094 -0.3397 -0.0896
 1091YOPC   C4A15586   1.761  16.756   6.637 -0.0488 -0.0420  0.0570
 1091YOPC   C1B15587   1.509  15.739   6.331 -0.2271 -0.0291  0.0540
 1091YOPC   C2B15588   1.653  15.638   6.840  0.4587 -0.1055  0.1460
 1091YOPC   D3B15589   2.004  15.437   7.011  0.0666 -0.1077 -0.1524
 1091YOPC   C4B15590   2.320  15.131   7.277  0.0427  0.3888  0.1850
 1092YOPC   NC315591   0.372  15.299   5.239 -0.0173 -0.3535 -0.0761
 1092YOPC   PO415592   0.311  15.697   5.508  0.2312 -0.1711  0.2714
 1092YOPC   GL115593   0.371  15.607   5.994  0.1716 -0.0040  0.2482
 1092YOPC   GL215594   0.191  15.758   6.285  0.3110  0.1913 -0.2287
 1092YOPC   C1A15595   0.601  15.478   6.214  0.0321 -0.1588  0.1021
 1092YOPC   D2A15596   0.792  15.617   6.591 -0.0868 -0.1078  0.0123
 1092YOPC   C3A15597   1.124  15.645   6.874  0.3921 -0.2076  0.2161
 1092YOPC   C4A15598   1.266  15.408   7.206 -0.2630 -0.0801 -0.0509
 1092YOPC   C1B15599   0.013  15.941   6.694  0.1149  0.0276 -0.2654
 1092YOPC   C2B15600  -0.351  15.788   6.952  0.0869 -0.2733  0.1038
 1092YOPC   D3B15601  -0.111  15.753   7.373  0.0455 -0.0565 -0.2796
 1092YOPC   C4B15602   0.064  15.328   7.441  0.1389 -0.0166 -0.1990
 1093YOPC   NC315603  11.635   5.289   5.253  0.1613 -0.0741 -0.4174
 1093YOPC   PO415604  11.404   4.951   5.405  0.1606  0.2385  0.1547
 1093YOPC   GL115605  11.086   4.741   5.712 -0.3444 -0.0800  0.2052
 1093YOPC   GL215606  10.869   4.533   5.618 -0.0883  0.0123 -0.3381
 1093YOPC   C1A15607  10.989   4.496   6.089 -0.1096  0.2845 -0.1611
 1093YOPC   D2A15608  10.756   4.203   6.307 -0.2032  0.0805  0.2936
 1093YOPC   C3A15609  10.434   4.433   6.462 -0.1657  0.1764  0.3651
 1093YOPC   C4A15610  10.022   4.375   6.556 -0.0762 -0.2666 -0.0591
 1093YOPC   C1B15611  10.794   4.095   5.781  0.1910  0.0663 -0.1165
 1093YOPC   C2B15612  11.043   3.877   6.073  0.1333 -0.0330  0.0468
 1093YOPC   D3B15613  11.130   3.556   6.383  0.0321  0.1893 -0.2868
 1093YOPC   C4B15614  11.405   3.424   6.752  0.0296 -0.0620  0.0182
 1094YOPC   NC315615  15.469   3.068   5.300  0.5416 -0.0607 -0.0694
 1094YOPC   PO415616  15.829   3.003   5.150  0.1278  0.0746 -0.0877
 1094YOPC   GL115617  15.888   3.108   5.609  0.0541 -0.1259 -0.0799
 1094YOPC   GL215618  15.517   3.305   5.752 -0.0826 -0.0149 -0.0909
 1094YOPC   C1A15619  15.870   3.198   6.059  0.0141 -0.2436  0.1796
 1094YOPC   D2A15620  15.794   3.369   6.515 -0.0943 -0.2783  0.1293
 1094YOPC   C3A15621  15.954   3.149   6.908  0.0121 -0.1710 -0.1002
 1094YOPC   C4A15622  16.006   2.921   7.287 -0.2835  0.4678 -0.1819
 1094YOPC   C1B15623  15.361   3.189   6.158 -0.0635 -0.0397  0.2768
 1094YOPC   C2B15624  15.343   3.231   6.608  0.3025  0.1171  0.0538
 1094YOPC   D3B15625  15.558   3.439   6.972 -0.1060  0.1683 -0.3275
 1094YOPC   C4B15626  15.404   3.628   7.384 -0.0628  0.0269 -0.0231
 1095YOPC   NC315627  10.913   7.085   4.840  0.1952 -0.1320 -0.0543
 1095YOPC   PO415628  11.026   6.753   5.191  0.2337 -0.1746 -0.0014
 1095YOPC   GL115629  10.999   6.664   5.712  0.2422 -0.0202 -0.2113
 1095YOPC   GL215630  11.344   6.692   5.907 -0.2659 -0.0118 -0.1001
 1095YOPC   C1A15631  10.757   6.562   6.039  0.1776  0.0856  0.0803
 1095YOPC   D2A15632  10.474   6.315   6.400 -0.3206  0.1259  0.3605
 1095YOPC   C3A15633  10.341   6.322   6.827  0.0638 -0.5755 -0.0469
 1095YOPC   C4A15634  10.465   6.442   7.180  0.0460 -0.1498  0.0365
 1095YOPC   C1B15635  11.211   6.578   6.301  0.5404 -0.0599  0.0410
 1095YOPC   C2B15636  11.052   7.019   6.325  0.1149  0.2121  0.1335
 1095YOPC   D3B15637  10.983   7.131   6.741  0.1848  0.2636  0.1675
 1095YOPC   C4B15638  11.116   7.290   7.086 -0.2694 -0.0503  0.0454
 1096YOPC   NC315639   1.666   8.633   4.897  0.4235  0.1487 -0.0425
 1096YOPC   PO415640   1.821   8.237   5.156 -0.0339  0.4953  0.2400
 1096YOPC   GL115641   2.124   8.254   5.472 -0.1797  0.2929  0.0313
 1096YOPC   GL215642   2.422   8.378   5.598  0.0256  0.0297  0.1882
 1096YOPC   C1A15643   2.099   8.162   5.988  0.2680 -0.2154 -0.4622
 1096YOPC   D2A15644   2.034   8.262   6.408 -0.3177 -0.0147  0.2027
 1096YOPC   C3A15645   2.248   8.359   6.751  0.0432  0.2965 -0.0782
 1096YOPC   C4A15646   2.147   8.364   7.164 -0.1677  0.2004 -0.1328
 1096YOPC   C1B15647   2.573   8.342   5.989  0.0061  0.1437 -0.1454
 1096YOPC   C2B15648   2.611   8.202   6.371 -0.0282  0.1275 -0.1515
 1096YOPC   D3B15649   2.794   7.897   6.592 -0.0790 -0.0871 -0.0344
 1096YOPC   C4B15650   2.838   7.577   6.850 -0.2179  0.1858  0.1003
 1097YOPC   NC315651   4.238   0.299   6.242 -0.0674  0.0560  0.0900
 1097YOPC   PO415652   4.450   0.011   5.939 -0.0428  0.2358  0.0937
 1097YOPC   GL115653   4.499  -0.083   6.370 -0.2763  0.3213  0.2463
 1097YOPC   GL215654   4.239  -0.258   6.314 -0.2941  0.1468  0.2273
 1097YOPC   C1A15655   4.600  -0.256   6.747 -0.0426  0.3792  0.2548
 1097YOPC   D2A15656   4.730  -0.134   7.290 -0.0935 -0.1165 -0.3074
 1097YOPC   C3A15657   5.001   0.221   7.391  0.1702 -0.0895  0.0685
 1097YOPC   C4A15658   5.418   0.459   7.324  0.0925  0.0231  0.0829
 1097YOPC   C1B15659   4.034  -0.351   6.629 -0.0949 -0.0160 -0.2662
 1097YOPC   C2B15660   3.693  -0.314   6.917 -0.0992  0.1143  0.1016
 1097YOPC   D3B15661   3.615  -0.504   7.224  0.0207 -0.0223 -0.0060
 1097YOPC   C4B15662   3.650  -0.888   7.346 -0.3485 -0.1226  0.0368
 1098YOPC   NC315663   5.880   0.435   5.498 -0.1357  0.2289  0.0524
 1098YOPC   PO415664   5.892   0.803   5.880 -0.0825 -0.0736  0.4289
 1098YOPC   GL115665   6.201   0.917   6.243 -0.0118 -0.1618  0.0656
 1098YOPC   GL215666   6.437   0.699   6.053  0.0211  0.0878  0.1437
 1098YOPC   C1A15667   6.520   0.722   6.549 -0.1251  0.2398 -0.2644
 1098YOPC   D2A15668   6.925   0.677   6.695 -0.3894 -0.0105 -0.1681
 1098YOPC   C3A15669   7.027   0.650   7.109 -0.0638 -0.0380  0.0620
 1098YOPC   C4A15670   6.980   0.559   7.487  0.1409 -0.1091  0.2692
 1098YOPC   C1B15671   6.877   0.638   6.193 -0.0951 -0.1646 -0.1771
 1098YOPC   C2B15672   7.278   0.796   6.019 -0.0365 -0.0332  0.2548
 1098YOPC   D3B15673   7.646   0.891   6.183  0.0007 -0.2283  0.1117
 1098YOPC   C4B15674   8.034   0.954   6.397 -0.3243  0.0460 -0.1223
 1099YOPC   NC315675   4.883  12.558   4.780 -0.0630 -0.1767 -0.0054
 1099YOPC   PO415676   5.318  12.454   4.764 -0.0507  0.0512 -0.3046
 1099YOPC   GL115677   5.083  12.345   5.176 -0.4057  0.0788  0.1544
 1099YOPC   GL215678   5.278  12.219   5.377  0.3285 -0.3490  0.1357
 1099YOPC   C1A15679   4.914  12.456   5.585  0.1380  0.0211  0.0200
 1099YOPC   D2A15680   4.750  12.410   5.899 -0.0368 -0.1194  0.2907
 1099YOPC   C3A15681   4.302  12.268   5.827 -0.0808  0.0412 -0.4829
 1099YOPC   C4A15682   3.812  12.386   5.690  0.0925  0.3091  0.0412
 1099YOPC   C1B15683   5.330  12.085   5.793  0.0985  0.1898 -0.0935
 1099YOPC   C2B15684   5.350  11.955   6.193  0.0571 -0.2388  0.2042
 1099YOPC   D3B15685   5.177  12.217   6.546  0.0033  0.0469 -0.3364
 1099YOPC   C4B15686   5.199  12.228   6.883 -0.0231  0.2220 -0.2008
 1100YOPC   NC315687   2.845  16.113   5.322 -0.0271  0.0740 -0.1097
 1100YOPC   PO415688   2.865  15.605   5.245  0.1188  0.4938  0.0735
 1100YOPC   GL115689   2.915  15.770   5.644 -0.0560 -0.0373 -0.1670
 1100YOPC   GL215690   2.563  15.929   5.828 -0.3261  0.0704  0.0604
 1100YOPC   C1A15691   3.059  15.501   6.093  0.1590  0.1878  0.0434
 1100YOPC   D2A15692   3.383  15.233   6.291  0.1600  0.0013 -0.0901
 1100YOPC   C3A15693   3.708  15.055   6.556  0.2712  0.0540 -0.0054
 1100YOPC   C4A15694   3.539  14.695   6.803  0.1385  0.2162 -0.2037
 1100YOPC   C1B15695   2.671  15.829   6.196  0.2296 -0.1059  0.1301
 1100YOPC   C2B15696   2.912  15.739   6.568  0.2872  0.1207  0.1685
 1100YOPC   D3B15697   2.934  15.396   6.617 -0.2761 -0.1933  0.0158
 1100YOPC   C4B15698   2.746  15.088   6.895  0.2505  0.3527 -0.2328
 1101YOPC   NC315699   5.015   1.626   5.171  0.2560 -0.0435  0.0330
 1101YOPC   PO415700   4.778   1.387   5.572 -0.1731  0.1789  0.1320
 1101YOPC   GL115701   4.749   1.667   5.907  0.0639 -0.3240 -0.3433
 1101YOPC   GL215702   4.537   1.932   5.929  0.1800 -0.2066 -0.1787
 1101YOPC   C1A15703   4.839   1.527   6.338  0.0667  0.2360 -0.1327
 1101YOPC   D2A15704   4.873   1.583   6.755 -0.3650  0.0220  0.1242
 1101YOPC   C3A15705   4.689   1.462   7.115 -0.0985 -0.0757 -0.0064
 1101YOPC   C4A15706   4.690   1.507   7.514 -0.0073 -0.0407  0.1365
 1101YOPC   C1B15707   4.651   2.067   6.205  0.2818 -0.1977 -0.1020
 1101YOPC   C2B15708   4.801   2.123   6.638 -0.1142  0.1306 -0.0153
 1101YOPC   D3B15709   4.635   2.433   7.019  0.0776 -0.0023 -0.0317
 1101YOPC   C4B15710   4.339   2.460   7.266 -0.1478  0.3496 -0.1514
 1102YOPC   NC315711   2.679   9.045   4.662  0.0777 -0.1065  0.1755
 1102YOPC   PO415712   2.497   8.915   4.997 -0.0330 -0.1769  0.0501
 1102YOPC   GL115713   2.513   9.000   5.500 -0.1740  0.1952 -0.3310
 1102YOPC   GL215714   2.730   8.809   5.758  0.0071  0.0677  0.0101
 1102YOPC   C1A15715   2.290   9.310   5.725 -0.1679 -0.1449  0.2471
 1102YOPC   D2A15716   2.050   9.400   6.079  0.1020  0.3530 -0.0821
 1102YOPC   C3A15717   2.113   9.283   6.476 -0.3671 -0.0951  0.0539
 1102YOPC   C4A15718   2.363   9.361   6.850 -0.0715  0.1690 -0.2296
 1102YOPC   C1B15719   2.622   9.045   6.073  0.1059 -0.0314 -0.2078
 1102YOPC   C2B15720   2.723   9.100   6.496  0.3825  0.0981  0.3418
 1102YOPC   D3B15721   2.809   9.563   6.603 -0.1278  0.0770 -0.0690
 1102YOPC   C4B15722   3.031   9.940   6.789 -0.0644  0.1097  0.3268
 1103YOPC   NC315723   5.646   4.671   5.320 -0.0339  0.0634 -0.0750
 1103YOPC   PO415724   5.324   4.421   5.572 -0.1296 -0.1867  0.1517
 1103YOPC   GL115725   5.350   4.410   5.982  0.0824 -0.0318 -0.1544
 1103YOPC   GL215726   5.406   4.181   6.139 -0.2870  0.0523 -0.1789
 1103YOPC   C1A15727   5.311   4.523   6.406  0.2112 -0.0408 -0.0623
 1103YOPC   D2A15728   5.065   4.395   6.869  0.2361  0.1608  0.1938
 1103YOPC   C3A15729   5.115   4.525   7.290 -0.0276 -0.0336  0.1382
 1103YOPC   C4A15730   4.903   4.595   7.650 -0.1060 -0.0892 -0.3155
 1103YOPC   C1B15731   5.084   4.055   6.444  0.0440  0.1332 -0.1580
 1103YOPC   C2B15732   5.040   3.875   6.783  0.1187  0.3970  0.0454
 1103YOPC   D3B15733   4.997   3.924   7.181 -0.0790 -0.2623 -0.0669
 1103YOPC   C4B15734   4.998   4.103   7.625  0.0495 -0.2094  0.1037
 1104YOPC   NC315735   3.046  10.616   4.614  0.0167 -0.0040  0.0598
 1104YOPC   PO415736   3.499  10.600   4.796 -0.2903 -0.0735  0.0356
 1104YOPC   GL115737   3.264  10.261   5.038  0.1166  0.0395  0.0987
 1104YOPC   GL215738   2.939  10.356   5.068 -0.3649  0.2224 -0.0740
 1104YOPC   C1A15739   3.154   9.846   5.285  0.1872  0.0782 -0.1123
 1104YOPC   D2A15740   3.199   9.520   5.391  0.1054  0.0139  0.0139
 1104YOPC   C3A15741   3.241   9.728   5.837  0.0215 -0.0896 -0.0586
 1104YOPC   C4A15742   3.018   9.799   6.206  0.1938  0.0781 -0.1359
 1104YOPC   C1B15743   2.742  10.076   5.388 -0.1608  0.0008 -0.0888
 1104YOPC   C2B15744   2.742   9.915   5.811 -0.3077 -0.0855  0.2300
 1104YOPC   D3B15745   2.567  10.139   6.222 -0.0674 -0.1036 -0.2565
 1104YOPC   C4B15746   2.498  10.060   6.630  0.2733 -0.1657  0.3215
 1105YOPC   NC315747   6.206   2.253   5.486  0.3807  0.2063  0.1554
 1105YOPC   PO415748   6.229   1.868   5.642 -0.1422  0.1351  0.0008
 1105YOPC   GL115749   6.420   1.754   6.022  0.3395  0.0501  0.1544
 1105YOPC   GL215750   6.458   1.410   6.188 -0.1820 -0.3823 -0.3423
 1105YOPC   C1A15751   6.256   1.833   6.374 -0.0546 -0.0797  0.1919
 1105YOPC   D2A15752   6.139   1.947   6.767 -0.3096  0.1301  0.0167
 1105YOPC   C3A15753   5.754   1.720   6.947 -0.0769  0.0169 -0.1263
 1105YOPC   C4A15754   5.733   1.283   7.076  0.0459  0.2159 -0.1100
 1105YOPC   C1B15755   6.737   1.160   6.321 -0.0069 -0.3256 -0.4039
 1105YOPC   C2B15756   6.815   1.148   6.785 -0.2199 -0.1097  0.0655
 1105YOPC   D3B15757   6.550   0.872   7.027 -0.0753  0.1825  0.5271
 1105YOPC   C4B15758   6.492   0.551   7.322 -0.2810  0.2989 -0.0904
 1106YOPC   NC315759  12.286   2.939   4.989 -0.1290 -0.1067  0.1299
 1106YOPC   PO415760  12.164   2.437   4.948  0.2491  0.4520 -0.2654
 1106YOPC   GL115761  12.216   2.595   5.376  0.2827 -0.2581 -0.2107
 1106YOPC   GL215762  12.037   2.398   5.670 -0.3442 -0.0846 -0.1474
 1106YOPC   C1A15763  12.576   2.801   5.667  0.1012 -0.1847 -0.1885
 1106YOPC   D2A15764  12.523   3.045   6.063  0.0580  0.0827 -0.2821
 1106YOPC   C3A15765  12.816   3.075   6.373 -0.2111  0.1551 -0.1214
 1106YOPC   C4A15766  12.791   2.760   6.751  0.3385 -0.1168 -0.1025
 1106YOPC   C1B15767  12.090   2.419   6.119  0.0235 -0.3001 -0.0914
 1106YOPC   C2B15768  12.028   2.583   6.504  0.0045  0.2239 -0.2016
 1106YOPC   D3B15769  11.821   2.755   6.862 -0.3529  0.0085  0.2180
 1106YOPC   C4B15770  11.431   2.995   7.004 -0.2235  0.0618 -0.0458
 1107YOPC   NC315771  14.061   0.716   4.996  0.3888 -0.0102 -0.1429
 1107YOPC   PO415772  14.202   0.310   5.067 -0.0183 -0.0836  0.1084
 1107YOPC   GL115773  14.145   0.243   5.576 -0.0645 -0.1694  0.1361
 1107YOPC   GL215774  13.851   0.177   5.596  0.1167  0.0903 -0.0893
 1107YOPC   C1A15775  14.187   0.285   5.950  0.1784 -0.0398  0.0623
 1107YOPC   D2A15776  14.314   0.536   6.329 -0.1021  0.0754 -0.1467
 1107YOPC   C3A15777  13.949   0.817   6.312 -0.0503 -0.2155 -0.3319
 1107YOPC   C4A15778  13.507   0.748   6.250 -0.1684 -0.1393  0.0489
 1107YOPC   C1B15779  13.773   0.190   6.065  0.0374  0.1827 -0.0452
 1107YOPC   C2B15780  13.672   0.244   6.473 -0.1908 -0.1579 -0.2225
 1107YOPC   D3B15781  13.736   0.588   6.708  0.2823  0.1688 -0.0344
 1107YOPC   C4B15782  13.892   0.811   7.119 -0.2028 -0.1467  0.1878
 1108YOPC   NC315783   5.447  14.738   4.774 -0.3276  0.0755  0.0353
 1108YOPC   PO415784   5.100  15.043   4.907 -0.0866 -0.3114 -0.1254
 1108YOPC   GL115785   5.440  15.010   5.208 -0.2184  0.0358  0.0623
 1108YOPC   GL215786   5.282  15.146   5.432  0.0436 -0.2381 -0.2493
 1108YOPC   C1A15787   5.682  14.751   5.579  0.0418  0.1022  0.1901
 1108YOPC   D2A15788   5.826  14.614   5.840  0.1556  0.3006  0.0253
 1108YOPC   C3A15789   5.712  14.568   6.285 -0.0371 -0.0062  0.0752
 1108YOPC   C4A15790   5.474  14.527   6.694  0.2568 -0.3347  0.2140
 1108YOPC   C1B15791   5.471  15.099   5.821  0.2119 -0.0061 -0.2238
 1108YOPC   C2B15792   5.421  14.992   6.131 -0.0279  0.1295 -0.2266
 1108YOPC   D3B15793   5.598  15.068   6.468  0.2079  0.1690 -0.0178
 1108YOPC   C4B15794   5.876  14.859   6.775  0.4322 -0.1102 -0.0109
 1109YOPC   NC315795  16.608   9.388   5.431 -0.2073 -0.1192  0.0952
 1109YOPC   PO415796  16.534   8.933   5.495 -0.0489 -0.1562 -0.3074
 1109YOPC   GL115797  16.954   9.144   5.827  0.2351  0.0937 -0.2538
 1109YOPC   GL215798  16.695   9.286   5.921 -0.1803 -0.0009  0.0067
 1109YOPC   C1A15799  17.264   9.300   6.188 -0.2174  0.2329  0.3569
 1109YOPC   D2A15800  17.233   9.198   6.470  0.1638  0.1940 -0.2941
 1109YOPC   C3A15801  17.370   8.851   6.644 -0.1550 -0.0750 -0.1142
 1109YOPC   C4A15802  17.680   8.676   6.724 -0.1856  0.0788 -0.1088
 1109YOPC   C1B15803  16.770   8.979   6.355  0.3213 -0.0750 -0.1426
 1109YOPC   C2B15804  16.868   8.902   6.708 -0.1451 -0.2974  0.2591
 1109YOPC   D3B15805  17.046   9.199   6.902  0.1933  0.1434  0.1094
 1109YOPC   C4B15806  17.171   9.246   7.353  0.0877 -0.1303  0.0992
 1110YOPC   NC315807  10.179   2.993   5.007 -0.2739  0.2688  0.4196
 1110YOPC   PO415808   9.825   2.697   5.211 -0.0443 -0.1114 -0.1935
 1110YOPC   GL115809   9.803   2.856   5.671  0.1171  0.1796  0.1546
 1110YOPC   GL215810   9.625   3.108   5.752 -0.2681 -0.0216  0.0863
 1110YOPC   C1A15811   9.413   2.765   6.039  0.4381 -0.1321 -0.2042
 1110YOPC   D2A15812   8.950   2.932   6.249  0.0978  0.0504  0.0005
 1110YOPC   C3A15813   8.929   2.932   6.620  0.4524 -0.0721  0.0219
 1110YOPC   C4A15814   9.213   2.778   6.937 -0.0649  0.2331 -0.0227
 1110YOPC   C1B15815   9.778   3.042   6.172 -0.0076  0.0275  0.2205
 1110YOPC   C2B15816   9.823   3.159   6.533  0.0210 -0.1413 -0.2077
 1110YOPC   D3B15817  10.200   2.886   6.644 -0.1580  0.2700 -0.1288
 1110YOPC   C4B15818  10.557   2.864   6.646  0.1008  0.2396 -0.3649
 1111YOPC   NC315819  10.012  10.234   5.723 -0.3042  0.0401 -0.2565
 1111YOPC   PO415820   9.810  10.514   5.479 -0.0387  0.0100 -0.0576
 1111YOPC   GL115821   9.601  10.925   5.677 -0.2609  0.2201  0.1057
 1111YOPC   GL215822   9.301  10.974   5.918 -0.0653 -0.1951  0.0240
 1111YOPC   C1A15823   9.852  11.238   5.826 -0.1049  0.1908  0.0217
 1111YOPC   D2A15824  10.294  11.233   5.986  0.3163 -0.2290  0.3738
 1111YOPC   C3A15825  10.407  11.172   6.488 -0.2070  0.1051  0.1914
 1111YOPC   C4A15826  10.449  11.187   6.985 -0.2871 -0.1265 -0.1187
 1111YOPC   C1B15827   9.223  10.973   6.394 -0.0187  0.0684 -0.0176
 1111YOPC   C2B15828   9.490  10.858   6.664  0.1825  0.1191 -0.2217
 1111YOPC   D3B15829   9.802  10.509   6.755  0.1369 -0.3188  0.3601
 1111YOPC   C4B15830   9.920  10.219   6.954  0.0973  0.2053  0.2505
 1112YOPC   NC315831   9.371   7.494   5.579  0.0112 -0.5397 -0.0576
 1112YOPC   PO415832   9.636   7.818   5.641  0.1461  0.1370 -0.0451
 1112YOPC   GL115833   9.389   7.769   5.997 -0.0933  0.4175 -0.2153
 1112YOPC   GL215834   9.644   7.903   6.121 -0.1413  0.2868  0.1065
 1112YOPC   C1A15835   9.365   7.790   6.546 -0.1176 -0.0611  0.1442
 1112YOPC   D2A15836   9.237   7.746   7.001  0.0545 -0.3066  0.0426
 1112YOPC   C3A15837   9.295   7.571   7.467  0.1238 -0.0460 -0.0705
 1112YOPC   C4A15838   9.383   7.788   7.811 -0.3791 -0.2845  0.0982
 1112YOPC   C1B15839   9.608   8.215   6.524 -0.0685 -0.1376 -0.0521
 1112YOPC   C2B15840   9.267   8.309   6.767  0.2478 -0.0980  0.2925
 1112YOPC   D3B15841   8.940   8.679   6.694  0.3370 -0.1849  0.0192
 1112YOPC   C4B15842   8.698   9.045   6.799 -0.1084  0.1647  0.1310
 1113YOPC   NC315843   1.229  17.565   5.604  0.1358 -0.3432 -0.0992
 1113YOPC   PO415844   1.557  17.237   5.664 -0.0358 -0.2868  0.2425
 1113YOPC   GL115845   1.524  17.577   6.013 -0.1477 -0.1519  0.4453
 1113YOPC   GL215846   1.685  17.900   6.043 -0.1857 -0.2792 -0.0699
 1113YOPC   C1A15847   1.351  17.762   6.403 -0.1174 -0.0705 -0.0124
 1113YOPC   D2A15848   1.481  17.948   6.764  0.1349  0.1163  0.1676
 1113YOPC   C3A15849   1.862  17.870   6.894  0.2398  0.0691 -0.0219
 1113YOPC   C4A15850   2.286  17.716   7.041 -0.0060  0.1449  0.1508
 1113YOPC   C1B15851   1.888  18.030   6.381 -0.2467 -0.1419  0.1475
 1113YOPC   C2B15852   1.861  18.402   6.680 -0.1751  0.1188 -0.1386
 1113YOPC   D3B15853   1.821  18.434   7.093 -0.5196  0.0504  0.0159
 1113YOPC   C4B15854   1.797  18.495   7.554 -0.2361 -0.1775 -0.1454
 1114YOPC   NC315855   2.682   1.867   5.752  0.3540 -0.1392 -0.0626
 1114YOPC   PO415856   2.557   1.400   5.802  0.3250  0.4886  0.1925
 1114YOPC   GL115857   2.442   1.339   6.358  0.1517 -0.0851  0.0062
 1114YOPC   GL215858   2.061   1.286   6.418  0.1251 -0.4796  0.1799
 1114YOPC   C1A15859   2.568   1.140   6.728 -0.0049  0.0564 -0.2691
 1114YOPC   D2A15860   2.616   0.697   6.937  0.2636 -0.1387  0.0387
 1114YOPC   C3A15861   2.780   0.811   7.373 -0.2613 -0.0061  0.1828
 1114YOPC   C4A15862   3.109   1.096   7.394  0.0324 -0.0228 -0.0988
 1114YOPC   C1B15863   2.195   1.773   6.516 -0.5408 -0.3398 -0.1830
 1114YOPC   C2B15864   2.428   2.089   6.722 -0.0536 -0.1583  0.1044
 1114YOPC   D3B15865   2.479   2.475   6.440 -0.0118  0.0006 -0.1787
 1114YOPC   C4B15866   2.874   2.546   6.280  0.3427  0.1224 -0.0961
 1115YOPC   NC315867   8.433   3.103   5.093  0.3424  0.3000 -0.1138
 1115YOPC   PO415868   8.916   3.196   5.118  0.1153  0.4045  0.0407
 1115YOPC   GL115869   8.846   3.030   5.484  0.0397 -0.0575 -0.2044
 1115YOPC   GL215870   9.042   3.228   5.673 -0.0284 -0.0958  0.0811
 1115YOPC   C1A15871   8.570   3.066   5.851  0.0619  0.1826  0.0714
 1115YOPC   D2A15872   8.470   3.026   6.300  0.0985  0.2874 -0.0107
 1115YOPC   C3A15873   8.133   2.790   6.357 -0.2868  0.1840  0.1819
 1115YOPC   C4A15874   7.841   2.665   6.662  0.1473  0.1410  0.1600
 1115YOPC   C1B15875   8.846   3.390   6.090 -0.0719  0.0958  0.2232
 1115YOPC   C2B15876   8.805   3.413   6.472  0.0928  0.2391 -0.0758
 1115YOPC   D3B15877   8.576   3.300   6.849 -0.0533  0.3110 -0.0470
 1115YOPC   C4B15878   8.459   3.313   7.271  0.1265  0.1051 -0.1701
 1116YOPC   NC315879   2.515  14.778   5.019 -0.0437 -0.5171 -0.0168
 1116YOPC   PO415880   2.475  14.797   5.532  0.0789 -0.0356  0.1965
 1116YOPC   GL115881   2.625  14.681   5.947 -0.2951 -0.3748  0.0554
 1116YOPC   GL215882   2.483  14.649   6.197 -0.0922 -0.0438 -0.1494
 1116YOPC   C1A15883   2.958  14.490   6.100  0.4323  0.0044 -0.0864
 1116YOPC   D2A15884   2.802  14.168   6.388  0.2039 -0.0518  0.1017
 1116YOPC   C3A15885   2.997  14.036   6.821 -0.0125 -0.0231 -0.2480
 1116YOPC   C4A15886   3.115  14.115   7.252 -0.3932  0.0577  0.0788
 1116YOPC   C1B15887   2.565  14.565   6.650  0.1743 -0.0300 -0.2342
 1116YOPC   C2B15888   2.524  14.566   7.034 -0.0206 -0.3237  0.1985
 1116YOPC   D3B15889   2.588  14.142   7.187  0.0642 -0.1268  0.3109
 1116YOPC   C4B15890   2.730  13.927   7.626 -0.3166 -0.2257 -0.0962
 1117YOPC   NC315891  18.313  10.915   4.570 -0.2569  0.0627  0.0328
 1117YOPC   PO415892  18.340  10.542   4.772 -0.2810  0.0381 -0.1078
 1117YOPC   GL115893  18.220  10.669   5.169 -0.0725  0.1281  0.0432
 1117YOPC   GL215894  18.114  10.428   5.418  0.1521  0.3955  0.0486
 1117YOPC   C1A15895  18.204  11.048   5.494 -0.2119 -0.0260  0.1162
 1117YOPC   D2A15896  18.460  11.409   5.454 -0.0344  0.1312  0.1117
 1117YOPC   C3A15897  18.782  11.575   5.576  0.0147 -0.1795 -0.0806
 1117YOPC   C4A15898  18.951  11.602   5.944 -0.3495 -0.0864  0.1634
 1117YOPC   C1B15899  18.350  10.091   5.690  0.2490 -0.4734  0.2247
 1117YOPC   C2B15900  18.526   9.849   5.930  0.0827 -0.3399 -0.2285
 1117YOPC   D3B15901  18.759   9.380   5.861 -0.0172  0.0795  0.3249
 1117YOPC   C4B15902  19.129   9.216   5.696 -0.1560 -0.1367  0.0497
 1118YOPC   NC315903  17.786  11.733   4.845  0.4365  0.1166  0.1535
 1118YOPC   PO415904  17.704  11.996   5.160 -0.0160  0.3360  0.2644
 1118YOPC   GL115905  17.875  12.051   5.557  0.2321  0.1808 -0.0434
 1118YOPC   GL215906  17.691  12.379   5.700 -0.6265  0.2180  0.1221
 1118YOPC   C1A15907  17.665  11.989   6.002 -0.2441  0.1040  0.1088
 1118YOPC   D2A15908  17.644  12.138   6.447 -0.0168  0.1632 -0.2954
 1118YOPC   C3A15909  17.666  11.744   6.634  0.2733  0.1162 -0.1265
 1118YOPC   C4A15910  17.909  11.556   6.889  0.0796  0.1151 -0.0651
 1118YOPC   C1B15911  17.778  12.544   6.169 -0.3594  0.1295 -0.1427
 1118YOPC   C2B15912  17.612  12.709   6.571 -0.2085 -0.1007 -0.3916
 1118YOPC   D3B15913  17.479  12.516   6.861 -0.2782  0.3447  0.1728
 1118YOPC   C4B15914  17.416  12.252   7.214 -0.1968  0.1212 -0.0123
 1119YOPC   NC315915   8.776  10.807   5.627  0.0752 -0.0791 -0.0451
 1119YOPC   PO415916   8.621  11.191   5.472  0.4056 -0.1226 -0.0565
 1119YOPC   GL115917   8.353  11.395   5.741  0.0149 -0.1449 -0.1602
 1119YOPC   GL215918   8.041  11.578   5.763  0.1271 -0.0587 -0.0516
 1119YOPC   C1A15919   8.341  11.625   6.193 -0.0402 -0.3018  0.3058
 1119YOPC   D2A15920   8.367  11.688   6.609 -0.0412 -0.0963 -0.0081
 1119YOPC   C3A15921   8.180  11.940   6.866 -0.0681 -0.1475 -0.0198
 1119YOPC   C4A15922   8.043  12.221   7.198 -0.0103  0.0951  0.1067
 1119YOPC   C1B15923   7.833  11.373   6.178  0.2102  0.1601 -0.1352
 1119YOPC   C2B15924   7.574  11.216   6.540  0.0595 -0.0689  0.0667
 1119YOPC   D3B15925   7.533  11.233   7.064 -0.1094  0.1145 -0.1734
 1119YOPC   C4B15926   7.577  11.212   7.512 -0.2855 -0.1165 -0.0194
 1120YOPC   NC315927  15.721   2.621   5.431 -0.0668  0.1819  0.0466
 1120YOPC   PO415928  15.228   2.591   5.375 -0.1471  0.1987 -0.0967
 1120YOPC   GL115929  14.968   2.589   5.762 -0.0465  0.2321  0.0941
 1120YOPC   GL215930  14.667   2.376   5.859 -0.0417 -0.1510 -0.2070
 1120YOPC   C1A15931  14.995   2.453   6.281  0.0858  0.2064  0.3310
 1120YOPC   D2A15932  14.807   2.141   6.649  0.1771  0.0095 -0.0729
 1120YOPC   C3A15933  14.681   1.772   6.975 -0.1044 -0.0781 -0.2217
 1120YOPC   C4A15934  14.867   1.679   7.284  0.4015 -0.2700  0.2786
 1120YOPC   C1B15935  14.263   2.375   5.827  0.3258 -0.0422  0.1793
 1120YOPC   C2B15936  13.999   2.350   6.047 -0.5510 -0.0025  0.3459
 1120YOPC   D3B15937  13.684   2.110   5.956  0.0557  0.4688 -0.0790
 1120YOPC   C4B15938  13.314   2.172   5.811  0.5656  0.0314 -0.1287
 1121YOPC   NC315939  18.928   3.936   5.662 -0.0849  0.3093 -0.0873
 1121YOPC   PO415940  18.678   3.548   5.579  0.1076 -0.1902 -0.2729
 1121YOPC   GL115941  18.663   3.491   6.012 -0.0324 -0.0522  0.0071
 1121YOPC   GL215942  18.992   3.470   6.236 -0.0029  0.1075 -0.2098
 1121YOPC   C1A15943  18.580   3.547   6.453  0.2824 -0.0849  0.1712
 1121YOPC   D2A15944  18.178   3.614   6.500 -0.1816  0.1815 -0.1107
 1121YOPC   C3A15945  17.973   3.255   6.688 -0.0131 -0.2362 -0.1755
 1121YOPC   C4A15946  18.156   3.000   7.011  0.3808 -0.1194 -0.1037
 1121YOPC   C1B15947  19.170   3.577   6.627 -0.0314 -0.2496  0.1314
 1121YOPC   C2B15948  19.575   3.565   6.977  0.0560  0.0952  0.1490
 1121YOPC   D3B15949  19.747   3.861   7.203  0.0800  0.0363 -0.0850
 1121YOPC   C4B15950  19.716   4.354   7.112 -0.2295 -0.1329  0.4616
 1122YOPC   NC315951  18.314  14.238   5.082  0.0188 -0.1240  0.4060
 1122YOPC   PO415952  18.131  14.584   5.238 -0.2593 -0.1099 -0.1960
 1122YOPC   GL115953  17.982  14.774   5.552  0.0924  0.0188  0.0476
 1122YOPC   GL215954  17.636  14.776   5.634 -0.0022 -0.0782  0.0487
 1122YOPC   C1A15955  18.241  14.860   5.880 -0.1389 -0.3055 -0.1272
 1122YOPC   D2A15956  18.308  15.065   6.168  0.1066 -0.2121  0.0356
 1122YOPC   C3A15957  18.190  15.050   6.574 -0.3164  0.0272  0.0088
 1122YOPC   C4A15958  18.373  15.007   7.068  0.0093 -0.0853 -0.1399
 1122YOPC   C1B15959  17.466  14.679   6.020 -0.2370 -0.2434 -0.0405
 1122YOPC   C2B15960  17.362  14.640   6.359 -0.0997  0.2084  0.0027
 1122YOPC   D3B15961  17.573  14.556   6.747 -0.1029 -0.0377  0.2163
 1122YOPC   C4B15962  17.894  14.724   6.949  0.1158  0.0172  0.2845
 1123YOPC   NC315963   4.573  11.668   4.759 -0.1173 -0.1436  0.0686
 1123YOPC   PO415964   4.410  12.175   4.701  0.0953  0.1742 -0.0555
 1123YOPC   GL115965   4.582  12.233   5.076  0.0791  0.0117 -0.0187
 1123YOPC   GL215966   4.418  12.229   5.348 -0.0228  0.0644  0.2351
 1123YOPC   C1A15967   4.809  11.901   5.350  0.5136 -0.0901  0.0077
 1123YOPC   D2A15968   4.897  11.782   5.829  0.0179 -0.0895 -0.3498
 1123YOPC   C3A15969   4.784  12.004   6.257 -0.2724  0.5073 -0.3432
 1123YOPC   C4A15970   4.512  11.954   6.494  0.4555  0.0868 -0.0283
 1123YOPC   C1B15971   4.300  11.841   5.588 -0.0014 -0.1011  0.1369
 1123YOPC   C2B15972   3.959  11.878   5.830 -0.0652  0.2412 -0.0204
 1123YOPC   D3B15973   3.821  11.799   6.229  0.1302  0.0761  0.1716
 1123YOPC   C4B15974   3.704  11.878   6.643 -0.3372  0.0593  0.2210
 1124YOPC   NC315975  13.186   0.523   5.222 -0.0595  0.2155 -0.0667
 1124YOPC   PO415976  13.216   0.952   5.385  0.2862 -0.2659  0.1206
 1124YOPC   GL115977  13.196   1.166   5.843 -0.1795 -0.0432  0.0227
 1124YOPC   GL215978  12.957   0.988   5.916 -0.1785 -0.0303 -0.0814
 1124YOPC   C1A15979  13.462   1.211   6.122  0.1535  0.1937  0.0323
 1124YOPC   D2A15980  13.801   1.284   6.341 -0.1420 -0.1746  0.0716
 1124YOPC   C3A15981  13.909   1.734   6.301  0.0715  0.0613 -0.0767
 1124YOPC   C4A15982  14.130   2.015   6.374  0.0456 -0.2394  0.0949
 1124YOPC   C1B15983  12.654   1.015   6.290  0.2399 -0.1697 -0.2475
 1124YOPC   C2B15984  12.636   1.281   6.739 -0.0155 -0.1958 -0.0005
 1124YOPC   D3B15985  12.542   1.172   7.166 -0.0703 -0.0805  0.0053
 1124YOPC   C4B15986  12.530   1.116   7.611 -0.2132  0.2577  0.2304
 1125YOPC   NC315987   0.311  18.724   5.526 -0.0495  0.2138 -0.3670
 1125YOPC   PO415988   0.234  19.134   5.570  0.1337  0.1538 -0.0517
 1125YOPC   GL115989   0.334  19.049   5.990  0.1388  0.0395  0.3507
 1125YOPC   GL215990   0.427  18.678   6.066  0.0765 -0.1429  0.0305
 1125YOPC   C1A15991   0.596  19.014   6.415 -0.3566 -0.1356  0.2971
 1125YOPC   D2A15992   0.712  19.145   6.778 -0.0186  0.1014  0.0659
 1125YOPC   C3A15993   0.624  19.542   6.902 -0.1185  0.1311  0.0503
 1125YOPC   C4A15994   0.701  19.656   7.307  0.0695 -0.3750 -0.0856
 1125YOPC   C1B15995   0.178  18.734   6.440  0.0419  0.0141 -0.2105
 1125YOPC   C2B15996   0.209  18.947   6.732 -0.2951  0.1185  0.1216
 1125YOPC   D3B15997   0.071  18.883   7.016 -0.0586  0.0995  0.1759
 1125YOPC   C4B15998  -0.340  18.871   7.308  0.0245  0.0105 -0.2994
 1126YOPC   NC315999  10.468  18.165   5.239  0.1065  0.0032  0.1333
 1126YOPC   PO416000  10.140  18.358   5.315  0.0554 -0.1140 -0.3773
 1126YOPC   GL116001  10.056  18.386   5.765 -0.0991 -0.2727 -0.1110
 1126YOPC   GL216002  10.044  17.997   5.877  0.1432 -0.0228 -0.1268
 1126YOPC   C1A16003  10.279  18.446   6.108 -0.1707  0.0263 -0.4204
 1126YOPC   D2A16004  10.338  18.227   6.590 -0.2015  0.1973  0.1984
 1126YOPC   C3A16005  10.265  18.376   6.961  0.1440 -0.0266  0.0734
 1126YOPC   C4A16006  10.344  18.544   7.378  0.3664 -0.1459 -0.2854
 1126YOPC   C1B16007  10.179  17.866   6.196 -0.0854 -0.3446  0.0592
 1126YOPC   C2B16008  10.307  17.662   6.610  0.4602  0.1565  0.0872
 1126YOPC   D3B16009  10.274  17.871   7.005 -0.4375 -0.0622 -0.0494
 1126YOPC   C4B16010  10.216  17.986   7.480 -0.1160  0.1653 -0.1298
 1127YOPC   NC316011   9.768  12.325   5.112  0.3492  0.0273  0.0857
 1127YOPC   PO416012   9.866  11.984   5.319 -0.0352 -0.0082 -0.0191
 1127YOPC   GL116013   9.771  11.854   5.748  0.3742  0.1216 -0.2120
 1127YOPC   GL216014   9.457  11.628   5.718 -0.2269  0.1807  0.3005
 1127YOPC   C1A16015   9.739  11.921   6.229 -0.0347  0.0475 -0.0064
 1127YOPC   D2A16016   9.728  12.199   6.593  0.0783  0.0318 -0.0617
 1127YOPC   C3A16017   9.913  12.140   7.003 -0.1002 -0.0216  0.1381
 1127YOPC   C4A16018   9.932  11.869   7.422  0.1393 -0.2094 -0.0098
 1127YOPC   C1B16019   9.412  11.433   6.139  0.0745  0.4327 -0.0885
 1127YOPC   C2B16020   9.374  11.490   6.562  0.1282  0.0020  0.3075
 1127YOPC   D3B16021   9.421  11.256   6.966  0.1104 -0.0045  0.1006
 1127YOPC   C4B16022   9.628  11.415   7.332  0.0193 -0.2221  0.2339
 1128YOPC   NC316023   6.102   6.833   5.505  0.3454  0.0960  0.0797
 1128YOPC   PO416024   6.236   6.824   5.819  0.1530 -0.1723  0.2035
 1128YOPC   GL116025   6.061   6.930   6.094 -0.0993  0.1250  0.0788
 1128YOPC   GL216026   5.838   7.156   6.006  0.2527 -0.1929  0.0614
 1128YOPC   C1A16027   5.957   6.955   6.565  0.0687 -0.0627  0.0428
 1128YOPC   D2A16028   5.532   6.926   6.753 -0.3139  0.2531 -0.2175
 1128YOPC   C3A16029   5.440   6.556   7.037 -0.0483  0.1945  0.1337
 1128YOPC   C4A16030   5.199   6.210   7.039 -0.2546  0.2495 -0.0501
 1128YOPC   C1B16031   5.562   7.105   6.273  0.2567  0.2997  0.1640
 1128YOPC   C2B16032   5.165   7.181   6.571 -0.1330  0.0994  0.1427
 1128YOPC   D3B16033   4.803   7.259   6.782 -0.0091  0.0942  0.0065
 1128YOPC   C4B16034   4.522   7.385   7.017 -0.2202  0.1772  0.0492
 1129YOPC   NC316035   2.519   6.086   5.169  0.1029 -0.2381 -0.0478
 1129YOPC   PO416036   2.108   5.968   5.251 -0.2683 -0.1690 -0.2800
 1129YOPC   GL116037   2.249   5.903   5.619  0.1065 -0.0784  0.2019
 1129YOPC   GL216038   2.491   5.800   5.628 -0.0337 -0.1957  0.2663
 1129YOPC   C1A16039   2.045   5.932   6.008  0.0069 -0.3983  0.0546
 1129YOPC   D2A16040   1.852   5.855   6.397  0.0167 -0.2037 -0.2598
 1129YOPC   C3A16041   1.990   6.024   6.802 -0.3145  0.1236  0.2086
 1129YOPC   C4A16042   1.802   6.069   7.118  0.1376 -0.1228 -0.0041
 1129YOPC   C1B16043   2.530   5.986   6.016  0.0612  0.3614 -0.0960
 1129YOPC   C2B16044   2.734   6.398   6.107  0.2083  0.0837 -0.1040
 1129YOPC   D3B16045   3.105   6.507   5.918  0.2881 -0.2025  0.2068
 1129YOPC   C4B16046   3.566   6.614   5.713 -0.2253  0.0345 -0.0591
 1130YOPC   NC316047   8.855  16.618   5.108 -0.2183 -0.2237  0.0675
 1130YOPC   PO416048   9.092  16.582   5.397 -0.0307 -0.0521  0.0273
 1130YOPC   GL116049   9.050  16.363   5.846  0.0852 -0.0235 -0.0956
 1130YOPC   GL216050   9.315  16.222   6.070 -0.3827 -0.1032  0.1034
 1130YOPC   C1A16051   8.845  16.617   6.266  0.2185 -0.1075 -0.1096
 1130YOPC   D2A16052   9.047  16.679   6.670 -0.4792 -0.0504 -0.0300
 1130YOPC   C3A16053   8.699  16.752   6.809 -0.0188  0.0371 -0.0876
 1130YOPC   C4A16054   8.549  16.467   7.151 -0.0131  0.0860 -0.3105
 1130YOPC   C1B16055   9.118  16.238   6.414  0.0093 -0.0803  0.1800
 1130YOPC   C2B16056   8.910  16.207   6.828 -0.1241  0.2824 -0.1650
 1130YOPC   D3B16057   8.525  15.947   6.814 -0.0112 -0.2177 -0.2539
 1130YOPC   C4B16058   8.393  15.547   6.890 -0.0700 -0.1345  0.1559
 1131YOPC   NC316059  15.326   8.248   5.600  0.1731 -0.1919 -0.0228
 1131YOPC   PO416060  15.296   7.781   5.748  0.4617  0.0721 -0.1152
 1131YOPC   GL116061  15.568   7.785   6.162  0.0984 -0.0753  0.0736
 1131YOPC   GL216062  15.874   7.731   5.929  0.2339  0.0543 -0.1630
 1131YOPC   C1A16063  15.795   7.723   6.573 -0.0299 -0.2329  0.1729
 1131YOPC   D2A16064  16.114   7.739   6.935 -0.0156  0.1172 -0.0374
 1131YOPC   C3A16065  16.033   7.287   7.167 -0.5078 -0.0028  0.0900
 1131YOPC   C4A16066  15.956   6.946   7.068  0.3042  0.1494  0.2087
 1131YOPC   C1B16067  16.214   8.021   6.131  0.0306 -0.1167 -0.2445
 1131YOPC   C2B16068  16.275   8.013   6.538 -0.2999  0.0787 -0.1955
 1131YOPC   D3B16069  16.560   7.955   6.853 -0.3996  0.4677 -0.0651
 1131YOPC   C4B16070  16.644   7.864   7.248 -0.1505  0.2500 -0.1175
 1132YOPC   NC316071   3.430   3.787   5.217  0.2863 -0.3576  0.0737
 1132YOPC   PO416072   3.432   4.209   5.600  0.0828 -0.0760  0.1579
 1132YOPC   GL116073   3.568   4.075   5.981 -0.0257 -0.1002 -0.5417
 1132YOPC   GL216074   3.974   4.137   5.937 -0.0947  0.0231  0.1901
 1132YOPC   C1A16075   3.699   4.149   6.399 -0.1316 -0.2148 -0.1076
 1132YOPC   D2A16076   3.695   4.330   6.664 -0.0089 -0.2904 -0.0752
 1132YOPC   C3A16077   3.358   4.375   6.881  0.0045 -0.1259 -0.1842
 1132YOPC   C4A16078   3.256   4.684   7.168  0.3406 -0.1585  0.2720
 1132YOPC   C1B16079   4.066   3.849   6.347 -0.2029 -0.2258 -0.1412
 1132YOPC   C2B16080   4.320   3.715   6.725  0.0369  0.1061 -0.1527
 1132YOPC   D3B16081   4.509   3.661   7.142 -0.1019 -0.1331  0.2705
 1132YOPC   C4B16082   4.594   3.727   7.461 -0.0585  0.2311 -0.2042
 1133YOPC   NC316083   0.720  14.046   5.233 -0.0398  0.1355 -0.0105
 1133YOPC   PO416084   0.458  14.405   5.360  0.0148  0.0158 -0.3568
 1133YOPC   GL116085   0.577  14.137   5.759 -0.2367 -0.1913  0.2390
 1133YOPC   GL216086   0.378  14.074   5.982 -0.4639  0.0128 -0.0697
 1133YOPC   C1A16087   0.872  13.895   6.117  0.0633  0.2772  0.0414
 1133YOPC   D2A16088   0.867  13.899   6.591  0.2349  0.4034  0.1564
 1133YOPC   C3A16089   0.655  14.209   6.839 -0.2021  0.0425  0.1055
 1133YOPC   C4A16090   0.575  14.245   7.212 -0.2030 -0.1503 -0.0668
 1133YOPC   C1B16091   0.679  14.337   6.265  0.3267  0.0001  0.2690
 1133YOPC   C2B16092   0.760  14.709   6.710 -0.3533 -0.2651  0.0016
 1133YOPC   D3B16093   0.734  14.714   7.178  0.0923  0.0378 -0.1663
 1133YOPC   C4B16094   0.463  14.565   7.570 -0.3969  0.1314  0.1703
 1134YOPC   NC316095  16.698  13.852   5.470  0.1829  0.1542 -0.1809
 1134YOPC   PO416096  16.283  13.611   5.501 -0.0642 -0.1252  0.2331
 1134YOPC   GL116097  16.251  13.699   5.981  0.0025  0.0179  0.0029
 1134YOPC   GL216098  16.432  13.497   6.197 -0.1790  0.1356 -0.2752
 1134YOPC   C1A16099  16.389  13.902   6.493 -0.1059  0.0432  0.1329
 1134YOPC   D2A16100  16.676  14.118   6.776  0.1482  0.4891 -0.1085
 1134YOPC   C3A16101  16.638  14.214   7.137 -0.0315 -0.0900  0.0739
 1134YOPC   C4A16102  16.388  14.205   7.436  0.2431  0.1284  0.0162
 1134YOPC   C1B16103  16.031  13.485   6.480  0.0783  0.2822 -0.0953
 1134YOPC   C2B16104  15.647  13.651   6.540 -0.0240  0.1756  0.2574
 1134YOPC   D3B16105  15.484  13.753   6.930  0.1291  0.4205 -0.1902
 1134YOPC   C4B16106  15.471  14.039   7.232 -0.0817  0.2350 -0.0340
 1135YOPC   NC316107  11.723   1.244   5.176  0.1156 -0.1941  0.2770
 1135YOPC   PO416108  11.793   1.287   5.614 -0.0861 -0.1408 -0.1896
 1135YOPC   GL116109  11.954   0.999   5.814  0.0282 -0.2792 -0.1396
 1135YOPC   GL216110  11.699   0.815   5.882  0.0697  0.0685 -0.1377
 1135YOPC   C1A16111  12.166   1.045   6.193  0.0133  0.2377  0.0752
 1135YOPC   D2A16112  12.189   0.763   6.463 -0.1896 -0.0512 -0.0226
 1135YOPC   C3A16113  12.292   0.816   6.955  0.1873 -0.0183  0.0659
 1135YOPC   C4A16114  12.447   0.664   7.369 -0.0112  0.0999  0.3253
 1135YOPC   C1B16115  11.537   0.931   6.492  0.0242  0.2183 -0.1494
 1135YOPC   C2B16116  11.513   1.103   6.944 -0.4059 -0.0014  0.1467
 1135YOPC   D3B16117  11.349   1.141   7.264 -0.1382  0.1567 -0.1017
 1135YOPC   C4B16118  11.546   0.964   7.620  0.1574  0.0301  0.3750
 1136YOPC   NC316119  13.616  14.864   4.850  0.2144 -0.0629 -0.1301
 1136YOPC   PO416120  13.532  14.871   5.265  0.1804  0.1994  0.0854
 1136YOPC   GL116121  13.602  14.926   5.655 -0.0836 -0.0311 -0.3915
 1136YOPC   GL216122  13.878  14.805   5.721  0.0358  0.0845 -0.1323
 1136YOPC   C1A16123  13.429  14.713   5.928  0.1688 -0.2986  0.4813
 1136YOPC   D2A16124  13.169  14.514   6.227  0.3869 -0.0098 -0.0668
 1136YOPC   C3A16125  13.373  14.237   6.634 -0.0234 -0.1362  0.1110
 1136YOPC   C4A16126  13.277  14.395   7.119 -0.0435  0.0229  0.0100
 1136YOPC   C1B16127  13.918  14.763   6.071 -0.2485 -0.0644  0.1485
 1136YOPC   C2B16128  13.787  14.358   6.346  0.2083 -0.0579 -0.1497
 1136YOPC   D3B16129  13.480  14.069   6.216 -0.0287  0.0401  0.0778
 1136YOPC   C4B16130  13.022  14.045   6.116  0.4327 -0.4326 -0.0314
 1137YOPC   NC316131   3.641   8.415   5.014  0.0235 -0.2810 -0.1675
 1137YOPC   PO416132   3.308   8.386   5.239  0.0368  0.1371 -0.1697
 1137YOPC   GL116133   3.443   8.267   5.448 -0.0544 -0.0933 -0.1011
 1137YOPC   GL216134   3.676   8.058   5.581 -0.2024  0.0179  0.4311
 1137YOPC   C1A16135   3.524   8.467   5.913 -0.0155 -0.0775  0.0932
 1137YOPC   D2A16136   3.672   8.532   6.414  0.2274 -0.1124  0.4636
 1137YOPC   C3A16137   3.948   8.252   6.520  0.1592  0.0367 -0.1780
 1137YOPC   C4A16138   4.181   8.240   6.825 -0.1245  0.0460  0.2445
 1137YOPC   C1B16139   3.504   7.969   6.007  0.1867  0.3434 -0.2258
 1137YOPC   C2B16140   3.502   7.917   6.337 -0.1007  0.0566  0.0030
 1137YOPC   D3B16141   3.794   7.683   6.539  0.1874 -0.1802 -0.0013
 1137YOPC   C4B16142   4.071   7.789   6.858  0.2325  0.1444  0.2397
 1138YOPC   NC316143   4.837  15.454   4.977  0.1889  0.4637  0.3778
 1138YOPC   PO416144   5.007  15.541   5.341  0.1844 -0.1775  0.1109
 1138YOPC   GL116145   5.119  15.682   5.791 -0.2819  0.1652  0.0545
 1138YOPC   GL216146   5.488  15.606   5.730  0.0936  0.1015 -0.1176
 1138YOPC   C1A16147   5.001  15.536   6.161 -0.0405 -0.2976 -0.0314
 1138YOPC   D2A16148   4.987  15.377   6.500  0.0810  0.0729 -0.0018
 1138YOPC   C3A16149   5.157  15.445   6.934 -0.2645  0.0392  0.0606
 1138YOPC   C4A16150   5.250  15.717   7.328  0.0566 -0.0182 -0.0338
 1138YOPC   C1B16151   5.466  15.473   6.152  0.2566  0.2285  0.0060
 1138YOPC   C2B16152   5.500  15.589   6.554 -0.2073  0.2216  0.0062
 1138YOPC   D3B16153   5.361  15.908   6.743  0.0891 -0.1512 -0.1958
 1138YOPC   C4B16154   5.395  16.179   7.124  0.1446  0.0703 -0.1574
 1139YOPC   NC316155  12.622   1.440   4.714 -0.0191  0.3553 -0.1550
 1139YOPC   PO416156  12.609   1.628   5.114  0.1477  0.0763 -0.2246
 1139YOPC   GL116157  12.743   1.797   5.563  0.2749  0.0107 -0.0846
 1139YOPC   GL216158  12.722   1.473   5.841 -0.2574 -0.2339  0.2289
 1139YOPC   C1A16159  12.860   1.911   5.985 -0.4331  0.0786  0.0036
 1139YOPC   D2A16160  12.885   2.180   6.418 -0.0879 -0.1545 -0.1616
 1139YOPC   C3A16161  13.181   2.549   6.442 -0.3312  0.2426 -0.2349
 1139YOPC   C4A16162  13.404   2.966   6.386  0.1151 -0.6624  0.2419
 1139YOPC   C1B16163  13.027   1.409   6.215  0.1787 -0.0519 -0.1128
 1139YOPC   C2B16164  13.148   1.445   6.665 -0.3085 -0.2116  0.0868
 1139YOPC   D3B16165  13.566   1.550   6.652 -0.2446 -0.3173  0.0529
 1139YOPC   C4B16166  13.847   1.912   6.787  0.2029 -0.0299 -0.0989
 1140YOPC   NC316167   2.372  17.369   5.606 -0.1917  0.1422 -0.0587
 1140YOPC   PO416168   2.441  17.760   5.531 -0.1864 -0.1371 -0.0624
 1140YOPC   GL116169   2.671  17.709   5.821 -0.0598  0.0730 -0.1443
 1140YOPC   GL216170   2.801  18.068   6.051 -0.0874  0.0857 -0.1460
 1140YOPC   C1A16171   2.959  17.451   6.018 -0.2156  0.2362  0.0713
 1140YOPC   D2A16172   3.366  17.226   6.175 -0.1932  0.2615  0.0462
 1140YOPC   C3A16173   3.538  17.024   6.601  0.0600  0.2262  0.0491
 1140YOPC   C4A16174   3.903  17.218   6.857  0.4432  0.5587  0.1551
 1140YOPC   C1B16175   3.057  17.917   6.430 -0.1098  0.0087  0.3580
 1140YOPC   C2B16176   3.126  18.000   6.823  0.0208 -0.1837 -0.0888
 1140YOPC   D3B16177   2.805  18.044   7.228 -0.1528 -0.1444 -0.0576
 1140YOPC   C4B16178   2.754  18.163   7.633  0.0257 -0.0881 -0.0021
 1141YOPC   NC316179   9.063  14.609   5.343  0.1101 -0.0151  0.2819
 1141YOPC   PO416180   8.746  14.266   5.480 -0.4020 -0.0182  0.3079
 1141YOPC   GL116181   8.676  14.570   5.793 -0.2565  0.1319 -0.0994
 1141YOPC   GL216182   8.503  14.981   5.791 -0.1585  0.1164 -0.2937
 1141YOPC   C1A16183   8.747  14.730   6.133 -0.1263  0.4530  0.1547
 1141YOPC   D2A16184   8.939  15.017   6.291 -0.1120  0.1897 -0.3636
 1141YOPC   C3A16185   9.029  15.099   6.705 -0.4923  0.1217 -0.4532
 1141YOPC   C4A16186   9.213  15.094   6.994 -0.0190  0.1763  0.2075
 1141YOPC   C1B16187   8.284  15.088   6.195 -0.2055  0.1934  0.1723
 1141YOPC   C2B16188   8.389  15.049   6.669 -0.0383 -0.0978 -0.0012
 1141YOPC   D3B16189   8.662  14.812   6.966  0.0501 -0.2072 -0.0950
 1141YOPC   C4B16190   8.970  14.618   7.145 -0.1966  0.0957  0.1223
 1142YOPC   NC316191  16.450   8.078   5.263  0.0174 -0.1647  0.1332
 1142YOPC   PO416192  16.687   8.223   5.554 -0.0273 -0.2289  0.1710
 1142YOPC   GL116193  16.633   8.324   5.966  0.5309  0.3729  0.1473
 1142YOPC   GL216194  16.636   8.688   5.967 -0.1743 -0.1213  0.3124
 1142YOPC   C1A16195  16.552   8.444   6.491  0.0927 -0.2383 -0.0002
 1142YOPC   D2A16196  16.583   8.431   6.927  0.0223 -0.0892 -0.0857
 1142YOPC   C3A16197  16.512   8.830   7.072 -0.1863 -0.0847 -0.0099
 1142YOPC   C4A16198  16.277   9.115   7.307 -0.0888  0.3122  0.0449
 1142YOPC   C1B16199  16.156   8.612   6.175  0.0901  0.3004  0.0705
 1142YOPC   C2B16200  16.002   8.525   6.634 -0.1788 -0.1030  0.4705
 1142YOPC   D3B16201  15.631   8.610   6.867  0.1025 -0.3536  0.2980
 1142YOPC   C4B16202  15.262   8.641   7.146  0.3171  0.1953  0.0474
 1143ERGO   ROH16203   7.321  18.441   5.939  0.2901  0.0736 -0.0058
 1143ERGO    R116204   7.358  18.319   6.191  0.1180  0.0937  0.0273
 1143ERGO    R216205   7.602  18.314   6.320  0.0930 -0.1663  0.0446
 1143ERGO    R316206   7.460  18.425   6.524  0.2123  0.0503  0.0161
 1143ERGO    R416207   7.686  18.287   6.654  0.0713 -0.1943  0.0499
 1143ERGO    R516208   7.474  18.262   6.700  0.0257  0.0611  0.0546
 1143ERGO    C116209   7.603  18.375   7.040  0.1706 -0.0070  0.0263
 1143ERGO    C216210   7.684  18.413   7.344  0.1366 -0.1323  0.4020
 1144ERGO   ROH16211  11.191   5.515   6.174  0.1664 -0.0622 -0.0266
 1144ERGO    R116212  11.169   5.481   6.455 -0.1227 -0.1950 -0.0604
 1144ERGO    R216213  11.282   5.658   6.635 -0.0361 -0.4432  0.1408
 1144ERGO    R316214  11.028   5.667   6.734 -0.1156 -0.1603 -0.0813
 1144ERGO    R416215  11.196   5.767   6.952 -0.1707 -0.5500  0.1413
 1144ERGO    R516216  11.051   5.605   6.963 -0.4107 -0.3573 -0.1029
 1144ERGO    C116217  10.908   5.840   7.228 -0.3236 -0.3466 -0.0668
 1144ERGO    C216218  10.843   5.988   7.468  0.3923 -0.0685 -0.0461
 1145ERGO   ROH16219   1.866  18.785   6.390  0.1489  0.0693 -0.0240
 1145ERGO    R116220   1.948  18.928   6.620  0.0429  0.0295  0.0386
 1145ERGO    R216221   1.790  18.950   6.846 -0.0368 -0.0574 -0.0079
 1145ERGO    R316222   2.010  18.851   6.971 -0.0588 -0.0431  0.0406
 1145ERGO    R416223   1.864  18.996   7.180  0.0347  0.1889 -0.0555
 1145ERGO    R516224   2.073  19.023   7.124  0.0358  0.0583 -0.1110
 1145ERGO    C116225   2.114  18.930   7.492  0.0556  0.3459 -0.0377
 1145ERGO    C216226   2.246  19.159   7.800  0.1424  0.2744 -0.0481
 1146ERGO   ROH16227  16.621   2.647   5.878 -0.1916 -0.1644  0.1521
 1146ERGO    R116228  16.541   2.709   6.143  0.0749  0.0722  0.1825
 1146ERGO    R216229  16.424   2.524   6.310 -0.1901  0.3427  0.3041
 1146ERGO    R316230  16.625   2.595   6.478  0.0494  0.0112  0.1690
 1146ERGO    R416231  16.450   2.422   6.639 -0.2168  0.3962  0.3225
 1146ERGO    R516232  16.517   2.623   6.690  0.2098  0.2955  0.2208
 1146ERGO    C116233  16.655   2.429   6.989 -0.0073  0.1162  0.2063
 1146ERGO    C216234  16.635   2.371   7.325  0.2221 -0.3188  0.0130
 1147ERGO   ROH16235   8.034   6.043   8.994 -0.0676 -0.0013 -0.1287
 1147ERGO    R116236   8.144   6.028   8.733 -0.2049  0.1941 -0.1995
 1147ERGO    R216237   8.143   6.242   8.558  0.1131  0.4725  0.1316
 1147ERGO    R316238   8.410   6.194   8.548  0.0296 -0.0079 -0.0517
 1147ERGO    R416239   8.340   6.278   8.277  0.0289  0.4299  0.0664
 1147ERGO    R516240   8.445   6.095   8.333 -0.2670  0.1620 -0.1876
 1147ERGO    C116241   8.705   6.253   8.103 -0.0983 -0.0459 -0.1436
 1147ERGO    C216242   8.842   6.592   7.874  0.2235  0.2582 -0.0327
 1148ERGO   ROH16243  16.227  14.213   6.158  0.2028 -0.1949  0.0618
 1148ERGO    R116244  16.001  14.110   6.295  0.0518 -0.1747 -0.1649
 1148ERGO    R216245  15.974  14.125   6.571  0.0421 -0.6714 -0.1278
 1148ERGO    R316246  15.738  14.243   6.508  0.2002 -0.2384  0.0615
 1148ERGO    R416247  15.717  14.184   6.793  0.1664 -0.5746 -0.0090
 1148ERGO    R516248  15.576  14.127   6.638  0.0502 -0.1690 -0.0628
 1148ERGO    C116249  15.345  14.330   6.863  0.3871 -0.1120  0.2379
 1148ERGO    C216250  15.184  14.593   7.038  0.0825  0.1258 -0.1529
 1149ERGO   ROH16251   6.040  15.725   5.625  0.1599 -0.0527 -0.0524
 1149ERGO    R116252   5.990  15.542   5.835  0.0681 -0.1503 -0.1586
 1149ERGO    R216253   5.921  15.278   5.788  0.2625 -0.1769 -0.3130
 1149ERGO    R316254   6.133  15.227   5.950  0.1427 -0.1058 -0.1296
 1149ERGO    R416255   5.935  15.022   6.020  0.0991 -0.0834 -0.1967
 1149ERGO    R516256   6.035  15.159   6.158 -0.0108 -0.0258 -0.1756
 1149ERGO    C116257   6.143  14.825   6.307 -0.1085  0.0379  0.0432
 1149ERGO    C216258   6.278  14.592   6.509  0.1583 -0.2177  0.1083
 1150ERGO   ROH16259  15.887   5.948   5.803  0.1189  0.0176  0.0962
 1150ERGO    R116260  16.111   5.957   5.976  0.1140  0.2655  0.0910
 1150ERGO    R216261  16.141   6.151   6.170 -0.3187  0.0534  0.3773
 1150ERGO    R316262  16.170   5.936   6.335  0.1793 -0.1416  0.0638
 1150ERGO    R416263  16.358   6.136   6.439 -0.4237  0.2634  0.4773
 1150ERGO    R516264  16.404   5.930   6.384  0.1925  0.4488  0.1781
 1150ERGO    C116265  16.511   5.926   6.750 -0.0174  0.2027  0.2411
 1150ERGO    C216266  16.543   5.826   6.996 -0.0115 -0.0349  0.0571
 1151ERGO   ROH16267  13.006   9.992   9.891 -0.1679 -0.1602 -0.1323
 1151ERGO    R116268  13.200   9.999   9.685 -0.0914 -0.0340 -0.0581
 1151ERGO    R216269  13.177   9.851   9.453  0.1063 -0.0693 -0.0617
 1151ERGO    R316270  13.210  10.093   9.334 -0.0252 -0.0515 -0.0601
 1151ERGO    R416271  13.333   9.903   9.149  0.0338  0.0192 -0.0834
 1151ERGO    R516272  13.426  10.082   9.233 -0.0384  0.0567 -0.0947
 1151ERGO    C116273  13.455  10.161   8.861 -0.1318  0.0875 -0.0944
 1151ERGO    C216274  13.352  10.248   8.588  0.3123  0.1194  0.3902
 1152ERGO   ROH16275   8.325  10.169   6.059 -0.0542  0.1295 -0.0767
 1152ERGO    R116276   8.492  10.231   6.279  0.0294  0.0982 -0.1311
 1152ERGO    R216277   8.473  10.100   6.521 -0.1501  0.3327 -0.0137
 1152ERGO    R316278   8.738  10.056   6.481 -0.2057 -0.0614  0.0211
 1152ERGO    R416279   8.705  10.062   6.774 -0.1688  0.4457  0.0212
 1152ERGO    R516280   8.846  10.181   6.655 -0.0302  0.0874 -0.1897
 1152ERGO    C116281   9.090   9.997   6.884 -0.2317  0.1416  0.0744
 1152ERGO    C216282   9.318   9.896   7.061  0.1252  0.1288 -0.1423
 1153ERGO   ROH16283  10.405   7.878   5.859 -0.0994 -0.0916 -0.0037
 1153ERGO    R116284  10.275   7.759   6.081 -0.2120 -0.0210 -0.0318
 1153ERGO    R216285  10.365   7.789   6.340 -0.2369 -0.0918 -0.0167
 1153ERGO    R316286  10.111   7.875   6.385 -0.1911  0.0658 -0.0527
 1153ERGO    R416287  10.199   7.763   6.642 -0.2899  0.0176 -0.0359
 1153ERGO    R516288  10.018   7.710   6.531 -0.3103  0.1245 -0.0589
 1153ERGO    C116289   9.864   7.829   6.859 -0.2778  0.2293 -0.0807
 1153ERGO    C216290   9.725   7.836   7.191  0.0762  0.3067 -0.2889
 1154ERGO   ROH16291   0.377   2.182   6.113 -0.0485 -0.1262  0.0486
 1154ERGO    R116292   0.241   2.217   6.358 -0.0468 -0.0848  0.0441
 1154ERGO    R216293   0.176   2.005   6.524 -0.0308 -0.0563  0.0894
 1154ERGO    R316294   0.309   2.153   6.710 -0.0360 -0.0091  0.0554
 1154ERGO    R416295   0.089   2.027   6.858 -0.1101  0.1279  0.0576
 1154ERGO    R516296   0.136   2.240   6.851 -0.0451  0.1095 -0.0297
 1154ERGO    C116297   0.163   2.179   7.227 -0.1611  0.2794  0.0073
 1154ERGO    C216298   0.105   2.300   7.557  0.2402 -0.4282 -0.0498
 1155ERGO   ROH16299  15.870   8.163   6.937  0.0575  0.0271 -0.0108
 1155ERGO    R116300  16.123   8.264   7.015  0.0654 -0.0028  0.0041
 1155ERGO    R216301  16.156   8.431   7.233  0.0665  0.0315 -0.0192
 1155ERGO    R316302  16.337   8.243   7.308  0.0221  0.0112  0.0361
 1155ERGO    R416303  16.371   8.461   7.501 -0.0343 -0.0130  0.0673
 1155ERGO    R516304  16.528   8.370   7.380  0.0043 -0.0137  0.1220
 1155ERGO    C116305  16.668   8.303   7.728 -0.1347 -0.0580  0.1694
 1155ERGO    C216306  16.892   8.421   7.940  0.0875  0.0196  0.1501
 1156ERGO   ROH16307   5.528   4.919   5.778 -0.1816  0.0043 -0.0774
 1156ERGO    R116308   5.626   4.898   6.043 -0.1158  0.0148 -0.1008
 1156ERGO    R216309   5.679   5.119   6.200 -0.1936  0.0197 -0.0803
 1156ERGO    R316310   5.513   4.995   6.375 -0.0958 -0.0894 -0.0633
 1156ERGO    R416311   5.603   5.236   6.516 -0.1593 -0.0843 -0.0329
 1156ERGO    R516312   5.615   5.031   6.589 -0.0544 -0.0961 -0.0822
 1156ERGO    C116313   5.403   5.188   6.865 -0.0476 -0.2472  0.0106
 1156ERGO    C216314   5.333   5.364   7.125 -0.0074 -0.2145  0.0631
 1157ERGO   ROH16315   3.890   8.550   5.433  0.0145  0.1219 -0.0868
 1157ERGO    R116316   4.003   8.485   5.684  0.1935  0.1892 -0.1492
 1157ERGO    R216317   4.201   8.637   5.802  0.0805  0.3741 -0.2074
 1157ERGO    R316318   4.028   8.642   6.011  0.1700  0.1459 -0.1241
 1157ERGO    R416319   4.294   8.668   6.134  0.2295  0.2146 -0.2329
 1157ERGO    R516320   4.141   8.520   6.184  0.3269  0.0919 -0.2537
 1157ERGO    C116321   4.185   8.690   6.523  0.4004 -0.0925 -0.1696
 1157ERGO    C216322   4.426   8.765   6.730  0.0332  0.2557 -0.1727
 1158ERGO   ROH16323  14.805  14.935   6.020  0.1151  0.1135  0.0213
 1158ERGO    R116324  14.740  15.133   6.211  0.0924  0.0813  0.0467
 1158ERGO    R216325  14.552  15.093   6.410  0.1640  0.0018  0.0960
 1158ERGO    R316326  14.756  15.167   6.573  0.1797  0.0749  0.0441
 1158ERGO    R416327  14.521  15.157   6.748  0.1967  0.1281  0.0757
 1158ERGO    R516328  14.658  15.326   6.723  0.1864  0.1279 -0.0045
 1158ERGO    C116329  14.695  15.265   7.098  0.2306  0.2701  0.0152
 1158ERGO    C216330  14.842  15.300   7.456 -0.0775 -0.2131  0.2693
 1159ERGO   ROH16331   2.301   0.758   7.423  0.0542  0.3744  0.0641
 1159ERGO    R116332   2.190   0.908   7.211  0.0048  0.0897 -0.1172
 1159ERGO    R216333   2.109   0.793   6.973 -0.2238 -0.2620  0.1217
 1159ERGO    R316334   1.875   0.919   7.030 -0.1111 -0.0254  0.0761
 1159ERGO    R416335   1.898   0.935   6.738 -0.1882 -0.3193  0.0544
 1159ERGO    R516336   1.866   1.101   6.875 -0.0182 -0.1632 -0.0929
 1159ERGO    C116337   1.556   1.135   6.655 -0.0617 -0.1306 -0.0275
 1159ERGO    C216338   1.321   1.113   6.339 -0.2722  0.0182  0.1290
 1160ERGO   ROH16339  13.877  12.483   6.071  0.2773 -0.0817  0.0191
 1160ERGO    R116340  13.839  12.320   6.299  0.4062  0.1185  0.1891
 1160ERGO    R216341  13.878  12.413   6.557  0.1373  0.4785  0.1151
 1160ERGO    R316342  13.624  12.322   6.593  0.2485  0.1411  0.0722
 1160ERGO    R416343  13.724  12.373   6.863  0.0924  0.3747  0.0779
 1160ERGO    R516344  13.636  12.187   6.790  0.3702  0.2298  0.1205
 1160ERGO    C116345  13.396  12.265   7.075  0.1705 -0.0024  0.0159
 1160ERGO    C216346  13.261  12.505   7.380 -0.1463  0.0386  0.0201
 1161ERGO   ROH16347  11.320   9.474   6.366  0.1295  0.1147 -0.0856
 1161ERGO    R116348  11.224   9.480   6.632 -0.0072  0.0705 -0.1329
 1161ERGO    R216349  11.245   9.264   6.802  0.0199  0.0849 -0.1194
 1161ERGO    R316350  11.367   9.444   6.965 -0.1550  0.1511 -0.0596
 1161ERGO    R416351  11.250   9.247   7.147  0.1934 -0.1338 -0.1301
 1161ERGO    R516352  11.220   9.463   7.153 -0.1021 -0.1722  0.0203
 1161ERGO    C116353  11.367   9.407   7.501  0.1305 -0.1990 -0.0802
 1161ERGO    C216354  11.351   9.371   7.809  0.2632  0.0554 -0.0202
 1162ERGO   ROH16355   7.967   1.766   5.672  0.1713 -0.0675 -0.0046
 1162ERGO    R116356   7.890   1.956   5.868  0.1951  0.0534 -0.1119
 1162ERGO    R216357   7.877   1.895   6.137 -0.1066  0.1200 -0.1110
 1162ERGO    R316358   8.041   2.110   6.161  0.0985 -0.0443 -0.0088
 1162ERGO    R416359   7.987   2.028   6.436 -0.0757 -0.0582 -0.0417
 1162ERGO    R516360   7.960   2.227   6.353  0.1465 -0.0078 -0.0078
 1162ERGO    C116361   8.206   2.307   6.633  0.1350 -0.3161  0.0945
 1162ERGO    C216362   8.340   2.372   6.968  0.0415 -0.0364 -0.1204
 1163ERGO   ROH16363  12.666  12.358   5.999  0.0311 -0.0485 -0.0697
 1163ERGO    R116364  12.669  12.196   6.232  0.0052 -0.0938 -0.1008
 1163ERGO    R216365  12.699  12.301   6.486  0.1755 -0.1613 -0.0916
 1163ERGO    R316366  12.469  12.165   6.534  0.0965 -0.0081 -0.0313
 1163ERGO    R416367  12.572  12.235   6.800  0.1688 -0.0062 -0.0610
 1163ERGO    R516368  12.516  12.036   6.731  0.0382  0.0104 -0.0055
 1163ERGO    C116369  12.281  12.069   7.029  0.0907  0.2279  0.0133
 1163ERGO    C216370  12.289  12.107   7.351 -0.0941 -0.0998  0.0001
 1164ERGO   ROH16371   9.307  12.509   5.805 -0.1021  0.1052 -0.0121
 1164ERGO    R116372   9.332  12.455   6.082  0.1445  0.1019 -0.0319
 1164ERGO    R216373   9.508  12.590   6.245  0.0817  0.3087 -0.1293
 1164ERGO    R316374   9.285  12.638   6.393  0.1100  0.0092  0.0175
 1164ERGO    R416375   9.505  12.748   6.553  0.0718  0.3001 -0.1255
 1164ERGO    R516376   9.355  12.604   6.619  0.3040  0.0977 -0.0279
 1164ERGO    C116377   9.293  12.884   6.870  0.0927  0.0141  0.0145
 1164ERGO    C216378   9.311  13.200   7.046  0.1571 -0.5723 -0.3067
 1165ERGO   ROH16379   1.457  15.176   5.703 -0.0630 -0.3375 -0.0442
 1165ERGO    R116380   1.488  15.300   5.956  0.0014 -0.2273 -0.1051
 1165ERGO    R216381   1.274  15.365   6.118  0.0386 -0.1106 -0.0985
 1165ERGO    R316382   1.410  15.218   6.302  0.0398 -0.0544 -0.0552
 1165ERGO    R416383   1.173  15.314   6.445  0.0599  0.0150 -0.0726
 1165ERGO    R516384   1.381  15.338   6.507  0.0647  0.0211 -0.0964
 1165ERGO    C116385   1.243  15.147   6.807  0.0734  0.1408 -0.0166
 1165ERGO    C216386   0.992  15.137   6.894 -0.1621 -0.0182 -0.0466
 1166ERGO   ROH16387  17.263  12.812   5.899 -0.2346  0.1342 -0.1269
 1166ERGO    R116388  17.264  12.788   6.181 -0.1059  0.0820 -0.1305
 1166ERGO    R216389  17.264  13.008   6.349  0.0193  0.0532 -0.0878
 1166ERGO    R316390  17.046  12.887   6.455  0.0429  0.0784 -0.0104
 1166ERGO    R416391  17.147  13.059   6.670  0.1753  0.0047 -0.0221
 1166ERGO    R516392  17.106  12.845   6.683  0.1362  0.0148 -0.0490
 1166ERGO    C116393  16.873  12.975   6.957  0.2883  0.0000  0.0887
 1166ERGO    C216394  16.824  13.112   7.196  0.0213 -0.0592  0.0477
 1167ERGO   ROH16395  13.380  15.341   5.599 -0.1736  0.1457  0.1404
 1167ERGO    R116396  13.431  15.346   5.877 -0.2648 -0.0005  0.1610
 1167ERGO    R216397  13.306  15.174   6.054 -0.1749 -0.2351  0.0074
 1167ERGO    R316398  13.561  15.113   6.126 -0.1414 -0.0620  0.0388
 1167ERGO    R416399  13.395  15.003   6.341 -0.0956 -0.2782 -0.0430
 1167ERGO    R516400  13.564  15.139   6.364 -0.2101 -0.1552  0.0473
 1167ERGO    C116401  13.686  14.845   6.575 -0.0180 -0.1408 -0.0428
 1167ERGO    C216402  13.736  14.616   6.744  0.2599 -0.2531 -0.0852
 1168ERGO   ROH16403   6.486  15.693   5.679 -0.1469  0.0235 -0.0965
 1168ERGO    R116404   6.469  15.550   5.923 -0.0265 -0.0282 -0.1174
 1168ERGO    R216405   6.684  15.525   6.096  0.0335  0.0137 -0.1837
 1168ERGO    R316406   6.508  15.627   6.277  0.0502 -0.0801 -0.1146
 1168ERGO    R416407   6.692  15.463   6.436  0.1039 -0.1076 -0.2072
 1168ERGO    R516408   6.474  15.449   6.434  0.1067 -0.1413 -0.1727
 1168ERGO    C116409   6.531  15.522   6.804  0.1604 -0.2662 -0.1560
 1168ERGO    C216410   6.244  15.560   7.112 -0.2724 -0.1595  0.3094
 1169ERGO   ROH16411  16.159  10.841   9.082  0.3844 -0.0203 -0.0033
 1169ERGO    R116412  16.205  10.908   8.811  0.4602 -0.0862 -0.0065
 1169ERGO    R216413  16.407  10.793   8.662  0.0732 -0.6475 -0.1245
 1169ERGO    R316414  16.204  10.734   8.492 -0.1915 -0.0201 -0.0536
 1169ERGO    R416415  16.412  10.850   8.321  0.1575 -0.7014 -0.1329
 1169ERGO    R516416  16.205  10.914   8.334  0.3440 -0.0210 -0.0742
 1169ERGO    C116417  16.224  10.828   7.963 -0.0417 -0.1438 -0.0713
 1169ERGO    C216418  15.926  10.797   7.683 -0.2529  0.2225  0.1764
 1170ERGO   ROH16419   4.062   0.092   6.784  0.1493  0.1060  0.2067
 1170ERGO    R116420   4.208  -0.052   6.979 -0.0512  0.0028  0.2844
 1170ERGO    R216421   4.086  -0.204   7.174 -0.2556 -0.2146 -0.0002
 1170ERGO    R316422   4.246  -0.401   7.077 -0.0452 -0.0661  0.0412
 1170ERGO    R416423   4.130  -0.514   7.322 -0.2481 -0.2891 -0.1580
 1170ERGO    R516424   4.342  -0.502   7.272 -0.2012 -0.1426  0.0772
 1170ERGO    C116425   4.306  -0.879   7.316 -0.0462 -0.1929 -0.2111
 1170ERGO    C216426   4.104  -1.058   7.512  0.2476 -0.0348  0.1010
 1171ERGO   ROH16427   9.957  15.368   6.056 -0.0963 -0.1514  0.0285
 1171ERGO    R116428   9.938  15.459   6.324 -0.0091 -0.0760  0.0090
 1171ERGO    R216429  10.133  15.616   6.441 -0.0789  0.1503 -0.1722
 1171ERGO    R316430   9.924  15.781   6.493 -0.2038 -0.0288 -0.0945
 1171ERGO    R416431  10.110  15.828   6.713 -0.0917  0.2375 -0.2405
 1171ERGO    R516432   9.900  15.775   6.731 -0.0325  0.0416 -0.0737
 1171ERGO    C116433   9.900  16.107   6.919 -0.2163  0.1200 -0.2073
 1171ERGO    C216434   9.863  16.166   7.218 -0.1599 -0.2706  0.1259
 1172ERGO   ROH16435  12.186   4.426   6.070  0.0735 -0.0728 -0.0383
 1172ERGO    R116436  12.145   4.330   6.333  0.0721  0.1315  0.0378
 1172ERGO    R216437  11.898   4.339   6.458  0.0361  0.0811 -0.0331
 1172ERGO    R316438  11.941   4.073   6.491  0.2009  0.1357  0.2155
 1172ERGO    R416439  11.767   4.147   6.714 -0.3332  0.1346 -0.1755
 1172ERGO    R516440  11.958   4.044   6.728 -0.2603  0.3014  0.2805
 1172ERGO    C116441  11.732   3.786   6.894 -0.3936  0.2169 -0.0250
 1172ERGO    C216442  11.709   3.594   7.188 -0.0525 -0.0443  0.2043
 1173ERGO   ROH16443  14.586  14.575   5.862 -0.0741  0.2280 -0.0481
 1173ERGO    R116444  14.379  14.640   6.044 -0.1073 -0.0946  0.0372
 1173ERGO    R216445  14.319  14.483   6.264  0.2503 -0.1757  0.0887
 1173ERGO    R316446  14.353  14.717   6.399 -0.0725 -0.0958  0.0388
 1173ERGO    R416447  14.244  14.532   6.597  0.3443 -0.2532  0.1210
 1173ERGO    R516448  14.165  14.728   6.546 -0.0155 -0.3911  0.1354
 1173ERGO    C116449  14.232  14.779   6.919  0.0958 -0.2234  0.0930
 1173ERGO    C216450  14.275  15.038   7.226  0.1244  0.0160  0.1688
 1174ERGO   ROH16451  12.401  15.043   5.815 -0.0500  0.1004  0.1153
 1174ERGO    R116452  12.498  15.148   6.059  0.0478  0.2780  0.0024
 1174ERGO    R216453  12.512  15.419   6.110 -0.4062  0.3123 -0.0170
 1174ERGO    R316454  12.366  15.353   6.330 -0.0265  0.0254  0.1621
 1174ERGO    R416455  12.520  15.590   6.410 -0.5397  0.4689 -0.1009
 1174ERGO    R516456  12.513  15.398   6.514  0.0560  0.4817 -0.0024
 1174ERGO    C116457  12.387  15.629   6.791 -0.2612  0.2906  0.0185
 1174ERGO    C216458  12.366  15.787   7.201  0.0986 -0.0709  0.2748
 1175ERGO   ROH16459   3.519   3.548   6.266  0.0251 -0.1934  0.1619
 1175ERGO    R116460   3.554   3.688   6.509  0.1395 -0.0712  0.0763
 1175ERGO    R216461   3.612   3.561   6.747 -0.1381  0.0085  0.1912
 1175ERGO    R316462   3.822   3.734   6.752  0.1185 -0.2956  0.1429
 1175ERGO    R416463   3.788   3.650   7.031 -0.2355  0.0879  0.2272
 1175ERGO    R516464   3.795   3.855   6.957  0.1285 -0.0041 -0.0223
 1175ERGO    C116465   4.088   3.864   7.200 -0.0514 -0.1514  0.2029
 1175ERGO    C216466   4.113   3.785   7.530  0.0505  0.1561  0.1278
 1176ERGO   ROH16467   6.977  16.499   5.854 -0.1177 -0.1757 -0.1529
 1176ERGO    R116468   6.891  16.572   6.114  0.0367  0.0203 -0.1551
 1176ERGO    R216469   6.650  16.489   6.218  0.0491  0.1969  0.0057
 1176ERGO    R316470   6.805  16.399   6.423  0.0966  0.2473 -0.0075
 1176ERGO    R416471   6.563  16.504   6.552  0.0449  0.1274  0.0089
 1176ERGO    R516472   6.770  16.559   6.598  0.0252  0.2187  0.0087
 1176ERGO    C116473   6.657  16.429   6.939  0.0870  0.1344 -0.0017
 1176ERGO    C216474   6.444  16.521   7.200  0.2422  0.0924 -0.0116
 1177ERGO   ROH16475  15.242  12.655   6.021 -0.1037  0.0668  0.0998
 1177ERGO    R116476  15.336  12.713   6.281 -0.0460 -0.0156  0.0980
 1177ERGO    R216477  15.244  12.928   6.429  0.0240 -0.0316  0.1668
 1177ERGO    R316478  15.193  12.737   6.615  0.0171 -0.0663  0.1290
 1177ERGO    R416479  15.177  12.991   6.762 -0.1019 -0.0843  0.1516
 1177ERGO    R516480  15.300  12.818   6.814 -0.0696 -0.0560  0.1726
 1177ERGO    C116481  15.091  12.848   7.131 -0.1817 -0.1476  0.1074
 1177ERGO    C216482  14.891  13.097   7.305  0.0913 -0.3628 -0.0707
 1178ERGO   ROH16483   0.966   3.076   5.948 -0.1553  0.0685 -0.0513
 1178ERGO    R116484   0.839   3.197   6.170 -0.1303  0.0584 -0.0322
 1178ERGO    R216485   0.785   3.060   6.403 -0.0192  0.0748 -0.0005
 1178ERGO    R316486   0.922   3.265   6.518 -0.0545  0.1348 -0.0638
 1178ERGO    R416487   0.757   3.155   6.734  0.2235 -0.0599  0.0622
 1178ERGO    R516488   0.764   3.364   6.669  0.0133 -0.0281  0.1203
 1178ERGO    C116489   0.869   3.404   7.034  0.3316 -0.0821  0.0392
 1178ERGO    C216490   0.746   3.376   7.351 -0.0877 -0.0198  0.0688
 1179ERGO   ROH16491   9.411   3.680   5.755  0.1068 -0.2127  0.0432
 1179ERGO    R116492   9.304   3.593   6.002  0.0481 -0.1597  0.0368
 1179ERGO    R216493   9.328   3.333   6.091  0.0974 -0.1226  0.1355
 1179ERGO    R316494   9.434   3.452   6.312 -0.0146 -0.0130  0.1309
 1179ERGO    R416495   9.338   3.191   6.407  0.1933 -0.0829  0.1505
 1179ERGO    R516496   9.288   3.386   6.490  0.0271 -0.1149  0.1276
 1179ERGO    C116497   9.443   3.221   6.797  0.1439  0.0431  0.1549
 1179ERGO    C216498   9.456   3.247   7.111  0.1959 -0.0111 -0.1330
 1180ERGO   ROH16499  19.131  16.283   6.154  0.2528 -0.1732  0.2067
 1180ERGO    R116500  18.876  16.307   6.276  0.2066 -0.0061  0.0841
 1180ERGO    R216501  18.729  16.087   6.356 -0.0176  0.0828 -0.0601
 1180ERGO    R316502  18.726  16.217   6.595 -0.0289  0.0084 -0.0210
 1180ERGO    R416503  18.532  15.999   6.626 -0.1825  0.1261 -0.1671
 1180ERGO    R516504  18.496  16.212   6.663 -0.0586  0.1363 -0.1148
 1180ERGO    C116505  18.414  16.070   7.007 -0.2895  0.0816 -0.1927
 1180ERGO    C216506  18.527  15.934   7.341 -0.1669  0.0581  0.0272
 1181ERGO   ROH16507  11.621  12.785   6.061  0.1156 -0.1324 -0.0322
 1181ERGO    R116508  11.735  12.702   6.307  0.2038 -0.0269 -0.0365
 1181ERGO    R216509  11.907  12.862   6.452  0.1109  0.1114 -0.0719
 1181ERGO    R316510  11.729  12.814   6.653  0.1643  0.0066 -0.0489
 1181ERGO    R416511  11.947  12.964   6.780  0.0014  0.2964 -0.1150
 1181ERGO    R516512  11.866  12.772   6.845  0.2103  0.2378 -0.0312
 1181ERGO    C116513  11.804  12.980   7.159 -0.0123  0.3058 -0.1185
 1181ERGO    C216514  11.621  12.874   7.454 -0.2043  0.0540 -0.4139
 1182ERGO   ROH16515   3.664  16.536   5.857  0.0972  0.0988 -0.1014
 1182ERGO    R116516   3.570  16.625   6.109 -0.1068 -0.0043 -0.1372
 1182ERGO    R216517   3.368  16.496   6.247 -0.0232 -0.2401 -0.2111
 1182ERGO    R316518   3.552  16.491   6.447 -0.0850 -0.0283 -0.1490
 1182ERGO    R416519   3.312  16.374   6.566  0.0049 -0.2198 -0.1999
 1182ERGO    R516520   3.428  16.540   6.645 -0.1805 -0.1048 -0.1998
 1182ERGO    C116521   3.453  16.298   6.938 -0.0367 -0.0091 -0.1350
 1182ERGO    C216522   3.469  16.061   7.194 -0.1106 -0.2892 -0.0416
 1183ERGO   ROH16523  10.387   6.772   5.867  0.1534  0.0043  0.1166
 1183ERGO    R116524  10.372   6.909   6.115  0.0970  0.0356  0.0954
 1183ERGO    R216525  10.286   6.787   6.347  0.0190  0.0740  0.0829
 1183ERGO    R316526  10.523   6.878   6.444 -0.0008  0.0619  0.1445
 1183ERGO    R416527  10.368   6.802   6.682 -0.1319  0.2086  0.1154
 1183ERGO    R516528  10.464   6.995   6.645 -0.0667  0.1717  0.0655
 1183ERGO    C116529  10.638   6.896   6.969 -0.2383  0.2756  0.1922
 1183ERGO    C216530  10.682   6.905   7.280  0.2820  0.0755  0.0345
 1184ERGO   ROH16531  18.936  14.488   5.944 -0.1118 -0.0496  0.1915
 1184ERGO    R116532  19.082  14.282   6.072 -0.0438 -0.0416  0.1287
 1184ERGO    R216533  19.283  14.334   6.255 -0.0182 -0.0310  0.0989
 1184ERGO    R316534  19.136  14.170   6.415  0.0461 -0.0880  0.0997
 1184ERGO    R416535  19.411  14.138   6.509  0.0680 -0.0263  0.0589
 1184ERGO    R516536  19.275  13.979   6.448  0.1015 -0.0551  0.0589
 1184ERGO    C116537  19.348  13.870   6.807  0.1785 -0.0769  0.0364
 1184ERGO    C216538  19.209  13.815   7.097  0.1296 -0.3090  0.0545
 1185ERGO   ROH16539   7.252   5.832   5.832  0.1674 -0.0043 -0.0111
 1185ERGO    R116540   7.356   5.833   6.096  0.2789  0.1104 -0.0556
 1185ERGO    R216541   7.414   6.066   6.232 -0.0873  0.1825 -0.0212
 1185ERGO    R316542   7.251   5.959   6.421  0.1848 -0.1676  0.0265
 1185ERGO    R416543   7.416   6.153   6.566 -0.0950  0.1124 -0.0022
 1185ERGO    R516544   7.389   5.943   6.616  0.3114  0.0383 -0.0375
 1185ERGO    C116545   7.264   6.103   6.938  0.1558 -0.2573  0.0537
 1185ERGO    C216546   7.104   6.392   7.160 -0.1843  0.0916 -0.1926
 1186ERGO   ROH16547   6.095  17.426   5.905 -0.0073 -0.2337 -0.0736
 1186ERGO    R116548   6.119  17.330   6.170  0.0666 -0.1808 -0.0602
 1186ERGO    R216549   6.225  17.483   6.375  0.0740 -0.1183 -0.1056
 1186ERGO    R316550   5.990  17.422   6.497  0.1096 -0.1488 -0.0534
 1186ERGO    R416551   6.166  17.505   6.715  0.0980 -0.0010 -0.1087
 1186ERGO    R516552   6.054  17.319   6.703  0.1627 -0.0412 -0.0191
 1186ERGO    C116553   5.912  17.460   7.027  0.1454  0.0384 -0.0616
 1186ERGO    C216554   5.993  17.490   7.346 -0.0284  0.0310 -0.1639
 1187ERGO   ROH16555   7.664  15.278   5.748  0.0218 -0.0563 -0.0681
 1187ERGO    R116556   7.614  15.117   5.976  0.0711 -0.3171 -0.2373
 1187ERGO    R216557   7.764  14.893   6.035  0.5147 -0.0159 -0.1792
 1187ERGO    R316558   7.797  15.018   6.275 -0.1048 -0.0781 -0.0454
 1187ERGO    R416559   7.850  14.735   6.331  0.6122  0.0034 -0.1972
 1187ERGO    R516560   7.708  14.864   6.435  0.1234 -0.4480 -0.2583
 1187ERGO    C116561   7.931  14.761   6.727  0.0874 -0.0438 -0.0822
 1187ERGO    C216562   8.099  14.777   7.005  0.0455 -0.0757 -0.3496
 1188ERGO   ROH16563  17.140  10.107   5.733  0.0107 -0.1412  0.0866
 1188ERGO    R116564  17.322  10.029   5.936  0.0570 -0.0802  0.0687
 1188ERGO    R216565  17.276  10.077   6.203  0.0875 -0.0583  0.0696
 1188ERGO    R316566  17.316   9.809   6.226  0.1458 -0.0474  0.0958
 1188ERGO    R416567  17.338   9.911   6.500  0.0832 -0.0201  0.0918
 1188ERGO    R516568  17.485   9.789   6.395  0.1269  0.0051  0.1218
 1188ERGO    C116569  17.413   9.564   6.694  0.1357  0.0122  0.1293
 1188ERGO    C216570  17.570   9.528   7.084  0.1114 -0.1602  0.2413
 1189ERGO   ROH16571   6.436  11.754   5.695  0.1572  0.0005 -0.0661
 1189ERGO    R116572   6.542  11.902   5.911  0.1689 -0.0554 -0.0327
 1189ERGO    R216573   6.391  12.080   6.059  0.2162  0.0295 -0.0808
 1189ERGO    R316574   6.479  11.931   6.268  0.0689 -0.0204 -0.0538
 1189ERGO    R416575   6.403  12.189   6.387 -0.0727 -0.0769 -0.0323
 1189ERGO    R516576   6.595  12.088   6.408 -0.0740 -0.0475  0.0946
 1189ERGO    C116577   6.493  12.112   6.774 -0.3793 -0.1858  0.0213
 1189ERGO    C216578   6.518  12.151   7.040  0.1317  0.0439  0.1029
 1190ERGO   ROH16579   0.580  11.422   5.763 -0.1810 -0.1456 -0.0309
 1190ERGO    R116580   0.482  11.562   5.989 -0.1772 -0.1156 -0.0484
 1190ERGO    R216581   0.395  11.432   6.218  0.0641 -0.0742  0.0646
 1190ERGO    R316582   0.575  11.597   6.339 -0.0127  0.1482 -0.1139
 1190ERGO    R416583   0.402  11.501   6.556  0.1827  0.0882  0.0309
 1190ERGO    R516584   0.447  11.709   6.508 -0.0289  0.1139 -0.0972
 1190ERGO    C116585   0.574  11.695   6.868  0.1796  0.3916 -0.1564
 1190ERGO    C216586   0.504  11.673   7.253 -0.1105 -0.0180 -0.0443
 1191ERGO   ROH16587  14.483   6.795   6.108 -0.4017  0.1515  0.2768
 1191ERGO    R116588  14.697   6.747   6.286 -0.1673  0.0760 -0.0168
 1191ERGO    R216589  14.669   6.767   6.560  0.2623  0.2630  0.0200
 1191ERGO    R316590  14.769   6.515   6.556  0.0415  0.1734  0.0138
 1191ERGO    R416591  14.751   6.583   6.841  0.3509  0.2877  0.0108
 1191ERGO    R516592  14.928   6.510   6.735  0.1987  0.0990 -0.1236
 1191ERGO    C116593  14.893   6.238   7.000  0.1951  0.2180 -0.0004
 1191ERGO    C216594  14.752   6.076   7.316 -0.0252 -0.0519 -0.1298
 1192ERGO   ROH16595  17.330   1.069   5.735 -0.0721 -0.0246  0.0590
 1192ERGO    R116596  17.477   1.146   5.964 -0.0371 -0.0002  0.0286
 1192ERGO    R216597  17.386   1.338   6.141 -0.0332 -0.0176  0.0490
 1192ERGO    R316598  17.427   1.141   6.324  0.0406 -0.0112  0.0397
 1192ERGO    R416599  17.431   1.389   6.480 -0.1309 -0.0187  0.0623
 1192ERGO    R516600  17.585   1.235   6.478 -0.0422  0.0664  0.0795
 1192ERGO    C116601  17.496   1.234   6.849 -0.1187 -0.0133  0.0613
 1192ERGO    C216602  17.404   1.349   7.060  0.1802  0.1286  0.0339
 1193ERGO   ROH16603   3.308   4.808   6.181 -0.0543 -0.0044  0.0919
 1193ERGO    R116604   3.512   4.769   6.374 -0.0070  0.1003  0.0633
 1193ERGO    R216605   3.606   4.974   6.534 -0.1455  0.1320  0.1018
 1193ERGO    R316606   3.543   4.803   6.735  0.0028  0.0365  0.0693
 1193ERGO    R416607   3.704   5.012   6.863 -0.1460  0.1398  0.1014
 1193ERGO    R516608   3.739   4.797   6.872  0.0228  0.1610  0.0512
 1193ERGO    C116609   3.701   4.873   7.244 -0.0070  0.0547  0.0706
 1193ERGO    C216610   3.685   4.816   7.510  0.1321  0.2104  0.0254
 1194ERGO   ROH16611   4.636  14.834   5.735 -0.0640 -0.2082 -0.0097
 1194ERGO    R116612   4.695  14.807   6.010 -0.0155 -0.3376 -0.0326
 1194ERGO    R216613   4.916  14.670   6.103  0.3767  0.1811 -0.1670
 1194ERGO    R316614   4.965  14.903   6.234 -0.2929  0.2012  0.0906
 1194ERGO    R416615   5.036  14.693   6.426  0.7284  0.1304 -0.2888
 1194ERGO    R516616   4.899  14.859   6.460  0.1448 -0.3832  0.1331
 1194ERGO    C116617   5.152  14.925   6.738  0.3045  0.1197 -0.1180
 1194ERGO    C216618   5.315  14.972   7.087 -0.2264  0.2019 -0.2902
 1195ERGO   ROH16619   6.601   5.259   7.452 -0.1043  0.1135 -0.0648
 1195ERGO    R116620   6.768   5.037   7.396 -0.1919  0.0229  0.0201
 1195ERGO    R216621   7.044   5.055   7.401 -0.1773 -0.0273 -0.2056
 1195ERGO    R316622   7.022   4.846   7.574 -0.0982  0.1463  0.0171
 1195ERGO    R416623   7.249   4.776   7.402 -0.2927 -0.1115 -0.1282
 1195ERGO    R516624   7.074   4.653   7.442 -0.3029 -0.0035  0.1570
 1195ERGO    C116625   7.347   4.418   7.566 -0.2857  0.0025  0.1261
 1195ERGO    C216626   7.301   4.063   7.689 -0.3289 -0.1539  0.0060
 1196ERGO   ROH16627  15.170   8.153   6.129 -0.0749  0.1235  0.0179
 1196ERGO    R116628  15.148   8.104   6.407  0.0721 -0.1987 -0.0226
 1196ERGO    R216629  15.341   7.967   6.550  0.4417  0.1431 -0.1753
 1196ERGO    R316630  15.336   8.189   6.707 -0.1051 -0.0011  0.0352
 1196ERGO    R416631  15.436   7.976   6.882  0.5105  0.0772 -0.1934
 1196ERGO    R516632  15.267   8.108   6.922  0.1585 -0.3946 -0.0171
 1196ERGO    C116633  15.487   8.190   7.223  0.0374 -0.0964 -0.0063
 1196ERGO    C216634  15.624   8.368   7.396  0.0878 -0.0231 -0.3016
 1197ERGO   ROH16635  14.401  13.274   5.894  0.0796 -0.0039 -0.1047
 1197ERGO    R116636  14.366  13.397   6.147  0.0780 -0.0432 -0.0844
 1197ERGO    R216637  14.123  13.394   6.282  0.0871 -0.1056 -0.0608
 1197ERGO    R316638  14.275  13.290   6.482  0.1260 -0.1059 -0.0924
 1197ERGO    R416639  14.018  13.346   6.607  0.2258  0.0933  0.0142
 1197ERGO    R516640  14.212  13.414   6.676  0.2964  0.0102 -0.1131
 1197ERGO    C116641  14.098  13.221   6.985  0.3430  0.2086  0.0282
 1197ERGO    C216642  14.079  13.021   7.264  0.0565 -0.0278 -0.1480
 1198ERGO   ROH16643   8.587  12.657   5.647  0.0807  0.0481  0.0076
 1198ERGO    R116644   8.417  12.724   5.863 -0.0095 -0.0146 -0.0428
 1198ERGO    R216645   8.449  12.620   6.116  0.0137  0.0715 -0.0084
 1198ERGO    R316646   8.453  12.882   6.189 -0.1814  0.0941 -0.0758
 1198ERGO    R416647   8.425  12.735   6.441 -0.1377  0.1442 -0.0448
 1198ERGO    R516648   8.296  12.896   6.369 -0.2307  0.0368 -0.1158
 1198ERGO    C116649   8.414  13.048   6.699 -0.4091  0.2077 -0.1292
 1198ERGO    C216650   8.365  13.078   7.043  0.0934 -0.0784 -0.0856
 1199ERGO   ROH16651   4.944  18.140   5.824 -0.1150 -0.0557  0.1076
 1199ERGO    R116652   4.862  18.310   6.034 -0.0816 -0.0566  0.1230
 1199ERGO    R216653   4.870  18.234   6.300 -0.0961 -0.0816  0.1214
 1199ERGO    R316654   5.016  18.462   6.327 -0.0492 -0.1143  0.1342
 1199ERGO    R416655   4.908  18.412   6.594 -0.1887 -0.0118  0.0902
 1199ERGO    R516656   4.890  18.596   6.479 -0.0833 -0.0401  0.0362
 1199ERGO    C116657   5.067  18.730   6.790 -0.1986 -0.0018  0.0842
 1199ERGO    C216658   5.245  19.035   7.003 -0.1773 -0.0758 -0.0600
 1200ERGO   ROH16659  13.451  18.958   5.708  0.1026  0.0338 -0.0524
 1200ERGO    R116660  13.385  19.040   5.971 -0.0150 -0.0091 -0.0680
 1200ERGO    R216661  13.243  18.880   6.145 -0.0200 -0.0714 -0.1287
 1200ERGO    R316662  13.455  18.926   6.309 -0.0911 -0.0116 -0.0529
 1200ERGO    R416663  13.232  18.864   6.491 -0.1518 -0.0238 -0.1300
 1200ERGO    R516664  13.360  19.040   6.498 -0.1844 -0.0006 -0.1054
 1200ERGO    C116665  13.425  18.897   6.845 -0.2952  0.0601 -0.0596
 1200ERGO    C216666  13.555  18.962   7.213  0.1130 -0.0195  0.0711
 1201ERGO   ROH16667  14.348  17.917   5.607 -0.1054 -0.0976 -0.0466
 1201ERGO    R116668  14.357  18.071   5.845 -0.0066  0.0540 -0.1466
 1201ERGO    R216669  14.271  17.973   6.089 -0.0655  0.2675 -0.0805
 1201ERGO    R316670  14.520  18.045   6.169 -0.0182  0.1651 -0.1315
 1201ERGO    R416671  14.366  18.020   6.417  0.0521  0.1200 -0.0918
 1201ERGO    R516672  14.482  18.193   6.353  0.0827  0.1099 -0.0650
 1201ERGO    C116673  14.655  18.116   6.684  0.1650 -0.0619 -0.1462
 1201ERGO    C216674  14.841  18.112   6.938 -0.1995  0.4014  0.3482
 1202ERGO   ROH16675  12.393  11.229   6.281  0.0421  0.2671 -0.0161
 1202ERGO    R116676  12.328  11.066   6.503  0.1498  0.1602 -0.0621
 1202ERGO    R216677  12.457  11.087   6.746  0.1581  0.1550 -0.0654
 1202ERGO    R316678  12.205  11.116   6.841  0.1480 -0.0145 -0.0359
 1202ERGO    R416679  12.369  11.064   7.079  0.2040  0.0687 -0.0587
 1202ERGO    R516680  12.189  10.956   7.018  0.2670 -0.0401 -0.0490
 1202ERGO    C116681  12.080  11.078   7.363  0.2214 -0.1408 -0.0271
 1202ERGO    C216682  11.974  10.916   7.671 -0.0547  0.0700 -0.2411
 1203ERGO   ROH16683  13.746  11.255   6.344 -0.1263  0.0187  0.0165
 1203ERGO    R116684  13.712  11.314   6.619  0.0294  0.1989 -0.0007
 1203ERGO    R216685  13.711  11.117   6.814 -0.1292  0.2980  0.0988
 1203ERGO    R316686  13.906  11.271   6.924  0.0833  0.1364 -0.0432
 1203ERGO    R416687  13.895  11.031   7.093 -0.0115  0.1546 -0.0208
 1203ERGO    R516688  13.881  11.238   7.160  0.2151  0.1740 -0.0223
 1203ERGO    C116689  14.186  11.125   7.360  0.2563 -0.0807 -0.2238
 1203ERGO    C216690  14.479  11.044   7.453 -0.1061  0.1713 -0.1546
 1204ERGO   ROH16691   3.194  14.018   6.148  0.1602  0.0030 -0.0767
 1204ERGO    R116692   3.322  13.822   6.307  0.1016  0.0309  0.0059
 1204ERGO    R216693   3.197  13.699   6.521  0.0142  0.0521 -0.0336
 1204ERGO    R316694   3.267  13.472   6.389  0.0861  0.0382  0.0278
 1204ERGO    R416695   3.264  13.396   6.672 -0.0471  0.0753  0.0404
 1204ERGO    R516696   3.428  13.368   6.532  0.0229  0.0635  0.1209
 1204ERGO    C116697   3.368  13.006   6.637 -0.0153  0.0756  0.1410
 1204ERGO    C216698   3.218  12.840   6.776 -0.2203 -0.1231  0.0333
 1205ERGO   ROH16699  18.189   2.221   5.868  0.0038  0.1010  0.1459
 1205ERGO    R116700  18.052   2.091   6.079  0.1096  0.1046  0.2177
 1205ERGO    R216701  17.983   2.220   6.313  0.0181  0.1750  0.1527
 1205ERGO    R316702  17.734   2.131   6.251  0.0832 -0.0493  0.2054
 1205ERGO    R416703  17.704   2.257   6.514 -0.0610  0.3181  0.0193
 1205ERGO    R516704  17.644   2.054   6.460  0.0638  0.2032  0.2926
 1205ERGO    C116705  17.308   2.194   6.573 -0.0457  0.1908 -0.0089
 1205ERGO    C216706  17.035   2.237   6.713  0.0871 -0.1478 -0.1005
 1206ERGO   ROH16707  14.563   8.775   7.177  0.1212 -0.1745 -0.1401
 1206ERGO    R116708  14.788   8.688   7.327  0.0878 -0.1777 -0.0922
 1206ERGO    R216709  14.765   8.520   7.544  0.0276 -0.0879 -0.0289
 1206ERGO    R316710  14.946   8.370   7.406 -0.0026 -0.1903  0.0403
 1206ERGO    R416711  14.986   8.295   7.687  0.0241 -0.0229  0.0806
 1206ERGO    R516712  15.139   8.365   7.548  0.0140 -0.1225  0.0198
 1206ERGO    C116713  15.284   8.025   7.641 -0.0066 -0.0812  0.2093
 1206ERGO    C216714  15.505   7.959   7.643  0.1500  0.1836  0.0932
 1207ERGO   ROH16715  16.470  15.090   5.954 -0.0595  0.1680 -0.1116
 1207ERGO    R116716  16.374  15.275   6.145  0.0291  0.1342 -0.0343
 1207ERGO    R216717  16.129  15.247   6.270 -0.0464  0.2718 -0.1506
 1207ERGO    R316718  16.278  15.267   6.496 -0.1174 -0.0013 -0.0759
 1207ERGO    R416719  16.009  15.350   6.577 -0.1163  0.0237 -0.0927
 1207ERGO    R516720  16.194  15.462   6.607 -0.0820 -0.0721  0.0810
 1207ERGO    C116721  16.079  15.428   6.969 -0.2234 -0.3771  0.0111
 1207ERGO    C216722  15.894  15.403   7.249  0.0502 -0.2083  0.2839
 1208ERGO   ROH16723  10.934  18.707   5.725 -0.0664 -0.0461  0.0045
 1208ERGO    R116724  10.890  18.592   5.979 -0.1833 -0.0379 -0.0109
 1208ERGO    R216725  11.072  18.613   6.186 -0.0899 -0.3734 -0.0500
 1208ERGO    R316726  10.858  18.711   6.322  0.0949 -0.0621  0.0244
 1208ERGO    R416727  10.980  18.519   6.505 -0.1359 -0.2560 -0.0284
 1208ERGO    R516728  10.772  18.523   6.442 -0.1511  0.0582  0.0379
 1208ERGO    C116729  10.726  18.556   6.819  0.0107  0.1048  0.0540
 1208ERGO    C216730  10.848  18.558   7.126 -0.1195  0.1490 -0.0840
 1209ERGO   ROH16731  10.819  11.688   7.845 -0.0686  0.0170 -0.0723
 1209ERGO    R116732  10.929  11.619   8.097 -0.0622  0.2909  0.0039
 1209ERGO    R216733  10.861  11.752   8.330 -0.4124  0.2518 -0.0659
 1209ERGO    R316734  10.802  11.502   8.417 -0.0111  0.1660 -0.0218
 1209ERGO    R416735  10.846  11.656   8.662 -0.0947  0.2373 -0.0532
 1209ERGO    R516736  10.943  11.469   8.607  0.1415  0.3709 -0.0979
 1209ERGO    C116737  10.781  11.365   8.936  0.4672  0.1483 -0.0043
 1209ERGO    C216738  10.543  11.314   9.209 -0.1401  0.3139  0.0814
 1210ERGO   ROH16739   0.435   9.050   5.532  0.0047 -0.1085 -0.2503
 1210ERGO    R116740   0.377   8.913   5.773 -0.0336 -0.0345 -0.2170
 1210ERGO    R216741   0.382   8.637   5.793 -0.1586 -0.0348 -0.1631
 1210ERGO    R316742   0.553   8.688   5.999 -0.1134 -0.0716 -0.1918
 1210ERGO    R416743   0.359   8.497   6.108 -0.0244 -0.1730 -0.2140
 1210ERGO    R516744   0.413   8.690   6.193 -0.0563 -0.1935 -0.1492
 1210ERGO    C116745   0.506   8.462   6.484  0.0962 -0.2880 -0.2707
 1210ERGO    C216746   0.630   8.479   6.810  0.0583 -0.1252  0.1866
 1211ERGO   ROH16747   4.452   5.512   6.082 -0.0910 -0.0041  0.1639
 1211ERGO    R116748   4.476   5.689   6.302 -0.0025 -0.0178  0.1695
 1211ERGO    R216749   4.283   5.707   6.500 -0.0014  0.0755  0.1811
 1211ERGO    R316750   4.494   5.659   6.664 -0.0186 -0.0432  0.1645
 1211ERGO    R416751   4.307   5.815   6.827  0.2233  0.2950  0.0929
 1211ERGO    R516752   4.517   5.860   6.792  0.2582  0.0186  0.0063
 1211ERGO    C116753   4.519   5.833   7.172  0.3380  0.3113  0.0260
 1211ERGO    C216754   4.589   5.541   7.432 -0.1092 -0.2801  0.0018
 1212ERGO   ROH16755   6.460   6.588   6.261  0.2069  0.0577 -0.1144
 1212ERGO    R116756   6.249   6.578   6.449  0.1695  0.1442 -0.1521
 1212ERGO    R216757   6.228   6.377   6.639  0.0058  0.1048 -0.2149
 1212ERGO    R316758   6.218   6.586   6.812  0.1152  0.0613 -0.1536
 1212ERGO    R416759   6.081   6.369   6.952  0.1606  0.0343 -0.1424
 1212ERGO    R516760   6.003   6.569   6.915  0.1621  0.0552 -0.0509
 1212ERGO    C116761   5.986   6.561   7.296  0.3534 -0.0478 -0.0426
 1212ERGO    C216762   6.056   6.835   7.513  0.0646 -0.1227  0.5739
 1213ERGO   ROH16763  16.045   5.498   6.113 -0.1432  0.0571  0.0731
 1213ERGO    R116764  16.218   5.417   6.322 -0.1145 -0.0219  0.0191
 1213ERGO    R216765  16.202   5.523   6.577 -0.0024 -0.0328  0.0288
 1213ERGO    R316766  16.181   5.262   6.649 -0.0800 -0.0297  0.0201
 1213ERGO    R416767  16.338   5.385   6.863  0.1277 -0.1178 -0.0726
 1213ERGO    R516768  16.394   5.210   6.747 -0.0346 -0.1377 -0.1273
 1213ERGO    C116769  16.398   5.060   7.097  0.1306 -0.1644 -0.1397
 1213ERGO    C216770  16.540   4.918   7.300 -0.2906  0.4560 -0.1432
 1214ERGO   ROH16771   9.598  18.254   6.007  0.1499 -0.1788 -0.1863
 1214ERGO    R116772   9.763  18.160   6.217  0.1110  0.0604 -0.0426
 1214ERGO    R216773   9.826  18.314   6.438 -0.3399  0.1422  0.0445
 1214ERGO    R316774   9.729  18.099   6.574 -0.1318 -0.0356 -0.0818
 1214ERGO    R416775   9.874  18.254   6.775 -0.2958 -0.0145  0.0106
 1214ERGO    R516776   9.902  18.043   6.729 -0.0856  0.0417 -0.1108
 1214ERGO    C116777   9.811  18.018   7.099 -0.0749 -0.2728 -0.1277
 1214ERGO    C216778   9.694  18.025   7.408 -0.0731  0.0975  0.0123
 1215ERGO   ROH16779  15.198  16.863   5.757 -0.0550 -0.3709 -0.0402
 1215ERGO    R116780  15.263  16.774   6.018  0.2197 -0.2103 -0.0522
 1215ERGO    R216781  15.500  16.843   6.145  0.1138  0.3179 -0.1349
 1215ERGO    R316782  15.332  16.929   6.340 -0.0162 -0.0286 -0.0838
 1215ERGO    R416783  15.579  16.860   6.481  0.1606  0.4007 -0.1478
 1215ERGO    R516784  15.379  16.787   6.527  0.2928  0.0136 -0.1179
 1215ERGO    C116785  15.467  16.951   6.860  0.0656  0.1239 -0.1074
 1215ERGO    C216786  15.606  16.921   7.240 -0.1306 -0.0715 -0.0490
 1216ERGO   ROH16787  10.915  15.127   6.197  0.0954 -0.0480  0.0924
 1216ERGO    R116788  10.921  15.054   6.470  0.3611 -0.3391  0.0165
 1216ERGO    R216789  11.151  14.972   6.598  0.6713  0.2646 -0.1092
 1216ERGO    R316790  11.088  15.171   6.772  0.0285 -0.1069  0.1161
 1216ERGO    R416791  11.283  15.006   6.915  0.7329  0.4456 -0.1535
 1216ERGO    R516792  11.085  15.064   6.986  0.5335 -0.3366  0.0198
 1216ERGO    C116793  11.301  15.212   7.264  0.1655  0.2023  0.0322
 1216ERGO    C216794  11.413  15.428   7.569 -0.1093 -0.3884 -0.2170
 1217ERGO   ROH16795   1.383   2.400   6.334  0.0126  0.1229  0.0038
 1217ERGO    R116796   1.411   2.531   6.583  0.2286  0.1698 -0.0445
 1217ERGO    R216797   1.366   2.404   6.824  0.0406  0.3227 -0.0046
 1217ERGO    R316798   1.617   2.494   6.880  0.1868 -0.0431 -0.0380
 1217ERGO    R416799   1.511   2.404   7.138 -0.0552  0.3957  0.0414
 1217ERGO    R516800   1.596   2.599   7.094  0.2963  0.2205 -0.1458
 1217ERGO    C116801   1.830   2.487   7.374  0.0263  0.0948  0.0368
 1217ERGO    C216802   2.006   2.196   7.512  0.0248  0.0987  0.3635
 1218ERGO   ROH16803  11.052  13.574   6.248  0.0526  0.0501  0.0792
 1218ERGO    R116804  10.875  13.496   6.455 -0.0641  0.1034  0.0002
 1218ERGO    R216805  10.962  13.369   6.684 -0.2135  0.0214  0.0097
 1218ERGO    R316806  10.830  13.572   6.808 -0.1584  0.0650 -0.0025
 1218ERGO    R416807  10.867  13.369   7.017 -0.2373  0.0491  0.0030
 1218ERGO    R516808  10.679  13.463   6.957 -0.2056  0.1102 -0.0135
 1218ERGO    C116809  10.688  13.561   7.326 -0.1995  0.1063 -0.0124
 1218ERGO    C216810  10.768  13.655   7.606 -0.4301  0.1022 -0.0795
 1219ERGO   ROH16811  18.152  12.364   5.877  0.0256  0.0257 -0.0279
 1219ERGO    R116812  18.274  12.209   6.081  0.0622 -0.0300 -0.0920
 1219ERGO    R216813  18.141  12.137   6.312  0.1265 -0.0355 -0.0594
 1219ERGO    R316814  18.215  11.886   6.238  0.0489 -0.0415 -0.1186
 1219ERGO    R416815  18.157  11.865   6.524  0.1030 -0.0718 -0.1041
 1219ERGO    R516816  18.340  11.804   6.424  0.0696 -0.1012 -0.1556
 1219ERGO    C116817  18.236  11.471   6.578  0.0165 -0.0987 -0.1856
 1219ERGO    C216818  18.326  11.255   6.962  0.3048  0.0853  0.2273
 1220ERGO   ROH16819   3.681   4.558   6.010 -0.2667 -0.0374  0.0533
 1220ERGO    R116820   3.920   4.618   6.149 -0.1770 -0.1107 -0.0679
 1220ERGO    R216821   3.958   4.855   6.286 -0.0259 -0.1136 -0.1047
 1220ERGO    R316822   4.016   4.689   6.493  0.0174 -0.1161 -0.1189
 1220ERGO    R416823   4.102   4.953   6.584 -0.0766 -0.0916 -0.0874
 1220ERGO    R516824   4.222   4.772   6.580 -0.0142 -0.0530 -0.0994
 1220ERGO    C116825   4.240   4.854   6.952 -0.0656 -0.0813 -0.0907
 1220ERGO    C216826   4.169   5.080   7.215  0.2009 -0.2013 -0.2316
 1221ERGO   ROH16827   5.277   2.300   5.541 -0.0789 -0.0239  0.0311
 1221ERGO    R116828   5.299   2.266   5.821 -0.2141 -0.1080  0.0346
 1221ERGO    R216829   5.113   2.124   5.969 -0.1196 -0.4394 -0.1379
 1221ERGO    R316830   5.333   1.987   6.052  0.0290 -0.1620 -0.0674
 1221ERGO    R416831   5.133   1.939   6.260  0.0943 -0.2788 -0.0490
 1221ERGO    R516832   5.335   2.015   6.290  0.0064 -0.0482 -0.0867
 1221ERGO    C116833   5.350   1.702   6.507  0.3585  0.0751  0.0688
 1221ERGO    C216834   5.391   1.455   6.735 -0.0163 -0.0516  0.2708
 1222ERGO   ROH16835   1.169   1.616   6.165 -0.0030  0.1323  0.0521
 1222ERGO    R116836   1.079   1.645   6.431  0.0300  0.1572  0.0602
 1222ERGO    R216837   1.065   1.432   6.607  0.0065  0.1662  0.0661
 1222ERGO    R316838   1.217   1.593   6.764  0.0531  0.1399  0.0487
 1222ERGO    R416839   1.056   1.436   6.953  0.0834  0.1253  0.0689
 1222ERGO    R516840   1.072   1.653   6.946  0.0952  0.1277  0.0890
 1222ERGO    C116841   1.194   1.589   7.301  0.1718  0.0768  0.0541
 1222ERGO    C216842   1.077   1.485   7.586  0.2912  0.0099  0.2722
 1223ERGO   ROH16843   6.187   2.276   5.946  0.2123 -0.0620 -0.0342
 1223ERGO    R116844   6.157   2.300   6.227  0.1669 -0.0992 -0.0365
 1223ERGO    R216845   6.280   2.499   6.372  0.1339 -0.1155  0.0059
 1223ERGO    R316846   6.027   2.548   6.459  0.1193 -0.1358 -0.0223
 1223ERGO    R416847   6.199   2.613   6.688  0.1153  0.1264 -0.0832
 1223ERGO    R516848   6.028   2.476   6.688  0.1633  0.0582  0.0429
 1223ERGO    C116849   5.914   2.725   6.954  0.0908  0.2482 -0.1615
 1223ERGO    C216850   5.826   2.713   7.358  0.1038 -0.1180  0.1009
 1224ERGO   ROH16851  13.075   9.902   6.375 -0.1538  0.0501 -0.0768
 1224ERGO    R116852  12.902   9.822   6.584 -0.2123  0.0670 -0.1178
 1224ERGO    R216853  12.920   9.925   6.841 -0.1084 -0.1072 -0.0515
 1224ERGO    R316854  12.658   9.982   6.801 -0.0631  0.1448 -0.0057
 1224ERGO    R416855  12.686   9.968   7.091 -0.0387  0.0604 -0.0137
 1224ERGO    R516856  12.543   9.858   6.969 -0.1567  0.2171 -0.0171
 1224ERGO    C116857  12.302  10.046   7.198  0.0444  0.3945  0.0514
 1224ERGO    C216858  12.143  10.068   7.458  0.2726  0.0363 -0.1430
 1225ERGO   ROH16859  16.563   1.657   6.112 -0.0249  0.0468 -0.0653
 1225ERGO    R116860  16.510   1.471   6.318  0.1244  0.0789 -0.0010
 1225ERGO    R216861  16.633   1.484   6.565 -0.0383  0.3856  0.0518
 1225ERGO    R316862  16.376   1.481   6.656 -0.0888  0.0567 -0.0785
 1225ERGO    R416863  16.531   1.341   6.863  0.1193  0.7040  0.2666
 1225ERGO    R516864  16.353   1.267   6.761  0.2920  0.1688  0.2914
 1225ERGO    C116865  16.231   1.255   7.122  0.1635  0.5806  0.2694
 1225ERGO    C216866  16.012   1.305   7.366 -0.1382  0.0876  0.0801
 1226ERGO   ROH16867   3.465   2.600   6.093 -0.0340  0.0084  0.0008
 1226ERGO    R116868   3.391   2.638   6.364  0.0306  0.0364  0.0146
 1226ERGO    R216869   3.273   2.439   6.515 -0.0084  0.0797  0.0379
 1226ERGO    R316870   3.479   2.491   6.685  0.0405  0.0098  0.0007
 1226ERGO    R416871   3.255   2.419   6.859  0.0828 -0.0621  0.0350
 1226ERGO    R516872   3.375   2.600   6.872  0.0889 -0.0647  0.0742
 1226ERGO    C116873   3.437   2.455   7.219  0.1819 -0.2102 -0.0017
 1226ERGO    C216874   3.705   2.439   7.397  0.1581 -0.0123  0.0318
 1227ERGO   ROH16875  16.980   0.244   5.852 -0.1699  0.0395  0.1136
 1227ERGO    R116876  16.994   0.242   6.134 -0.0450 -0.1401  0.1058
 1227ERGO    R216877  17.141   0.055   6.275  0.2277 -0.0688 -0.0904
 1227ERGO    R316878  17.255   0.275   6.386  0.0268 -0.0176  0.0177
 1227ERGO    R416879  17.251   0.076   6.602  0.1899 -0.1258 -0.0713
 1227ERGO    R516880  17.170   0.279   6.610  0.0077 -0.1975  0.0178
 1227ERGO    C116881  17.422   0.295   6.897 -0.0208 -0.1109  0.0413
 1227ERGO    C216882  17.515   0.299   7.200  0.1384  0.3486  0.3657
 1228ERGO   ROH16883  17.721  15.641   5.861 -0.2556 -0.1024 -0.0368
 1228ERGO    R116884  17.835  15.609   6.118 -0.0641 -0.2347 -0.1340
 1228ERGO    R216885  17.706  15.690   6.349  0.2947  0.0735 -0.0233
 1228ERGO    R316886  17.750  15.433   6.425 -0.1040  0.0054 -0.0064
 1228ERGO    R416887  17.733  15.582   6.676  0.3376  0.0818 -0.0252
 1228ERGO    R516888  17.895  15.450   6.615  0.0628 -0.2165 -0.1150
 1228ERGO    C116889  17.790  15.277   6.937 -0.0116  0.0227 -0.0106
 1228ERGO    C216890  17.556  15.152   7.174  0.0593 -0.1244 -0.1332
 1229ERGO   ROH16891  17.437  12.653   7.608  0.0110 -0.0870 -0.0785
 1229ERGO    R116892  17.297  12.667   7.853 -0.0896 -0.0342 -0.1388
 1229ERGO    R216893  17.130  12.466   7.942 -0.0371 -0.0616 -0.1138
 1229ERGO    R316894  17.287  12.477   8.164 -0.1314  0.1023 -0.0537
 1229ERGO    R416895  17.047  12.332   8.249 -0.1041  0.0062 -0.1024
 1229ERGO    R516896  17.132  12.509   8.344 -0.2306  0.0913 -0.1302
 1229ERGO    C116897  17.145  12.265   8.637 -0.2320  0.1994 -0.0395
 1229ERGO    C216898  17.284  12.319   8.987  0.0414  0.0456  0.0156
 1230ERGO   ROH16899   2.030   8.791   5.307 -0.2269  0.2971  0.2284
 1230ERGO    R116900   2.009   8.878   5.575 -0.0256  0.2807  0.2499
 1230ERGO    R216901   1.952   8.706   5.783 -0.0886  0.3071  0.2444
 1230ERGO    R316902   2.179   8.810   5.890  0.0549  0.0849  0.1684
 1230ERGO    R416903   2.068   8.642   6.103 -0.1656  0.3446  0.2814
 1230ERGO    R516904   2.123   8.853   6.119  0.1066  0.2956  0.1507
 1230ERGO    C116905   2.348   8.704   6.389 -0.0759  0.1578  0.2317
 1230ERGO    C216906   2.487   8.793   6.762  0.1072  0.0121 -0.1533
 1231ERGO   ROH16907  10.233   9.981   6.108 -0.0634 -0.0042 -0.1588
 1231ERGO    R116908  10.303   9.861   6.355  0.0299  0.0242 -0.1710
 1231ERGO    R216909  10.442   9.996   6.552 -0.0212  0.0921 -0.1827
 1231ERGO    R316910  10.231   9.920   6.706  0.0380 -0.0281 -0.1600
 1231ERGO    R416911  10.426  10.029   6.896  0.0453 -0.0146 -0.1693
 1231ERGO    R516912  10.332   9.833   6.905  0.1148 -0.0530 -0.2073
 1231ERGO    C116913  10.220   9.976   7.241  0.1397 -0.1894 -0.1402
 1231ERGO    C216914  10.201  10.084   7.549 -0.0520 -0.3612  0.0201
 1232ERGO   ROH16915  16.664  11.118   5.822 -0.1777 -0.2205 -0.1733
 1232ERGO    R116916  16.560  11.020   6.066  0.0350 -0.1157 -0.0384
 1232ERGO    R216917  16.641  11.118   6.312  0.0217  0.2120 -0.1609
 1232ERGO    R316918  16.374  11.157   6.348 -0.0132 -0.0685 -0.0925
 1232ERGO    R416919  16.487  11.161   6.619  0.0931  0.2851 -0.1348
 1232ERGO    R516920  16.323  11.036   6.548  0.2069  0.0327  0.0297
 1232ERGO    C116921  16.148  11.222   6.831  0.1018  0.0644 -0.0554
 1232ERGO    C216922  15.910  11.325   7.185  0.0563  0.0929  0.0338
 1233ERGO   ROH16923  16.308   0.769   5.807  0.0768 -0.0132  0.0911
 1233ERGO    R116924  16.121   0.937   5.937  0.1185  0.1226 -0.0215
 1233ERGO    R216925  16.010   0.875   6.182 -0.1914  0.1233 -0.1561
 1233ERGO    R316926  16.103   1.121   6.250 -0.0012 -0.0004  0.0447
 1233ERGO    R416927  15.902   1.057   6.455 -0.2105  0.0800 -0.1345
 1233ERGO    R516928  15.909   1.237   6.331  0.0516  0.1429 -0.0329
 1233ERGO    C116929  15.926   1.395   6.678 -0.0431 -0.0613  0.0666
 1233ERGO    C216930  15.952   1.635   6.922  0.1748 -0.1801 -0.0422
 1234ERGO   ROH16931   7.036   1.780   5.987 -0.0854  0.0133  0.0251
 1234ERGO    R116932   6.874   1.653   6.180 -0.0909  0.0098  0.0182
 1234ERGO    R216933   6.962   1.600   6.437 -0.0731 -0.0597 -0.0022
 1234ERGO    R316934   6.737   1.736   6.507 -0.0362 -0.0255  0.0502
 1234ERGO    R416935   6.855   1.651   6.762  0.0963  0.0958  0.0308
 1234ERGO    R516936   6.651   1.615   6.695  0.0607  0.0641  0.1540
 1234ERGO    C116937   6.582   1.808   7.017  0.2296  0.2186  0.0992
 1234ERGO    C216938   6.427   1.808   7.348  0.0519  0.2629 -0.3889
 1235ERGO   ROH16939  11.901  13.914   5.935 -0.3752  0.2262  0.0577
 1235ERGO    R116940  11.950  13.826   6.199 -0.2568  0.1261  0.0023
 1235ERGO    R216941  12.107  13.967   6.377 -0.1123  0.0126 -0.0445
 1235ERGO    R316942  11.887  13.950   6.535 -0.0245  0.0373  0.0832
 1235ERGO    R416943  12.098  14.052   6.711  0.0950  0.0720 -0.0522
 1235ERGO    R516944  11.972  13.878   6.747  0.1095  0.0695  0.0491
 1235ERGO    C116945  11.887  14.086   7.055  0.2982  0.1298  0.0632
 1235ERGO    C216946  11.916  14.223   7.407 -0.1322 -0.0093  0.1317
 1236ERGO   ROH16947  18.939   4.112   6.104  0.0167 -0.1315 -0.0124
 1236ERGO    R116948  18.870   3.984   6.347 -0.0689 -0.1050 -0.0231
 1236ERGO    R216949  19.019   4.013   6.579 -0.0424 -0.2349 -0.0285
 1236ERGO    R316950  18.779   4.088   6.684  0.0148 -0.0743 -0.0081
 1236ERGO    R416951  18.891   3.902   6.880 -0.0605 -0.1202  0.0073
 1236ERGO    R516952  18.695   3.889   6.787 -0.0866 -0.0167  0.0322
 1236ERGO    C116953  18.592   3.906   7.154 -0.0172  0.0972  0.0473
 1236ERGO    C216954  18.240   3.949   7.365  0.1745  0.0152  0.1940
 1237ERGO   ROH16955   5.918   5.889   5.841  0.1639  0.0680  0.0920
 1237ERGO    R116956   6.014   5.773   6.081  0.1466  0.0134  0.0745
 1237ERGO    R216957   5.952   5.873   6.330  0.2822  0.0747  0.0929
 1237ERGO    R316958   5.869   5.619   6.377  0.1116  0.1355  0.1189
 1237ERGO    R416959   5.916   5.732   6.644  0.0597  0.1610  0.1064
 1237ERGO    R516960   6.000   5.547   6.565 -0.0177  0.0971  0.1895
 1237ERGO    C116961   5.816   5.411   6.870 -0.2300  0.2683  0.1387
 1237ERGO    C216962   5.921   5.258   7.210  0.0778 -0.2594 -0.3247
 1238ERGO   ROH16963  17.170   8.294   5.831  0.3044 -0.0938  0.0235
 1238ERGO    R116964  17.285   8.090   5.989  0.3510 -0.0547  0.0415
 1238ERGO    R216965  17.493   8.137   6.165  0.2535  0.0345  0.1398
 1238ERGO    R316966  17.325   8.021   6.344  0.2373 -0.0838  0.0483
 1238ERGO    R416967  17.574   8.066   6.493  0.1387  0.0426  0.1694
 1238ERGO    R516968  17.467   7.877   6.473  0.2584 -0.0159  0.0974
 1238ERGO    C116969  17.464   7.916   6.853  0.0568 -0.0639  0.1008
 1238ERGO    C216970  17.520   7.894   7.092  0.0608  0.2518 -0.4638
 1239ERGO   ROH16971   8.755  17.645   5.827  0.0147 -0.1477 -0.1606
 1239ERGO    R116972   8.714  17.581   6.099  0.1023 -0.0823 -0.1320
 1239ERGO    R216973   8.808  17.739   6.305 -0.0769  0.1171 -0.2034
 1239ERGO    R316974   8.548  17.733   6.385 -0.0690 -0.1583 -0.1887
 1239ERGO    R416975   8.703  17.696   6.631  0.0030  0.2748 -0.1554
 1239ERGO    R516976   8.543  17.567   6.558  0.1667 -0.0128 -0.0330
 1239ERGO    C116977   8.397  17.665   6.896  0.0570  0.1081 -0.1135
 1239ERGO    C216978   8.313  17.814   7.243  0.0408 -0.0166  0.0598
 1240ERGO   ROH16979  17.343   6.557   7.343  0.0104  0.0169 -0.2123
 1240ERGO    R116980  17.378   6.280   7.298  0.0701  0.0278 -0.2275
 1240ERGO    R216981  17.387   6.171   7.044  0.1702  0.0559 -0.2321
 1240ERGO    R316982  17.623   6.069   7.131  0.1584  0.0803 -0.1678
 1240ERGO    R416983  17.504   5.854   6.972  0.1348  0.0006 -0.0556
 1240ERGO    R516984  17.576   5.839   7.177  0.1287  0.1076 -0.0403
 1240ERGO    C116985  17.795   5.574   7.012  0.1033 -0.0086  0.1075
 1240ERGO    C216986  18.068   5.303   7.000  0.1006 -0.1156 -0.3458
 1241ERGO   ROH16987   0.733  18.363   6.241 -0.2993 -0.0812  0.0233
 1241ERGO    R116988   0.755  18.545   6.456 -0.1411 -0.0756  0.0023
 1241ERGO    R216989   0.611  18.517   6.690 -0.0481 -0.0125  0.0641
 1241ERGO    R316990   0.856  18.530   6.806  0.0089 -0.0883 -0.0396
 1241ERGO    R416991   0.673  18.637   7.008  0.0922 -0.2377  0.1250
 1241ERGO    R516992   0.853  18.734   6.931  0.0571 -0.1735  0.1092
 1241ERGO    C116993   0.941  18.719   7.302  0.2275 -0.4397  0.0631
 1241ERGO    C216994   0.918  18.648   7.640  0.1727  0.0144 -0.1302
 1242ERGO   ROH16995   6.972   4.943   5.705 -0.2903 -0.1604 -0.0956
 1242ERGO    R116996   6.835   4.876   5.943 -0.1354 -0.1170  0.0080
 1242ERGO    R216997   6.924   4.953   6.193  0.0171 -0.0463 -0.0649
 1242ERGO    R316998   6.674   5.056   6.215  0.0173 -0.0640  0.0654
 1242ERGO    R416999   6.800   5.113   6.473  0.0808 -0.2311  0.0715
 1242ERGO    R517000   6.610   5.011   6.442  0.0737 -0.2147  0.0525
 1242ERGO    C117001   6.492   5.303   6.656  0.1179 -0.3554  0.2733
 1242ERGO    C217002   6.277   5.404   6.990 -0.5417 -0.0715  0.0639
 1243ERGO   ROH17003  16.920  14.925   5.882  0.1849 -0.2630  0.0118
 1243ERGO    R117004  16.822  14.873   6.142  0.0641 -0.1332 -0.0061
 1243ERGO    R217005  16.941  14.974   6.369  0.0700 -0.1716  0.0087
 1243ERGO    R317006  16.691  15.068   6.420  0.1224  0.0263 -0.0900
 1243ERGO    R417007  16.830  15.082   6.678 -0.0517 -0.3604  0.0325
 1243ERGO    R517008  16.639  14.984   6.638 -0.1231 -0.1366 -0.2065
 1243ERGO    C117009  16.530  15.233   6.905 -0.0733 -0.2846 -0.0464
 1243ERGO    C217010  16.513  15.326   7.161 -0.1042 -0.0612  0.0018
 1244ERGO   ROH17011   5.407  16.550   6.048 -0.1076  0.1286  0.1766
 1244ERGO    R117012   5.606  16.438   6.215 -0.0540 -0.0463 -0.0016
 1244ERGO    R217013   5.596  16.454   6.490  0.1776 -0.0846  0.0096
 1244ERGO    R317014   5.621  16.183   6.475 -0.0306 -0.1029 -0.0575
 1244ERGO    R417015   5.727  16.254   6.740  0.1487 -0.2312 -0.0906
 1244ERGO    R517016   5.829  16.137   6.586 -0.0093 -0.2787 -0.1636
 1244ERGO    C117017   5.827  15.884   6.871 -0.0635 -0.3339 -0.2119
 1244ERGO    C217018   5.709  15.657   7.053  0.1032 -0.1601 -0.0017
 1245ERGO   ROH17019  14.378  16.556   5.769 -0.0987  0.1205 -0.0851
 1245ERGO    R117020  14.274  16.459   6.014  0.0683  0.1289 -0.0092
 1245ERGO    R217021  14.426  16.440   6.244  0.1357  0.4648 -0.0222
 1245ERGO    R317022  14.225  16.589   6.350 -0.0429  0.2696 -0.0787
 1245ERGO    R417023  14.351  16.460   6.581 -0.0021  0.3684 -0.0460
 1245ERGO    R517024  14.139  16.455   6.529  0.0185  0.1746 -0.1199
 1245ERGO    C117025  14.118  16.611   6.876 -0.2499  0.1288 -0.1129
 1245ERGO    C217026  14.103  16.619   7.205  0.1387  0.1870  0.1006
 1246ERGO   ROH17027   8.897  18.156   6.000 -0.0435  0.3057  0.1476
 1246ERGO    R117028   8.807  18.284   6.236  0.0451  0.3735  0.1447
 1246ERGO    R217029   8.852  18.181   6.488 -0.1863  0.2501  0.1363
 1246ERGO    R317030   8.960  18.426   6.535  0.1329  0.0969  0.2347
 1246ERGO    R417031   8.915  18.313   6.801 -0.1833  0.1113  0.1953
 1246ERGO    R517032   8.845  18.506   6.729  0.1272  0.2271  0.1804
 1246ERGO    C117033   9.053  18.620   7.027  0.1180 -0.1136  0.3220
 1246ERGO    C217034   9.345  18.756   7.177 -0.0516  0.2632 -0.0851
 1247ERGO   ROH17035  15.520   7.349   5.882  0.2459  0.0537 -0.0264
 1247ERGO    R117036  15.529   7.223   6.135  0.2892 -0.0664 -0.0863
 1247ERGO    R217037  15.738   7.261   6.313  0.1615  0.1141  0.0309
 1247ERGO    R317038  15.538   7.330   6.483 -0.0119 -0.2307 -0.0254
 1247ERGO    R417039  15.761   7.254   6.658  0.1096  0.2409  0.0369
 1247ERGO    R517040  15.558   7.175   6.664  0.2546 -0.1533  0.0148
 1247ERGO    C117041  15.586   7.315   7.018 -0.0836 -0.0090 -0.0125
 1247ERGO    C217042  15.642   7.566   7.256 -0.1946 -0.0808 -0.1891
 1248ERGO   ROH17043   9.215  14.651   6.149  0.1521  0.0081 -0.0012
 1248ERGO    R117044   9.389  14.613   6.369  0.0952  0.0845  0.0575
 1248ERGO    R217045   9.493  14.824   6.514  0.0066  0.1318  0.0506
 1248ERGO    R317046   9.387  14.689   6.725 -0.0257  0.1470  0.0443
 1248ERGO    R417047   9.624  14.824   6.834  0.0504  0.0299  0.0331
 1248ERGO    R517048   9.578  14.611   6.847 -0.0414  0.0460  0.0077
 1248ERGO    C117049   9.600  14.697   7.218  0.0456 -0.0153  0.0169
 1248ERGO    C217050   9.665  14.755   7.515  0.1415 -0.1020 -0.2336
 1249ERGO   ROH17051  11.398  18.444   5.908 -0.1347  0.0593 -0.1489
 1249ERGO    R117052  11.552  18.364   6.132 -0.0604  0.0524 -0.2020
 1249ERGO    R217053  11.709  18.541   6.275 -0.0730  0.0643 -0.2016
 1249ERGO    R317054  11.566  18.447   6.486  0.0013 -0.0187 -0.1877
 1249ERGO    R417055  11.785  18.601   6.607 -0.1318  0.1911 -0.2110
 1249ERGO    R517056  11.732  18.395   6.652  0.0432  0.1531 -0.1737
 1249ERGO    C117057  11.694  18.549   6.998 -0.0962  0.1873 -0.2035
 1249ERGO    C217058  11.852  18.576   7.350 -0.1551  0.5313 -0.1493
 1250ERGO   ROH17059  10.471  12.669   6.290 -0.0447 -0.0782  0.1007
 1250ERGO    R117060  10.596  12.649   6.543  0.0168  0.0232  0.0780
 1250ERGO    R217061  10.587  12.419   6.696  0.0617  0.0843  0.1649
 1250ERGO    R317062  10.858  12.447   6.694  0.0619  0.0918  0.0958
 1250ERGO    R417063  10.805  12.239   6.894  0.1153  0.0340  0.0624
 1250ERGO    R517064  10.921  12.421   6.924  0.1218  0.0341  0.0772
 1250ERGO    C117065  11.186  12.160   7.009  0.1467  0.0118 -0.0622
 1250ERGO    C217066  11.316  11.863   7.151  0.0636 -0.2059  0.2610
 1251ERGO   ROH17067   6.757   4.023   5.999  0.0948  0.1219  0.0639
 1251ERGO    R117068   6.845   4.000   6.267  0.0174  0.0912  0.0874
 1251ERGO    R217069   6.733   4.148   6.473 -0.1079 -0.0015  0.0900
 1251ERGO    R317070   6.698   3.903   6.586 -0.0485 -0.0442  0.0159
 1251ERGO    R417071   6.688   4.091   6.811  0.1674 -0.1426  0.1053
 1251ERGO    R517072   6.817   3.916   6.793  0.1269 -0.1529 -0.0776
 1251ERGO    C117073   6.629   3.828   7.113  0.3835 -0.2647  0.0447
 1251ERGO    C217074   6.529   3.524   7.294 -0.0397 -0.0525  0.1314
 1252ERGO   ROH17075  16.084  12.260   5.987  0.0076  0.3902  0.0905
 1252ERGO    R117076  16.165  12.149   6.234 -0.0933  0.0880 -0.0066
 1252ERGO    R217077  16.250  12.304   6.446  0.1917 -0.1862  0.0941
 1252ERGO    R317078  16.056  12.170   6.581  0.0188 -0.0000  0.0329
 1252ERGO    R417079  16.241  12.260   6.789  0.0932 -0.2770  0.0793
 1252ERGO    R517080  16.172  12.056   6.756 -0.1390 -0.1859  0.0149
 1252ERGO    C117081  16.053  12.108   7.115 -0.1263 -0.1551  0.0131
 1252ERGO    C217082  15.725  11.915   7.261 -0.1494 -0.0917 -0.0023
 1253ERGO   ROH17083   8.196   6.193   5.642 -0.1526  0.0973  0.1228
 1253ERGO    R117084   8.310   6.115   5.889 -0.0502  0.0434  0.0593
 1253ERGO    R217085   8.518   6.253   6.007 -0.0386  0.0509  0.0301
 1253ERGO    R317086   8.349   6.262   6.220  0.0327 -0.0520  0.0922
 1253ERGO    R417087   8.618   6.275   6.337  0.0690  0.0761 -0.0036
 1253ERGO    R517088   8.460   6.133   6.389  0.1595 -0.0089  0.0429
 1253ERGO    C117089   8.518   6.296   6.729  0.1985 -0.0060  0.0350
 1253ERGO    C217090   8.446   6.306   7.027 -0.2035 -0.0571 -0.0744
 1254ERGO   ROH17091  15.561  10.710   6.091 -0.0164  0.0668  0.0836
 1254ERGO    R117092  15.435  10.804   6.326 -0.2375  0.0553 -0.0273
 1254ERGO    R217093  15.210  10.683   6.433 -0.1405 -0.1624 -0.0510
 1254ERGO    R317094  15.362  10.674   6.658 -0.2170  0.1633  0.0183
 1254ERGO    R417095  15.100  10.572   6.741 -0.1062 -0.1529 -0.0362
 1254ERGO    R517096  15.212  10.735   6.834 -0.3680  0.0478 -0.0742
 1254ERGO    C117097  15.179  10.499   7.132 -0.1580  0.1582  0.0375
 1254ERGO    C217098  15.201  10.282   7.345 -0.2450  0.2793 -0.0335
 1255ERGO   ROH17099  14.460  17.497   5.707  0.0600 -0.2096  0.0002
 1255ERGO    R117100  14.487  17.616   5.962  0.0320 -0.0005 -0.0934
 1255ERGO    R217101  14.571  17.475   6.184 -0.2589  0.1124  0.0880
 1255ERGO    R317102  14.756  17.673   6.200 -0.0498 -0.0716  0.0201
 1255ERGO    R417103  14.777  17.532   6.456 -0.4565  0.1971  0.2233
 1255ERGO    R517104  14.747  17.746   6.428 -0.1945  0.2103 -0.0664
 1255ERGO    C117105  15.071  17.752   6.629 -0.3752  0.0737  0.2383
 1255ERGO    C217106  15.268  17.830   6.908 -0.0647 -0.0063  0.0569
 1256ERGO   ROH17107  15.241  18.343   5.677 -0.2716  0.1171  0.1299
 1256ERGO    R117108  15.378  18.263   5.912 -0.1588  0.0246  0.0341
 1256ERGO    R217109  15.613  18.382   5.996 -0.0679 -0.0671 -0.0774
 1256ERGO    R317110  15.474  18.416   6.227  0.0755 -0.0696  0.0094
 1256ERGO    R417111  15.731  18.550   6.274  0.0184  0.1127 -0.2203
 1256ERGO    R517112  15.640  18.396   6.399  0.2071  0.1026 -0.0982
 1256ERGO    C117113  15.671  18.679   6.653  0.2032  0.2153 -0.2219
 1256ERGO    C217114  15.766  18.838   6.903 -0.2332  0.1787 -0.2917
 1257ERGO   ROH17115   7.798  16.654   6.187 -0.2579 -0.2759 -0.2391
 1257ERGO    R117116   7.927  16.529   6.406 -0.1072  0.0132 -0.1567
 1257ERGO    R217117   7.789  16.435   6.627 -0.0120 -0.1051 -0.1442
 1257ERGO    R317118   7.917  16.203   6.567  0.3581  0.0599 -0.0192
 1257ERGO    R417119   7.804  16.158   6.833  0.1462 -0.0867 -0.1308
 1257ERGO    R517120   8.012  16.132   6.775  0.2454  0.1870  0.0769
 1257ERGO    C117121   7.933  15.779   6.898  0.5859  0.0791 -0.0057
 1257ERGO    C217122   7.951  15.586   7.215  0.1591 -0.0364 -0.0898
 1258ERGO   ROH17123   9.633  10.428   6.017  0.2338 -0.1264 -0.0307
 1258ERGO    R117124   9.598  10.637   6.205  0.1258 -0.1327 -0.0435
 1258ERGO    R217125   9.810  10.750   6.342  0.0524 -0.1075  0.0483
 1258ERGO    R317126   9.709  10.981   6.240  0.0662 -0.1185  0.0076
 1258ERGO    R417127   9.957  11.061   6.375  0.0894 -0.1144 -0.0403
 1258ERGO    R517128   9.759  11.146   6.407  0.1031 -0.0854 -0.0361
 1258ERGO    C117129   9.948  11.459   6.300  0.1239 -0.1289 -0.1301
 1258ERGO    C217130  10.194  11.718   6.261  0.0803  0.3061  0.0214
 1259ERGO   ROH17131  13.458  16.397   5.709  0.2628 -0.0542  0.0786
 1259ERGO    R117132  13.310  16.339   5.943  0.0846 -0.1215 -0.0481
 1259ERGO    R217133  13.349  16.108   6.090  0.1076 -0.0760  0.0222
 1259ERGO    R317134  13.383  16.284   6.295 -0.2001 -0.0198  0.0289
 1259ERGO    R417135  13.287  16.039   6.423 -0.0819 -0.0856 -0.0146
 1259ERGO    R517136  13.202  16.238   6.444 -0.2721 -0.1584 -0.1018
 1259ERGO    C117137  13.283  16.163   6.809 -0.4812 -0.0383 -0.0298
 1259ERGO    C217138  13.375  16.330   7.116 -0.0317  0.0355 -0.1595
 1260ERGO   ROH17139  19.079   0.235   5.939  0.1034  0.0654  0.1620
 1260ERGO    R117140  18.950   0.430   6.099  0.0734  0.0511  0.1570
 1260ERGO    R217141  18.797   0.363   6.319  0.0336  0.0313  0.1297
 1260ERGO    R317142  18.963   0.537   6.446  0.0145  0.0189  0.1672
 1260ERGO    R417143  18.753   0.479   6.642  0.1216 -0.1709  0.2149
 1260ERGO    R517144  18.817   0.676   6.575  0.0182 -0.1122  0.3075
 1260ERGO    C117145  18.884   0.709   6.949  0.1549 -0.3003  0.2998
 1260ERGO    C217146  18.907   0.633   7.270 -0.1709  0.0854  0.0463
 1261ERGO   ROH17147   7.061   3.066   6.200  0.0862 -0.1636 -0.0944
 1261ERGO    R117148   7.253   3.049   6.406  0.0772 -0.0205 -0.0733
 1261ERGO    R217149   7.236   3.199   6.637 -0.0617 -0.0340 -0.0707
 1261ERGO    R317150   7.257   2.956   6.758  0.1066 -0.0229 -0.0755
 1261ERGO    R417151   7.356   3.148   6.957 -0.1099  0.0423 -0.0400
 1261ERGO    R517152   7.460   2.970   6.884  0.0569  0.1348 -0.0173
 1261ERGO    C117153   7.446   2.890   7.257  0.0200  0.0971 -0.0266
 1261ERGO    C217154   7.387   2.658   7.582  0.1307  0.2690  0.0646
 1262ERGO   ROH17155   2.083   4.752   5.757  0.1230 -0.1662 -0.0312
 1262ERGO    R117156   1.861   4.773   5.931  0.0751 -0.1518 -0.0934
 1262ERGO    R217157   1.888   4.784   6.205 -0.0044 -0.2038 -0.0831
 1262ERGO    R317158   1.740   5.011   6.178  0.0487 -0.1701 -0.0885
 1262ERGO    R417159   1.789   4.987   6.467  0.0785 -0.1535 -0.0908
 1262ERGO    R517160   1.595   5.010   6.369  0.0718 -0.1155 -0.0700
 1262ERGO    C117161   1.593   5.318   6.594  0.1767 -0.0927 -0.1003
 1262ERGO    C217162   1.702   5.592   6.795 -0.1352 -0.0860 -0.2952
 1263ERGO   ROH17163   0.636   5.479   5.742 -0.1568 -0.1437  0.0236
 1263ERGO    R117164   0.745   5.713   5.858 -0.1894 -0.1160 -0.0039
 1263ERGO    R217165   0.628   5.841   6.073 -0.1395 -0.1791  0.0551
 1263ERGO    R317166   0.875   5.812   6.183 -0.0799 -0.0956 -0.0517
 1263ERGO    R417167   0.755   6.038   6.327  0.0085  0.0540 -0.1935
 1263ERGO    R517168   0.948   6.036   6.225 -0.0420 -0.0546 -0.3012
 1263ERGO    C117169   1.060   6.126   6.579  0.1507  0.2682 -0.4384
 1263ERGO    C217170   1.044   6.077   6.943  0.0978  0.2135 -0.1830
 1264ERGO   ROH17171   8.281  18.915   5.531  0.1362  0.0595 -0.0380
 1264ERGO    R117172   8.206  18.893   5.803  0.1029  0.0326 -0.0480
 1264ERGO    R217173   8.336  19.029   6.005  0.1217 -0.0326 -0.0064
 1264ERGO    R317174   8.085  19.116   6.064  0.1374  0.0228 -0.0264
 1264ERGO    R417175   8.236  19.151   6.313  0.0514 -0.2385  0.0527
 1264ERGO    R517176   8.048  19.043   6.289  0.0208 -0.1395 -0.1019
 1264ERGO    C117177   7.942  19.303   6.547  0.0250 -0.3063  0.0682
 1264ERGO    C217178   7.881  19.614   6.701 -0.1520 -0.1847  0.1303
 1265ERGO   ROH17179   6.383  10.855   6.099 -0.1679 -0.0105  0.0117
 1265ERGO    R117180   6.286  10.855   6.365 -0.1148  0.0978  0.0315
 1265ERGO    R217181   6.123  11.054   6.464 -0.1923  0.0752 -0.0556
 1265ERGO    R317182   5.960  10.846   6.527 -0.0789  0.0319  0.1022
 1265ERGO    R417183   5.919  11.040   6.743 -0.3336  0.2688 -0.1460
 1265ERGO    R517184   5.973  10.830   6.766 -0.1949  0.3279  0.1341
 1265ERGO    C117185   5.648  10.836   6.964 -0.3093  0.3410 -0.0506
 1265ERGO    C217186   5.342  10.793   7.169 -0.0875 -0.0132  0.0234
 1266ERGO   ROH17187  11.975  18.248   5.863  0.1895 -0.0401  0.2290
 1266ERGO    R117188  12.075  18.216   6.125  0.3532 -0.0092  0.1714
 1266ERGO    R217189  12.292  18.359   6.220  0.2416  0.2058  0.1078
 1266ERGO    R317190  12.119  18.427   6.419  0.2588 -0.0474  0.2135
 1266ERGO    R417191  12.380  18.523   6.511  0.1489  0.5484 -0.0524
 1266ERGO    R517192  12.244  18.393   6.620  0.5043  0.3155  0.1319
 1266ERGO    C117193  12.270  18.683   6.867  0.1110  0.5098 -0.0464
 1266ERGO    C217194  12.180  18.940   6.991  0.2639 -0.1409  0.0165
 1267ERGO   ROH17195  13.784  18.793   5.420 -0.0651 -0.0688 -0.0364
 1267ERGO    R117196  13.883  18.749   5.681 -0.1508 -0.0361  0.0020
 1267ERGO    R217197  13.994  18.951   5.835 -0.0719 -0.0459 -0.0430
 1267ERGO    R317198  13.809  18.869   6.016 -0.1603  0.1216 -0.0557
 1267ERGO    R417199  14.031  18.969   6.178 -0.0196 -0.2030 -0.0393
 1267ERGO    R517200  13.937  18.773   6.194 -0.2606 -0.0962 -0.0965
 1267ERGO    C117201  13.879  18.903   6.548 -0.0721 -0.1373 -0.0491
 1267ERGO    C217202  13.895  18.788   6.860 -0.1753  0.0568 -0.0427
 1268ERGO   ROH17203   3.666   9.378   5.571  0.2665  0.0649 -0.3318
 1268ERGO    R117204   3.753   9.535   5.790  0.1761  0.0131 -0.2590
 1268ERGO    R217205   3.689   9.473   6.051 -0.0051  0.0004 -0.3085
 1268ERGO    R317206   3.959   9.484   6.086 -0.0215 -0.0803 -0.1352
 1268ERGO    R417207   3.848   9.538   6.352 -0.1758 -0.1410 -0.1844
 1268ERGO    R517208   3.992   9.661   6.243 -0.0743 -0.1403 -0.0540
 1268ERGO    C117209   4.193   9.586   6.559 -0.2906 -0.2993  0.0504
 1268ERGO    C217210   4.411   9.546   6.831  0.2380 -0.1226 -0.0704
 1269ERGO   ROH17211  14.262  17.023   5.815 -0.0515  0.0767 -0.0706
 1269ERGO    R117212  14.230  16.941   6.084  0.0476  0.0244 -0.0738
 1269ERGO    R217213  14.217  17.121   6.293  0.0600 -0.0120 -0.0393
 1269ERGO    R317214  13.985  16.991   6.347  0.1096 -0.0827  0.0042
 1269ERGO    R417215  14.045  17.140   6.592  0.0220  0.0647 -0.0662
 1269ERGO    R517216  14.004  16.927   6.577  0.1135  0.0411  0.0377
 1269ERGO    C117217  13.726  17.029   6.817  0.0465  0.0431 -0.0411
 1269ERGO    C217218  13.368  17.143   6.938  0.0538 -0.0200  0.1455
 1270ERGO   ROH17219   9.261  16.824   5.898  0.2685 -0.3617 -0.0122
 1270ERGO    R117220   9.326  16.783   6.171  0.1042 -0.1097  0.0672
 1270ERGO    R217221   9.561  16.874   6.283  0.0206  0.0110  0.1284
 1270ERGO    R317222   9.393  16.992   6.461 -0.0952  0.1573 -0.0716
 1270ERGO    R417223   9.654  16.991   6.595 -0.2782 -0.3082  0.3466
 1270ERGO    R517224   9.467  16.912   6.675 -0.5378 -0.0864  0.0111
 1270ERGO    C117225   9.550  17.171   6.943 -0.5609 -0.3570  0.2859
 1270ERGO    C217226   9.675  17.188   7.319  0.0945 -0.0987  0.1348
 1271ERGO   ROH17227   1.464   9.899   5.512 -0.1265 -0.0438  0.0423
 1271ERGO    R117228   1.429   9.786   5.768 -0.1215 -0.0071  0.0608
 1271ERGO    R217229   1.640   9.736   5.939 -0.0862 -0.2104 -0.0289
 1271ERGO    R317230   1.494   9.885   6.113  0.1326 -0.0592  0.0284
 1271ERGO    R417231   1.658   9.710   6.283 -0.1511 -0.3894 -0.0392
 1271ERGO    R517232   1.441   9.732   6.290 -0.1166 -0.0552 -0.0443
 1271ERGO    C117233   1.531   9.835   6.647  0.0165 -0.3518  0.0088
 1271ERGO    C217234   1.302   9.734   6.944  0.0210  0.1659 -0.0361
 1272ERGO   ROH17235   0.991   7.200   5.757  0.1433  0.2810 -0.0049
 1272ERGO    R117236   1.183   7.095   5.936  0.1072  0.2257  0.0032
 1272ERGO    R217237   1.300   7.246   6.134  0.0021  0.1432  0.1359
 1272ERGO    R317238   1.212   7.046   6.296 -0.0101  0.0275 -0.0139
 1272ERGO    R417239   1.473   7.123   6.408 -0.0653  0.0030  0.1153
 1272ERGO    R517240   1.410   6.922   6.350 -0.0091  0.0302 -0.0266
 1272ERGO    C117241   1.490   6.864   6.718 -0.1161 -0.1873 -0.0374
 1272ERGO    C217242   1.550   6.697   6.970 -0.1482 -0.1696 -0.4389
 1273ERGO   ROH17243  18.208  13.871   5.936  0.3520 -0.1133  0.0460
 1273ERGO    R117244  18.091  13.909   6.191  0.1650  0.1446 -0.0745
 1273ERGO    R217245  18.215  13.829   6.425 -0.1684  0.0411  0.0681
 1273ERGO    R317246  18.175  14.088   6.496  0.1406  0.1286 -0.0572
 1273ERGO    R417247  18.213  13.947   6.750 -0.3261  0.1398  0.0331
 1273ERGO    R517248  18.045  14.076   6.697 -0.0896  0.3774 -0.1809
 1273ERGO    C117249  18.174  14.259   7.006 -0.1279  0.2794 -0.1048
 1273ERGO    C217250  18.194  14.504   7.328 -0.1574 -0.0879  0.4586
 1274ERGO   ROH17251   6.994  14.856   5.556  0.1920  0.0742 -0.0393
 1274ERGO    R117252   6.872  14.764   5.794  0.1393 -0.0364 -0.1071
 1274ERGO    R217253   6.854  14.496   5.858  0.2329 -0.0641 -0.1755
 1274ERGO    R317254   6.975  14.577   6.089  0.1108 -0.0595 -0.1135
 1274ERGO    R417255   6.943  14.287   6.118  0.0948 -0.0504 -0.1173
 1274ERGO    R517256   6.876  14.440   6.258  0.0232 -0.0491 -0.1607
 1274ERGO    C117257   7.108  14.240   6.486 -0.1003 -0.0383 -0.0252
 1274ERGO    C217258   7.201  14.154   6.876 -0.0551 -0.1087 -0.0218
 1275ERGO   ROH17259   0.593   8.226   5.829 -0.0293 -0.0620 -0.0852
 1275ERGO    R117260   0.532   8.083   6.065  0.0831 -0.0714 -0.0624
 1275ERGO    R217261   0.285   7.966   6.109  0.0654  0.0325  0.1009
 1275ERGO    R317262   0.434   7.743   6.149 -0.0033 -0.0425 -0.0422
 1275ERGO    R417263   0.206   7.714   6.331  0.1656  0.0845  0.1977
 1275ERGO    R517264   0.417   7.702   6.385  0.2191 -0.0194 -0.0186
 1275ERGO    C117265   0.301   7.357   6.499  0.1595  0.0444  0.1198
 1275ERGO    C217266   0.024   7.223   6.816 -0.0147 -0.3426  0.3636
 1276ERGO   ROH17267  14.682  10.036   5.926  0.0553  0.1120  0.1872
 1276ERGO    R117268  14.545   9.988   6.169  0.0258  0.0722  0.1623
 1276ERGO    R217269  14.317   9.834   6.183 -0.0348  0.1591  0.0917
 1276ERGO    R317270  14.459   9.698   6.370 -0.0996  0.0283  0.0478
 1276ERGO    R417271  14.178   9.647   6.438 -0.1275 -0.0009 -0.0733
 1276ERGO    R517272  14.332   9.724   6.572 -0.1628 -0.0951  0.0270
 1276ERGO    C117273  14.230   9.410   6.762 -0.2425 -0.2167 -0.2107
 1276ERGO    C217274  14.159   9.077   6.885 -0.1170  0.1684 -0.2654
 1277ERGO   ROH17275  13.262   8.878   5.984  0.0020  0.0466  0.0491
 1277ERGO    R117276  13.419   8.984   6.195 -0.1066  0.0762  0.1162
 1277ERGO    R217277  13.314   9.039   6.444 -0.2017 -0.0325  0.1035
 1277ERGO    R317278  13.518   8.880   6.529 -0.1461  0.0469  0.1182
 1277ERGO    R417279  13.359   8.933   6.770 -0.0915  0.1123  0.1361
 1277ERGO    R517280  13.573   8.966   6.746 -0.1065  0.1479  0.0670
 1277ERGO    C117281  13.575   8.722   7.040  0.0251  0.2712  0.1688
 1277ERGO    C217282  13.629   8.716   7.426 -0.2994 -0.2058 -0.1824
 1278ERGO   ROH17283   1.947  17.140   5.903  0.1339  0.2135 -0.1747
 1278ERGO    R117284   1.933  17.153   6.185 -0.0116 -0.0206 -0.1678
 1278ERGO    R217285   2.064  16.974   6.349  0.1289  0.0025 -0.2484
 1278ERGO    R317286   2.168  17.199   6.460 -0.1864  0.0472 -0.0291
 1278ERGO    R417287   2.237  16.984   6.648  0.4176 -0.1053 -0.4078
 1278ERGO    R517288   2.134  17.170   6.695  0.1057 -0.3637 -0.0284
 1278ERGO    C117289   2.436  17.202   6.926  0.2896 -0.1261 -0.2947
 1278ERGO    C217290   2.756  17.095   7.025  0.0627 -0.0676 -0.1850
 1279ERGO   ROH17291  11.884   9.957   6.257  0.0324 -0.1655 -0.0294
 1279ERGO    R117292  11.693  10.043   6.447 -0.0836 -0.2272 -0.1169
 1279ERGO    R217293  11.496   9.876   6.546  0.1560 -0.4040  0.0727
 1279ERGO    R317294  11.599   9.952   6.786  0.0623  0.0075 -0.0107
 1279ERGO    R417295  11.335   9.844   6.851  0.2064 -0.2873  0.1118
 1279ERGO    R517296  11.412  10.040   6.907 -0.0579 -0.1122 -0.1063
 1279ERGO    C117297  11.337   9.897   7.253  0.1478  0.1668  0.0564
 1279ERGO    C217298  11.102   9.834   7.496 -0.2202 -0.0426 -0.0353
 1280ERGO   ROH17299  17.819   7.272   5.662 -0.1058  0.0017 -0.3025
 1280ERGO    R117300  17.701   7.087   5.842 -0.0402  0.0556 -0.2046
 1280ERGO    R217301  17.831   6.858   5.926 -0.0048  0.0909 -0.1730
 1280ERGO    R317302  17.776   6.957   6.173  0.0703  0.1654 -0.1850
 1280ERGO    R417303  17.726   6.671   6.197 -0.0658  0.1902 -0.1265
 1280ERGO    R517304  17.588   6.830   6.249  0.0152  0.2686 -0.1410
 1280ERGO    C117305  17.614   6.655   6.587 -0.0312  0.3179 -0.1107
 1280ERGO    C217306  17.633   6.439   6.732 -0.0305  0.2194  0.1748
 1281ERGO   ROH17307   1.395   7.278   5.531 -0.1157 -0.2020  0.0703
 1281ERGO    R117308   1.610   7.264   5.714 -0.0424 -0.1406 -0.0113
 1281ERGO    R217309   1.809   7.456   5.724 -0.1793 -0.0005  0.0170
 1281ERGO    R317310   1.739   7.469   5.987 -0.0976 -0.1874  0.0509
 1281ERGO    R417311   1.976   7.640   5.965 -0.3186  0.1252  0.0194
 1281ERGO    R517312   1.947   7.475   6.104 -0.0558  0.0334 -0.0282
 1281ERGO    C117313   2.006   7.760   6.351 -0.3231  0.0229  0.0525
 1281ERGO    C217314   2.290   7.756   6.557 -0.1052 -0.2757 -0.0196
 1282ERGO   ROH17315  17.071  17.213   5.927  0.1795 -0.2741 -0.3503
 1282ERGO    R117316  16.928  17.175   6.168  0.1804  0.0608 -0.2918
 1282ERGO    R217317  16.799  16.938   6.229 -0.1525  0.2751 -0.1333
 1282ERGO    R317318  16.949  16.952   6.455 -0.0733  0.1772 -0.1797
 1282ERGO    R417319  16.681  16.879   6.548 -0.1072  0.4084 -0.0911
 1282ERGO    R517320  16.802  17.046   6.619  0.0522  0.3175 -0.1457
 1282ERGO    C117321  16.753  16.857   6.946 -0.0062  0.3940 -0.1101
 1282ERGO    C217322  16.566  16.917   7.197 -0.1317 -0.1371  0.1971
 1283ERGO   ROH17323   7.204  10.323   5.955  0.2151 -0.0951  0.1035
 1283ERGO    R117324   7.332  10.456   6.169  0.0967 -0.0140  0.1268
 1283ERGO    R217325   7.251  10.703   6.262 -0.0315 -0.0265  0.0577
 1283ERGO    R317326   7.240  10.573   6.501 -0.0635  0.0005  0.0804
 1283ERGO    R417327   7.233  10.858   6.570 -0.1314  0.0186  0.0289
 1283ERGO    R517328   7.372  10.709   6.648 -0.1163  0.0497  0.0886
 1283ERGO    C117329   7.214  10.828   6.974 -0.2197  0.0703  0.0334
 1283ERGO    C217330   7.225  10.918   7.385  0.0370  0.2980  0.2105
 1284ERGO   ROH17331  15.497   2.807   5.798 -0.0964 -0.1048 -0.0270
 1284ERGO    R117332  15.563   2.691   6.048  0.1381  0.0619 -0.0073
 1284ERGO    R217333  15.680   2.835   6.253 -0.1114  0.3243 -0.0415
 1284ERGO    R317334  15.468   2.741   6.396  0.0647 -0.0436 -0.0119
 1284ERGO    R417335  15.658   2.837   6.598 -0.0745  0.3039 -0.0394
 1284ERGO    R517336  15.567   2.639   6.588  0.2707  0.1381 -0.0177
 1284ERGO    C117337  15.446   2.750   6.933  0.1123 -0.0534 -0.0104
 1284ERGO    C217338  15.541   2.917   7.167  0.0656  0.0712  0.1227
 1285ERGO   ROH17339   4.920   4.631   5.786  0.4133  0.0894  0.1755
 1285ERGO    R117340   4.758   4.602   6.016  0.2149  0.1740  0.0534
 1285ERGO    R217341   4.817   4.423   6.219 -0.1549 -0.0409 -0.0028
 1285ERGO    R317342   4.799   4.645   6.375  0.0509 -0.0890  0.1072
 1285ERGO    R417343   4.693   4.429   6.541 -0.3360 -0.0463 -0.0737
 1285ERGO    R517344   4.594   4.617   6.495 -0.0625  0.1195 -0.0317
 1285ERGO    C117345   4.604   4.640   6.876 -0.2482 -0.0945 -0.0118
 1285ERGO    C217346   4.608   4.754   7.259  0.0852  0.0857  0.1091
 1286ERGO   ROH17347   1.805  14.277   6.057  0.0599 -0.0830  0.1076
 1286ERGO    R117348   1.752  14.171   6.314  0.1252 -0.2069  0.0710
 1286ERGO    R217349   1.814  13.911   6.383  0.4017 -0.1584  0.0182
 1286ERGO    R317350   1.947  14.032   6.587  0.2277 -0.0595  0.0748
 1286ERGO    R417351   1.922  13.753   6.671  0.3549 -0.0718  0.0833
 1286ERGO    R517352   1.862  13.928   6.785  0.1911 -0.0972  0.0403
 1286ERGO    C117353   2.110  13.774   7.030  0.1643  0.0714  0.1743
 1286ERGO    C217354   2.181  13.884   7.328  0.0608 -0.2696  0.1077
 1287ERGO   ROH17355  16.938  11.070   6.626  0.0560  0.1536 -0.3131
 1287ERGO    R117356  17.069  11.141   6.867 -0.0707  0.0684 -0.2167
 1287ERGO    R217357  17.236  10.968   7.002 -0.0652  0.0523 -0.2409
 1287ERGO    R317358  17.413  11.173   6.980 -0.1291  0.1288 -0.0546
 1287ERGO    R417359  17.498  11.028   7.220  0.0091 -0.1546 -0.2714
 1287ERGO    R517360  17.455  11.241   7.206 -0.0536 -0.1461  0.0165
 1287ERGO    C117361  17.816  11.256   7.326 -0.0078 -0.2032 -0.1144
 1287ERGO    C217362  18.144  11.450   7.417  0.1477 -0.1843 -0.3153
 1288ERGO   ROH17363  10.964  14.661   6.197  0.0200 -0.0187 -0.0290
 1288ERGO    R117364  10.897  14.534   6.440 -0.0218  0.0264 -0.0171
 1288ERGO    R217365  11.081  14.490   6.641 -0.0270 -0.0527 -0.0304
 1288ERGO    R317366  10.899  14.622   6.794  0.0489  0.0432 -0.0212
 1288ERGO    R417367  11.108  14.539   6.982 -0.0665 -0.2219 -0.0021
 1288ERGO    R517368  10.894  14.499   6.999 -0.1087 -0.0429 -0.0735
 1288ERGO    C117369  10.952  14.692   7.324 -0.0183 -0.2304  0.0231
 1288ERGO    C217370  10.944  14.955   7.536  0.0292 -0.1247 -0.0305
 1289ERGO   ROH17371   9.734   8.516   6.144  0.2110 -0.3879  0.0509
 1289ERGO    R117372   9.881   8.574   6.379  0.1730 -0.3456  0.0635
 1289ERGO    R217373  10.138   8.674   6.373  0.1172 -0.2105  0.0860
 1289ERGO    R317374  10.031   8.868   6.531  0.0151 -0.2885  0.1149
 1289ERGO    R417375  10.309   8.844   6.621  0.1159  0.0193 -0.0664
 1289ERGO    R517376  10.130   8.832   6.746  0.2045 -0.1449  0.0593
 1289ERGO    C117377  10.308   9.125   6.914  0.0192  0.0799 -0.1279
 1289ERGO    C217378  10.274   9.365   7.040  0.0580  0.0294  0.3372
 1290ERGO   ROH17379   6.226   0.277   5.850 -0.1662  0.0455 -0.0712
 1290ERGO    R117380   6.364   0.149   6.062 -0.1354  0.0677 -0.0790
 1290ERGO    R217381   6.612   0.235   6.150 -0.1142  0.0617 -0.1420
 1290ERGO    R317382   6.487   0.243   6.391 -0.0636  0.1075 -0.1158
 1290ERGO    R417383   6.769   0.207   6.457 -0.0619 -0.0174 -0.1748
 1290ERGO    R517384   6.604   0.083   6.525 -0.1037  0.0498 -0.1457
 1290ERGO    C117385   6.743   0.198   6.861  0.0159 -0.0206 -0.1693
 1290ERGO    C217386   6.616   0.108   7.153  0.1526  0.1120  0.1874
 1291ERGO   ROH17387   2.026   6.351   5.739  0.1388 -0.1988  0.0731
 1291ERGO    R117388   1.964   6.506   5.968  0.2638 -0.0479  0.0065
 1291ERGO    R217389   1.864   6.395   6.200 -0.0581  0.1615 -0.0261
 1291ERGO    R317390   2.075   6.521   6.314  0.0949 -0.1672  0.0671
 1291ERGO    R417391   1.931   6.402   6.539 -0.1869  0.0498  0.0029
 1291ERGO    R517392   1.989   6.611   6.518  0.1468 -0.0358  0.0313
 1291ERGO    C117393   2.169   6.525   6.844 -0.1183 -0.3237  0.1072
 1291ERGO    C217394   2.129   6.612   7.133  0.1869  0.1621 -0.2138
 1292ERGO   ROH17395   3.009  18.964   6.394  0.1494 -0.0207 -0.0225
 1292ERGO    R117396   3.068  18.882   6.658  0.2699 -0.0287 -0.0517
 1292ERGO    R217397   3.273  18.993   6.806  0.0560  0.2844  0.0179
 1292ERGO    R317398   3.075  19.035   6.987 -0.0489 -0.1518  0.0168
 1292ERGO    R417399   3.322  19.030   7.146 -0.0381  0.2966  0.0304
 1292ERGO    R517400   3.144  18.910   7.180  0.1900 -0.0714 -0.0109
 1292ERGO    C117401   3.165  19.092   7.514 -0.1913 -0.1057  0.0367
 1292ERGO    C217402   3.168  19.063   7.865  0.3910  0.2040  0.0102
 1293ERGO   ROH17403   2.958  11.496   5.489 -0.0236 -0.1856 -0.0579
 1293ERGO    R117404   2.942  11.427   5.763 -0.0051 -0.2018 -0.0605
 1293ERGO    R217405   2.901  11.167   5.848 -0.0151 -0.2061 -0.0725
 1293ERGO    R317406   3.126  11.214   5.993  0.0006 -0.2286 -0.0905
 1293ERGO    R417407   2.983  11.008   6.144 -0.1805  0.0420  0.1103
 1293ERGO    R517408   3.056  11.199   6.221 -0.0439  0.0684 -0.0821
 1293ERGO    C117409   3.243  10.960   6.452 -0.2621  0.1653  0.1998
 1293ERGO    C217410   3.673  10.749   6.544  0.1749 -0.1677 -0.0229
 1294ERGO   ROH17411   4.496   3.396   6.073 -0.1033 -0.1637  0.0034
 1294ERGO    R117412   4.545   3.436   6.349 -0.1230 -0.1980  0.0109
 1294ERGO    R217413   4.532   3.232   6.534 -0.0945 -0.2261 -0.0254
 1294ERGO    R317414   4.783   3.314   6.596 -0.1121 -0.1916  0.0055
 1294ERGO    R417415   4.651   3.275   6.855 -0.1886 -0.0815 -0.0080
 1294ERGO    R517416   4.753   3.455   6.788 -0.1730 -0.1048 -0.0626
 1294ERGO    C117417   4.956   3.377   7.101 -0.2599  0.0351  0.0312
 1294ERGO    C217418   5.193   3.198   7.212  0.1298  0.1148 -0.2901
 1295ERGO   ROH17419  15.075  11.598   6.384  0.1131 -0.0803  0.0486
 1295ERGO    R117420  15.046  11.764   6.612  0.0335 -0.0699  0.0312
 1295ERGO    R217421  14.831  11.934   6.646 -0.0240 -0.1365 -0.0082
 1295ERGO    R317422  14.806  11.802   6.883 -0.0100 -0.1225  0.0011
 1295ERGO    R417423  14.633  12.038   6.910  0.0182 -0.0972  0.0079
 1295ERGO    R517424  14.792  11.977   7.046  0.0298 -0.1092 -0.0069
 1295ERGO    C117425  14.495  11.976   7.285  0.0560 -0.0610  0.0259
 1295ERGO    C217426  14.375  12.237   7.340  0.2313 -0.1737 -0.3164
 1296ERGO   ROH17427  13.010   5.016   6.365  0.0920 -0.1718 -0.0270
 1296ERGO    R117428  13.013   5.218   6.563  0.1480 -0.1771 -0.0222
 1296ERGO    R217429  12.826   5.231   6.766  0.0987 -0.0795 -0.0728
 1296ERGO    R317430  13.046   5.233   6.925  0.0576 -0.2029 -0.0128
 1296ERGO    R417431  12.823   5.292   7.106  0.0520  0.0245 -0.0916
 1296ERGO    R517432  13.005   5.410   7.081  0.1511 -0.1233 -0.0774
 1296ERGO    C117433  13.028   5.330   7.453 -0.0138 -0.0307 -0.0461
 1296ERGO    C217434  13.337   5.349   7.648  0.0747 -0.0369  0.0030
 1297ERGO   ROH17435  17.029   6.984   7.399 -0.1772  0.1682 -0.1447
 1297ERGO    R117436  17.024   7.209   7.572 -0.0060  0.1330 -0.0906
 1297ERGO    R217437  16.805   7.273   7.727 -0.0195  0.3492 -0.1846
 1297ERGO    R317438  16.986   7.267   7.929 -0.1233  0.0802 -0.0961
 1297ERGO    R417439  16.793   7.471   8.010  0.0675  0.2534 -0.1143
 1297ERGO    R517440  17.008   7.496   7.996  0.0957  0.0264  0.0025
 1297ERGO    C117441  16.956   7.580   8.364  0.0208 -0.0548  0.0098
 1297ERGO    C217442  16.779   7.747   8.598 -0.1216  0.0447 -0.1983
 1298ERGO   ROH17443  15.037   2.092   5.966  0.1250  0.3533  0.2350
 1298ERGO    R117444  15.023   1.850   6.111  0.2025  0.3403  0.2177
 1298ERGO    R217445  15.053   1.840   6.385 -0.1011  0.3747  0.2471
 1298ERGO    R317446  14.814   1.711   6.374  0.0377  0.1240 -0.0199
 1298ERGO    R417447  14.964   1.572   6.585 -0.1389  0.4767  0.3706
 1298ERGO    R517448  14.869   1.480   6.411  0.2265  0.2064  0.2904
 1298ERGO    C117449  14.688   1.295   6.691 -0.0306  0.3008  0.1919
 1298ERGO    C217450  14.611   1.212   7.056 -0.0154 -0.2651 -0.3215
 1299ERGO   ROH17451   3.110   0.258   6.530  0.1447  0.0326 -0.1608
 1299ERGO    R117452   3.150   0.269   6.810  0.0116 -0.0563 -0.1379
 1299ERGO    R217453   3.136   0.505   6.953  0.0017 -0.0942 -0.0793
 1299ERGO    R317454   2.954   0.367   7.101 -0.1050 -0.0899 -0.2037
 1299ERGO    R417455   3.137   0.483   7.298 -0.1917 -0.1549 -0.0807
 1299ERGO    R517456   3.082   0.273   7.280 -0.2185 -0.1438 -0.1483
 1299ERGO    C117457   2.968   0.341   7.638 -0.4045 -0.1863 -0.1983
 1299ERGO    C217458   2.958   0.380   7.990  0.0500  0.0225  0.1541
 1300ERGO   ROH17459  14.476  15.936   7.494  0.0540  0.0340 -0.0507
 1300ERGO    R117460  14.244  16.093   7.534  0.0225 -0.0449  0.0783
 1300ERGO    R217461  14.179  16.202   7.779  0.2077  0.0637  0.0789
 1300ERGO    R317462  14.170  16.434   7.637 -0.0276 -0.0171 -0.0458
 1300ERGO    R417463  13.999  16.483   7.870  0.2792  0.0822  0.1674
 1300ERGO    R517464  13.944  16.510   7.660 -0.0141 -0.0471  0.2211
 1300ERGO    C117465  13.886  16.864   7.790  0.1001  0.0171  0.1019
 1300ERGO    C217466  13.791  17.214   7.777  0.1005  0.0635 -0.3987
 1301ERGO   ROH17467  12.320   7.897   5.923 -0.0517 -0.1771  0.1783
 1301ERGO    R117468  12.265   8.103   6.109 -0.0860 -0.1675  0.1598
 1301ERGO    R217469  12.071   8.296   6.065  0.0394 -0.0554  0.0318
 1301ERGO    R317470  11.979   8.211   6.306 -0.1832 -0.0468 -0.0494
 1301ERGO    R417471  11.893   8.489   6.289  0.1079  0.0328  0.0092
 1301ERGO    R517472  12.006   8.400   6.451 -0.0786 -0.1358  0.0357
 1301ERGO    C117473  11.703   8.523   6.646 -0.0610  0.0922 -0.0801
 1301ERGO    C217474  11.493   8.463   6.966 -0.2673 -0.0035  0.1346
 1302ERGO   ROH17475  11.700  17.010   5.858 -0.2584 -0.1999 -0.0212
 1302ERGO    R117476  11.563  16.966   6.102 -0.1673  0.0257  0.0726
 1302ERGO    R217477  11.602  16.741   6.256 -0.3724 -0.0023  0.0821
 1302ERGO    R317478  11.653  16.923   6.451 -0.0064 -0.0348  0.0255
 1302ERGO    R417479  11.655  16.665   6.589 -0.4778 -0.0146  0.0967
 1302ERGO    R517480  11.536  16.839   6.643 -0.1496  0.2322  0.0628
 1302ERGO    C117481  11.733  16.791   6.966 -0.1956 -0.0520  0.0521
 1302ERGO    C217482  12.009  16.692   7.144 -0.0119 -0.4650 -0.0271
 1303ERGO   ROH17483  12.357  13.711   6.053 -0.0394  0.1695  0.0832
 1303ERGO    R117484  12.444  13.628   6.310 -0.1307  0.0216  0.0680
 1303ERGO    R217485  12.596  13.789   6.475  0.1434 -0.2136  0.0590
 1303ERGO    R317486  12.397  13.738   6.653  0.0814  0.0805  0.0779
 1303ERGO    R417487  12.641  13.750   6.815  0.0770 -0.0700  0.0848
 1303ERGO    R517488  12.496  13.587   6.811 -0.0808  0.0715  0.1680
 1303ERGO    C117489  12.480  13.679   7.181 -0.0201  0.2897  0.1174
 1303ERGO    C217490  12.620  13.520   7.419 -0.2732  0.2097 -0.1034
 1304ERGO   ROH17491   0.730  13.173   5.907 -0.4416 -0.2421  0.1262
 1304ERGO    R117492   0.860  13.157   6.158 -0.1864 -0.1960  0.0003
 1304ERGO    R217493   0.837  13.355   6.350 -0.0690 -0.2033  0.0271
 1304ERGO    R317494   0.760  13.147   6.508  0.1603 -0.2339  0.1010
 1304ERGO    R417495   0.843  13.357   6.696 -0.2554 -0.0045  0.0309
 1304ERGO    R517496   0.915  13.151   6.691  0.0586  0.0997  0.1831
 1304ERGO    C117497   0.774  13.164   7.045 -0.1487  0.0824  0.1024
 1304ERGO    C217498   0.721  13.123   7.347 -0.2398 -0.0997 -0.3248
 1305ERGO   ROH17499  17.146   8.703   6.079 -0.1425 -0.0415  0.0660
 1305ERGO    R117500  17.137   8.473   6.244  0.0426 -0.0179  0.1111
 1305ERGO    R217501  17.299   8.444   6.466 -0.0010  0.1986  0.1760
 1305ERGO    R317502  17.062   8.401   6.592 -0.0029 -0.0230  0.0998
 1305ERGO    R417503  17.262   8.280   6.769  0.0583  0.1933  0.1799
 1305ERGO    R517504  17.084   8.183   6.689  0.1801  0.0083  0.1295
 1305ERGO    C117505  17.018   8.144   7.063  0.0910 -0.0178  0.1106
 1305ERGO    C217506  17.005   8.248   7.373  0.2149  0.2649 -0.1389
 1306ERGO   ROH17507   7.190   1.288   6.162 -0.2905  0.0251  0.0094
 1306ERGO    R117508   7.235   1.248   6.439 -0.1552  0.1478  0.0065
 1306ERGO    R217509   7.287   0.999   6.546 -0.1596  0.1874  0.0981
 1306ERGO    R317510   7.506   1.125   6.648 -0.0749  0.1834 -0.0754
 1306ERGO    R417511   7.525   0.850   6.748 -0.1222  0.2379  0.0917
 1306ERGO    R517512   7.531   1.033   6.867 -0.0125  0.3141 -0.0256
 1306ERGO    C117513   7.869   0.882   6.961 -0.0209  0.2636 -0.0749
 1306ERGO    C217514   8.240   0.654   6.967 -0.0444  0.0394 -0.1326
 1307ERGO   ROH17515   8.052   7.122   6.059 -0.0914  0.0127 -0.0633
 1307ERGO    R117516   7.916   7.167   6.302 -0.0623 -0.0965 -0.0265
 1307ERGO    R217517   7.928   6.990   6.514  0.2175 -0.0408  0.0072
 1307ERGO    R317518   8.007   7.211   6.652  0.0072  0.0829 -0.0660
 1307ERGO    R417519   7.926   7.019   6.859  0.5626 -0.0798  0.0164
 1307ERGO    R517520   7.854   7.223   6.836  0.1899 -0.1927  0.1124
 1307ERGO    C117521   7.998   7.243   7.189  0.5662  0.0137 -0.0469
 1307ERGO    C217522   7.988   7.438   7.497 -0.1304 -0.1848 -0.0629
 1308ERGO   ROH17523   4.243   0.802   6.278  0.2360  0.1784  0.0485
 1308ERGO    R117524   4.292   0.807   6.557  0.1420  0.0579  0.0680
 1308ERGO    R217525   4.088   0.799   6.743  0.0799 -0.0599 -0.0023
 1308ERGO    R317526   4.228   0.587   6.840  0.0805 -0.0829 -0.0538
 1308ERGO    R417527   4.033   0.649   7.050  0.1829 -0.0365  0.0279
 1308ERGO    R517528   4.249   0.632   7.074  0.1901 -0.0773 -0.0643
 1308ERGO    C117529   4.133   0.363   7.319  0.2434 -0.0444 -0.0028
 1308ERGO    C217530   4.102   0.326   7.670  0.0635 -0.2656 -0.2303
 1309ERGO   ROH17531  16.980  13.896   6.392 -0.3634  0.2247  0.0404
 1309ERGO    R117532  17.261  13.928   6.395 -0.3406  0.0356 -0.0329
 1309ERGO    R217533  17.395  14.087   6.212 -0.3026  0.0844  0.0425
 1309ERGO    R317534  17.496  14.203   6.436 -0.1398 -0.1497  0.0961
 1309ERGO    R417535  17.683  14.277   6.224 -0.2959  0.0763  0.0248
 1309ERGO    R517536  17.733  14.181   6.413 -0.1527 -0.1261 -0.1058
 1309ERGO    C117537  17.946  14.497   6.441 -0.1392 -0.1481  0.0646
 1309ERGO    C217538  18.071  14.632   6.302 -0.0725  0.1621 -0.2341
 1310ERGO   ROH17539  14.661  16.924   5.998 -0.0861  0.0491 -0.1367
 1310ERGO    R117540  14.659  16.836   6.267 -0.0449  0.0542 -0.1346
 1310ERGO    R217541  14.696  17.007   6.480  0.0423  0.0501 -0.1452
 1310ERGO    R317542  14.461  16.901   6.565  0.0372  0.1043 -0.0913
 1310ERGO    R417543  14.522  17.113   6.759  0.0148  0.2379 -0.2320
 1310ERGO    R517544  14.477  16.904   6.804  0.0153  0.2687 -0.0917
 1310ERGO    C117545  14.199  17.075   7.001 -0.0058  0.3982 -0.2319
 1310ERGO    C217546  14.028  17.103   7.203 -0.1754 -0.1847 -0.2171
 1311ERGO   ROH17547   2.640   4.180   6.282  0.2090  0.1496  0.1012
 1311ERGO    R117548   2.721   4.344   6.497  0.2430  0.0962  0.1292
 1311ERGO    R217549   2.578   4.360   6.733  0.1155  0.2672  0.0428
 1311ERGO    R317550   2.818   4.296   6.845 -0.0146  0.0411  0.1944
 1311ERGO    R417551   2.659   4.407   7.066 -0.0180  0.2728  0.0749
 1311ERGO    R517552   2.858   4.472   7.003  0.0865  0.0417  0.1669
 1311ERGO    C117553   2.930   4.374   7.365 -0.2178  0.0638  0.2360
 1311ERGO    C217554   2.701   4.442   7.813 -0.2825 -0.1395 -0.1572
 1312ERGO   ROH17555   2.555  15.353   5.719  0.0718 -0.0774  0.0846
 1312ERGO    R117556   2.587  15.343   6.000  0.1853 -0.0960  0.0713
 1312ERGO    R217557   2.384  15.410   6.176  0.2960  0.0151  0.1571
 1312ERGO    R317558   2.435  15.163   6.278  0.2029 -0.0137  0.1353
 1312ERGO    R417559   2.280  15.299   6.486  0.1426 -0.0167  0.0953
 1312ERGO    R517560   2.473  15.202   6.511  0.1138 -0.0612  0.1592
 1312ERGO    C117561   2.267  15.003   6.762 -0.0340 -0.0623  0.0388
 1312ERGO    C217562   2.107  14.816   7.007 -0.1903 -0.2588 -0.0213
 1313ERGO   ROH17563   8.981   6.854   5.887  0.1180 -0.0953 -0.0842
 1313ERGO    R117564   8.954   6.910   6.163 -0.1554  0.0215 -0.1324
 1313ERGO    R217565   8.808   6.749   6.334  0.0147 -0.1346 -0.1369
 1313ERGO    R317566   9.040   6.746   6.476 -0.0636  0.3519  0.0216
 1313ERGO    R417567   8.830   6.686   6.673 -0.0779 -0.3206 -0.1642
 1313ERGO    R517568   8.981   6.843   6.687 -0.4712  0.0647  0.0550
 1313ERGO    C117569   9.060   6.646   7.004 -0.2052  0.0279 -0.0312
 1313ERGO    C217570   9.102   6.754   7.436  0.1257  0.0598  0.1918
 1314ERGO   ROH17571  17.405   3.168   6.305 -0.0112  0.1172  0.0307
 1314ERGO    R117572  17.469   3.204   6.578  0.0577  0.0271  0.0265
 1314ERGO    R217573  17.355   3.053   6.780 -0.0513  0.1030  0.0218
 1314ERGO    R317574  17.615   3.003   6.845 -0.0846 -0.1360 -0.0170
 1314ERGO    R417575  17.469   2.981   7.098 -0.0355  0.2625  0.0532
 1314ERGO    R517576  17.643   3.106   7.059  0.1001  0.0303 -0.1174
 1314ERGO    C117577  17.778   2.893   7.345 -0.0571  0.1311  0.0352
 1314ERGO    C217578  18.004   2.647   7.399  0.1188 -0.2212  0.3925
 1315ERGO   ROH17579  13.862   7.604   6.167 -0.1956 -0.1332 -0.0372
 1315ERGO    R117580  13.823   7.608   6.448  0.0369  0.0506 -0.0035
 1315ERGO    R217581  13.783   7.378   6.596 -0.2037  0.1679  0.1256
 1315ERGO    R317582  13.992   7.475   6.741  0.0724 -0.0898 -0.0882
 1315ERGO    R417583  13.866   7.276   6.915 -0.2013  0.3047  0.1692
 1315ERGO    R517584  13.910   7.484   6.965  0.2230  0.2734 -0.0435
 1315ERGO    C117585  14.111   7.307   7.237  0.0593  0.1423 -0.0062
 1315ERGO    C217586  14.179   7.094   7.510  0.0868  0.0922 -0.2793
 1316ERGO   ROH17587   0.720   4.277   5.698 -0.0082  0.0678  0.0195
 1316ERGO    R117588   0.725   4.239   5.978 -0.1208  0.0252  0.0171
 1316ERGO    R217589   0.956   4.175   6.116 -0.1856 -0.0665  0.0945
 1316ERGO    R317590   0.890   4.393   6.263 -0.1740 -0.0656  0.0961
 1316ERGO    R417591   1.051   4.227   6.444 -0.2146 -0.0844  0.1048
 1316ERGO    R517592   0.852   4.306   6.483 -0.2052 -0.0642  0.0878
 1316ERGO    C117593   1.044   4.462   6.774 -0.2208 -0.0939  0.1124
 1316ERGO    C217594   1.134   4.560   6.973  0.3354 -0.0713  0.0381
 1317ERGO   ROH17595   6.322   9.162   5.701  0.0127 -0.2384  0.0304
 1317ERGO    R117596   6.124   9.321   5.828  0.1529 -0.1966  0.1992
 1317ERGO    R217597   5.879   9.375   5.712  0.2038  0.1562  0.2465
 1317ERGO    R317598   5.783   9.274   5.946  0.1048 -0.0177  0.1342
 1317ERGO    R417599   5.564   9.436   5.839  0.1598  0.0823  0.1756
 1317ERGO    R517600   5.652   9.452   6.037  0.0846 -0.0780  0.2228
 1317ERGO    C117601   5.290   9.378   6.132  0.0414 -0.1238  0.0287
 1317ERGO    C217602   5.110   9.147   6.007  0.2824 -0.4430 -0.0181
 1318ERGO   ROH17603  11.698  10.389   6.096  0.0172  0.0324  0.0569
 1318ERGO    R117604  11.602  10.510   6.332 -0.2207  0.0055 -0.0210
 1318ERGO    R217605  11.358  10.445   6.444 -0.1203 -0.3862  0.0123
 1318ERGO    R317606  11.508  10.400   6.666 -0.0261  0.0264  0.0384
 1318ERGO    R417607  11.233  10.416   6.765 -0.0360 -0.3975  0.0428
 1318ERGO    R517608  11.403  10.531   6.837 -0.2398 -0.0505 -0.0429
 1318ERGO    C117609  11.301  10.357   7.160  0.1014 -0.0167  0.0852
 1318ERGO    C217610  11.168  10.319   7.545 -0.1008 -0.2777 -0.1499
 1319ERGO   ROH17611   7.972   8.289   5.795 -0.0182 -0.0694 -0.0061
 1319ERGO    R117612   7.934   8.311   6.075  0.0263 -0.0901  0.0018
 1319ERGO    R217613   7.731   8.180   6.208  0.0308 -0.0786  0.0210
 1319ERGO    R317614   7.935   8.085   6.360  0.0430 -0.1159 -0.0188
 1319ERGO    R417615   7.738   8.186   6.553  0.1932  0.1162  0.0158
 1319ERGO    R517616   7.950   8.239   6.543  0.2222 -0.0189 -0.1132
 1319ERGO    C117617   7.934   8.100   6.897  0.2991  0.1944 -0.0245
 1319ERGO    C217618   7.974   7.987   7.213 -0.0977  0.0217 -0.1464
 1320ERGO   ROH17619   4.325   1.554   6.269  0.0766 -0.1853  0.1345
 1320ERGO    R117620   4.348   1.745   6.477  0.0000 -0.1058  0.0695
 1320ERGO    R217621   4.155   1.777   6.672 -0.0117 -0.1171  0.0532
 1320ERGO    R317622   4.365   1.739   6.841  0.0010  0.0268  0.0735
 1320ERGO    R417623   4.197   1.939   6.974 -0.2913 -0.2697  0.1784
 1320ERGO    R517624   4.410   1.957   6.930 -0.2950  0.0302  0.2364
 1320ERGO    C117625   4.418   1.997   7.309 -0.4422 -0.2235  0.2704
 1320ERGO    C217626   4.611   2.149   7.545  0.1213 -0.4811 -0.0175
 1321ERGO   ROH17627  12.141   5.620   5.988 -0.0950 -0.1965  0.1434
 1321ERGO    R117628  12.250   5.689   6.240  0.0796 -0.0481  0.0311
 1321ERGO    R217629  12.356   5.938   6.294 -0.0481  0.0460 -0.1339
 1321ERGO    R317630  12.180   5.933   6.501  0.1328 -0.0236  0.0217
 1321ERGO    R417631  12.325   6.186   6.532 -0.1540  0.1853 -0.2906
 1321ERGO    R517632  12.300   6.031   6.684  0.1698  0.2629 -0.1515
 1321ERGO    C117633  12.142   6.327   6.865 -0.0458  0.2010 -0.2357
 1321ERGO    C217634  12.220   6.642   7.026  0.1348  0.0813 -0.0634
 1322ERGO   ROH17635   4.784   5.711   5.873 -0.0660  0.1805  0.0799
 1322ERGO    R117636   4.899   5.709   6.131 -0.0700  0.0202  0.0801
 1322ERGO    R217637   4.999   5.937   6.251  0.1029 -0.0936  0.1403
 1322ERGO    R317638   4.831   5.866   6.452  0.0502 -0.0162  0.1264
 1322ERGO    R417639   4.933   6.130   6.530  0.2807 -0.1119  0.1973
 1322ERGO    R517640   4.938   5.948   6.651  0.1357 -0.1591  0.1471
 1322ERGO    C117641   4.737   6.175   6.883  0.3347 -0.0499  0.2175
 1322ERGO    C217642   4.702   6.326   7.199  0.0694 -0.1230  0.0515
 1323ERGO   ROH17643   5.718  18.509   6.013  0.0262 -0.0123 -0.0452
 1323ERGO    R117644   5.916  18.478   6.213  0.1260  0.3361 -0.0826
 1323ERGO    R217645   5.940  18.653   6.426 -0.3676  0.2009  0.1018
 1323ERGO    R317646   5.922  18.424   6.573  0.2707 -0.0253 -0.1353
 1323ERGO    R417647   6.006  18.629   6.765 -0.2734  0.0200  0.0713
 1323ERGO    R517648   6.104  18.438   6.727  0.2576  0.3126 -0.1433
 1323ERGO    C117649   6.027  18.401   7.099  0.3807 -0.2978 -0.1691
 1323ERGO    C217650   6.096  18.347   7.487 -0.2922 -0.1748 -0.0985
 1324ERGO   ROH17651  15.915   3.635   5.693 -0.0844  0.0585 -0.0891
 1324ERGO    R117652  15.832   3.742   5.941 -0.1047  0.1184 -0.1217
 1324ERGO    R217653  15.578   3.843   5.982 -0.1577 -0.0112 -0.1231
 1324ERGO    R317654  15.577   3.668   6.190 -0.0192  0.0768 -0.0467
 1324ERGO    R417655  15.384   3.874   6.266  0.0996  0.1528  0.0394
 1324ERGO    R517656  15.554   3.806   6.384  0.1860  0.1622 -0.0816
 1324ERGO    C117657  15.270   3.728   6.626  0.3795  0.3308  0.2057
 1324ERGO    C217658  15.170   3.726   6.937  0.0195  0.0047  0.1032
 1325ERGO   ROH17659   1.648   4.164   7.790  0.2225  0.4548  0.1315
 1325ERGO    R117660   1.552   4.155   7.524  0.0721  0.5357  0.1812
 1325ERGO    R217661   1.624   4.343   7.334  0.2621  0.3889  0.0986
 1325ERGO    R317662   1.697   4.123   7.192 -0.1391  0.2370  0.1154
 1325ERGO    R417663   1.641   4.327   6.989  0.1546  0.2944  0.0976
 1325ERGO    R517664   1.555   4.127   6.999 -0.1791  0.4378  0.1509
 1325ERGO    C117665   1.719   4.112   6.655 -0.2846  0.0967  0.1127
 1325ERGO    C217666   1.818   4.162   6.342  0.2172  0.1995 -0.1868
 1326ERGO   ROH17667   5.848   3.928   6.237 -0.0507  0.0833 -0.0213
 1326ERGO    R117668   5.779   4.070   6.472 -0.0512 -0.0587  0.0647
 1326ERGO    R217669   5.545   4.021   6.612 -0.0358 -0.1630  0.0492
 1326ERGO    R317670   5.716   3.989   6.821 -0.0221 -0.2646  0.0240
 1326ERGO    R417671   5.474   4.107   6.939  0.0837 -0.0674  0.0517
 1326ERGO    R517672   5.678   4.181   6.958  0.1457 -0.2166  0.0067
 1326ERGO    C117673   5.593   4.126   7.326  0.1663 -0.1070  0.0295
 1326ERGO    C217674   5.580   4.228   7.595 -0.1266 -0.0968 -0.1691
 1327ERGO   ROH17675   8.638   5.539   5.463  0.0995  0.0813  0.0746
 1327ERGO    R117676   8.682   5.377   5.691  0.4072  0.0737  0.0152
 1327ERGO    R217677   8.904   5.406   5.853  0.3402  0.4716  0.0598
 1327ERGO    R317678   8.718   5.429   6.050  0.2511  0.0102  0.0382
 1327ERGO    R417679   8.961   5.337   6.187  0.4096  0.4622  0.0453
 1327ERGO    R517680   8.763   5.245   6.196  0.6001  0.0491 -0.0234
 1327ERGO    C117681   8.818   5.319   6.566  0.3662  0.0236  0.0166
 1327ERGO    C217682   9.009   5.305   6.745  0.0013 -0.1592 -0.1453
 1328ERGO   ROH17683   5.585  17.367   5.859 -0.0275 -0.0234 -0.1059
 1328ERGO    R117684   5.674  17.427   6.121  0.0032 -0.2629 -0.0594
 1328ERGO    R217685   5.604  17.660   6.252  0.3779 -0.1741 -0.0128
 1328ERGO    R317686   5.520  17.488   6.445  0.0102 -0.0881 -0.0869
 1328ERGO    R417687   5.539  17.748   6.580  0.5066 -0.1586  0.0096
 1328ERGO    R517688   5.633  17.562   6.643  0.1366 -0.3776 -0.0435
 1328ERGO    C117689   5.423  17.637   6.952  0.2364 -0.0689 -0.0468
 1328ERGO    C217690   5.338  17.577   7.249 -0.0931 -0.1336  0.1735
 1329ERGO   ROH17691  18.961  12.934   5.719 -0.0998 -0.2428 -0.0556
 1329ERGO    R117692  18.941  12.920   6.001 -0.0706 -0.0480 -0.0420
 1329ERGO    R217693  18.915  13.144   6.160 -0.1511  0.0586 -0.2005
 1329ERGO    R317694  18.696  13.014   6.254 -0.0896  0.0329 -0.0908
 1329ERGO    R417695  18.796  13.166   6.484  0.0002  0.0483 -0.1430
 1329ERGO    R517696  18.755  12.952   6.478  0.0247  0.0447 -0.1181
 1329ERGO    C117697  18.520  13.057   6.760  0.1462  0.0182 -0.0065
 1329ERGO    C217698  18.487  13.142   7.102  0.0546 -0.4405 -0.2044
 1330ERGO   ROH17699  17.891  11.572   5.442  0.0776 -0.0519 -0.0164
 1330ERGO    R117700  18.001  11.497   5.692  0.1295  0.1461  0.0230
 1330ERGO    R217701  17.926  11.618   5.929 -0.1411  0.0504 -0.0032
 1330ERGO    R317702  17.875  11.362   6.006  0.2503 -0.0343 -0.0065
 1330ERGO    R417703  17.881  11.516   6.256 -0.5485  0.0832 -0.0450
 1330ERGO    R517704  17.997  11.337   6.211 -0.0777  0.3035  0.2392
 1330ERGO    C117705  17.806  11.217   6.519 -0.4184  0.0226 -0.0725
 1330ERGO    C217706  17.881  11.075   6.806 -0.0116 -0.0128 -0.1599
 1331ERGO   ROH17707   9.509  15.042   5.962 -0.0992  0.1945 -0.0188
 1331ERGO    R117708   9.548  15.231   6.169 -0.0761  0.0846  0.0783
 1331ERGO    R217709   9.350  15.294   6.352 -0.1552  0.2010 -0.0451
 1331ERGO    R317710   9.542  15.229   6.533 -0.3468 -0.0438  0.0759
 1331ERGO    R417711   9.394  15.451   6.657  0.0739  0.3960 -0.1747
 1331ERGO    R517712   9.610  15.440   6.625  0.0712 -0.0922 -0.0983
 1331ERGO    C117713   9.599  15.481   7.005  0.0273  0.2798 -0.1366
 1331ERGO    C217714   9.614  15.392   7.336 -0.0824  0.1193 -0.0229
 1332ERGO   ROH17715  10.228   5.025   5.335  0.0296  0.2715  0.0192
 1332ERGO    R117716  10.347   4.865   5.536 -0.1023  0.1577  0.0089
 1332ERGO    R217717  10.574   4.943   5.673  0.0372 -0.0915 -0.0678
 1332ERGO    R317718  10.419   4.897   5.891  0.0393  0.1308 -0.0181
 1332ERGO    R417719  10.692   4.922   5.997  0.0678 -0.0197 -0.0744
 1332ERGO    R517720  10.554   4.756   6.031 -0.0469  0.1014  0.0300
 1332ERGO    C117721  10.614   4.867   6.391  0.0875  0.2307 -0.0317
 1332ERGO    C217722  10.581   4.876   6.791 -0.0771 -0.0605  0.2204
 1333ERGO   ROH17723  13.223  13.185   5.831  0.2306 -0.1504  0.2288
 1333ERGO    R117724  13.053  13.108   6.044  0.2765  0.1217  0.3718
 1333ERGO    R217725  12.929  12.860   6.053 -0.3801  0.4134  0.3034
 1333ERGO    R317726  13.049  12.847   6.297 -0.0894 -0.0967  0.1460
 1333ERGO    R417727  12.792  12.713   6.334 -0.2597  0.2960  0.2996
 1333ERGO    R517728  12.871  12.877   6.453  0.1657  0.0110  0.4131
 1333ERGO    C117729  12.824  12.615   6.727  0.0833 -0.2513  0.1497
 1333ERGO    C217730  12.926  12.527   7.026  0.0785 -0.2968 -0.3501
 1334ERGO   ROH17731  11.213  11.741   6.114  0.1339 -0.0358  0.1677
 1334ERGO    R117732  11.342  11.909   6.301  0.0741  0.0383  0.1432
 1334ERGO    R217733  11.399  12.175   6.249 -0.0629  0.0654  0.1226
 1334ERGO    R317734  11.262  12.216   6.480 -0.0559  0.0088  0.1363
 1334ERGO    R417735  11.504  12.380   6.507 -0.0370 -0.0280  0.1863
 1334ERGO    R517736  11.432  12.231   6.648 -0.0533 -0.0638  0.1395
 1334ERGO    C117737  11.436  12.538   6.874 -0.0152 -0.1356  0.2362
 1334ERGO    C217738  11.393  12.702   7.044 -0.0090 -0.0450 -0.0765
 1335ERGO   ROH17739  11.936   6.086   5.985 -0.0432  0.1610 -0.0585
 1335ERGO    R117740  11.909   6.305   6.162 -0.2204  0.1415 -0.0628
 1335ERGO    R217741  11.687   6.339   6.322 -0.1354 -0.1752  0.1147
 1335ERGO    R317742  11.871   6.351   6.522  0.0129  0.1316 -0.0316
 1335ERGO    R417743  11.632   6.488   6.629 -0.2053 -0.3496  0.1887
 1335ERGO    R517744  11.836   6.568   6.620 -0.3472  0.0591  0.0396
 1335ERGO    C117745  11.773   6.586   6.995 -0.1068 -0.1631  0.0944
 1335ERGO    C217746  11.691   6.755   7.175 -0.0340 -0.1280  0.3100
 1336ERGO   ROH17747   5.927   1.289   6.200  0.1625 -0.0611 -0.0012
 1336ERGO    R117748   5.956   1.366   6.471  0.0697 -0.1396  0.0320
 1336ERGO    R217749   6.019   1.185   6.671  0.1431 -0.1751 -0.0184
 1336ERGO    R317750   6.221   1.361   6.720  0.0305 -0.0714  0.0738
 1336ERGO    R417751   6.207   1.195   6.961  0.2631 -0.3274 -0.0902
 1336ERGO    R517752   6.199   1.412   6.953  0.0932 -0.3251  0.1356
 1336ERGO    C117753   6.505   1.365   7.177  0.2272 -0.3186 -0.0454
 1336ERGO    C217754   6.725   1.295   7.303 -0.1025 -0.0423 -0.0544
 1337ERGO   ROH17755  13.955  17.863   5.811 -0.0669 -0.2318 -0.0694
 1337ERGO    R117756  13.780  17.854   6.033  0.0326 -0.2044  0.0110
 1337ERGO    R217757  13.541  17.994   6.040  0.1283 -0.0440  0.1827
 1337ERGO    R317758  13.437  17.749   6.095 -0.0111  0.0024  0.1291
 1337ERGO    R417759  13.276  17.936   6.253 -0.0032  0.0727  0.0530
 1337ERGO    R517760  13.380  17.760   6.328 -0.1198  0.0238  0.1018
 1337ERGO    C117761  13.023  17.672   6.430 -0.2107  0.1841 -0.0727
 1337ERGO    C217762  12.739  17.571   6.512 -0.2690  0.1806  0.3018
 1338ERGO   ROH17763   3.519   6.247   5.386  0.3542 -0.1538 -0.0237
 1338ERGO    R117764   3.343   6.205   5.603  0.2443 -0.0720 -0.0955
 1338ERGO    R217765   3.124   6.036   5.588  0.2020 -0.0119 -0.1681
 1338ERGO    R317766   3.238   5.922   5.807  0.0724 -0.0129 -0.1004
 1338ERGO    R417767   2.951   5.888   5.848  0.0530 -0.2030 -0.3718
 1338ERGO    R517768   3.091   5.979   5.987 -0.1274 -0.1610 -0.2132
 1338ERGO    C117769   2.957   5.696   6.205 -0.1555 -0.3151 -0.4267
 1338ERGO    C217770   2.879   5.617   6.516 -0.2961  0.2803 -0.0296
 1339ERGO   ROH17771  16.493   6.954   5.504 -0.0199 -0.0139 -0.0925
 1339ERGO    R117772  16.643   6.952   5.744 -0.1512 -0.0890 -0.0096
 1339ERGO    R217773  16.721   7.184   5.872  0.1355 -0.1169 -0.1227
 1339ERGO    R317774  16.597   7.069   6.085 -0.1637  0.2085 -0.1103
 1339ERGO    R417775  16.769   7.275   6.202 -0.0103  0.1046 -0.1601
 1339ERGO    R517776  16.765   7.064   6.256 -0.2985  0.1535  0.0207
 1339ERGO    C117777  16.682   7.220   6.594 -0.3760  0.5391 -0.1702
 1339ERGO    C217778  16.598   7.433   6.935  0.0791  0.0756  0.1391
 1340ERGO   ROH17779  15.368  15.852   5.505 -0.0501 -0.0128 -0.2511
 1340ERGO    R117780  15.267  15.783   5.761  0.1406 -0.0411 -0.1819
 1340ERGO    R217781  15.418  15.803   5.992  0.2185  0.2306 -0.2521
 1340ERGO    R317782  15.209  15.954   6.077  0.0671  0.0114 -0.2241
 1340ERGO    R417783  15.376  15.918   6.315  0.1250  0.1789 -0.2449
 1340ERGO    R517784  15.163  15.874   6.297  0.1698 -0.0419 -0.2237
 1340ERGO    C117785  15.154  16.127   6.583 -0.0716 -0.0570 -0.2143
 1340ERGO    C217786  15.295  16.398   6.761 -0.1356 -0.4533  0.0137
 1341ERGO   ROH17787   8.982  15.691   6.219 -0.0487  0.0673 -0.0269
 1341ERGO    R117788   8.904  15.757   6.483 -0.0035  0.0743 -0.0157
 1341ERGO    R217789   8.823  15.566   6.666 -0.1307  0.0981 -0.0495
 1341ERGO    R317790   9.018  15.677   6.820 -0.0558 -0.0594 -0.0284
 1341ERGO    R417791   8.878  15.492   7.000 -0.3645  0.2030  0.0146
 1341ERGO    R517792   8.917  15.704   7.035 -0.1180  0.1801 -0.0834
 1341ERGO    C117793   9.093  15.553   7.338 -0.4304  0.1163  0.0715
 1341ERGO    C217794   9.161  15.417   7.537 -0.0006 -0.0369 -0.3111
 1342ERGO   ROH17795  12.721   3.549   5.746  0.1039  0.0776 -0.0341
 1342ERGO    R117796  12.754   3.598   6.023  0.0124  0.1021 -0.0270
 1342ERGO    R217797  12.553   3.703   6.181 -0.1038 -0.0614 -0.0625
 1342ERGO    R317798  12.601   3.483   6.333  0.0465 -0.0256 -0.0573
 1342ERGO    R417799  12.539   3.695   6.526 -0.1078 -0.0651 -0.0629
 1342ERGO    R517800  12.716   3.567   6.525 -0.0182  0.0587 -0.0554
 1342ERGO    C117801  12.577   3.483   6.869  0.0311 -0.0337 -0.0583
 1342ERGO    C217802  12.564   3.563   7.258  0.1925  0.3135  0.2583
 1343ERGO   ROH17803   7.871   3.062   5.806  0.1607  0.1631 -0.0682
 1343ERGO    R117804   8.080   3.173   5.960  0.0752  0.2233  0.0059
 1343ERGO    R217805   8.078   3.436   6.047 -0.1032  0.1820  0.1375
 1343ERGO    R317806   8.115   3.321   6.291 -0.0528  0.0820  0.0833
 1343ERGO    R417807   8.099   3.609   6.346 -0.1228  0.0508  0.2156
 1343ERGO    R517808   8.258   3.474   6.407 -0.0837  0.0654  0.1408
 1343ERGO    C117809   8.145   3.602   6.748 -0.0870 -0.1194  0.2102
 1343ERGO    C217810   8.146   3.730   7.065  0.2807  0.0873 -0.0768
 1344ERGO   ROH17811   2.700  13.319   5.662 -0.1855 -0.0507 -0.2016
 1344ERGO    R117812   2.686  13.148   5.887 -0.0836 -0.0602 -0.2019
 1344ERGO    R217813   2.544  13.212   6.115  0.0461 -0.0551 -0.1211
 1344ERGO    R317814   2.425  12.972   6.070 -0.0056 -0.0394 -0.0694
 1344ERGO    R417815   2.312  13.064   6.324  0.2372 -0.0989  0.0628
 1344ERGO    R517816   2.408  12.872   6.287  0.1963 -0.0932 -0.0768
 1344ERGO    C117817   2.065  12.752   6.404  0.2999 -0.1097  0.2185
 1344ERGO    C217818   1.708  12.824   6.443 -0.4465 -0.0047  0.1544
 1345W        W17819  11.573  18.557   4.965 -0.2083 -0.3424 -0.0405
 1346W        W17820   7.641   4.211  12.342  0.3280 -0.0345 -0.0418
 1347W        W17821   4.492  17.829  14.853 -0.0404  0.1779  0.1034
 1348W        W17822  19.064  18.423  13.529  0.0360  0.0068 -0.4033
 1349W        W17823  12.740   9.804   0.908  0.2647 -0.3351 -0.0152
 1350W        W17824  10.448  12.826  12.101 -0.0586 -0.1813  0.2683
 1351W        W17825  18.615  15.723   4.500  0.4975 -0.0492 -0.3621
 1352W        W17826   4.836  17.832   4.277  0.0382  0.1099  0.0329
 1353W        W17827   1.773   1.679   3.190  0.0150 -0.0776 -0.0662
 1354W        W17828   0.368  11.829   4.096 -0.2239  0.0109  0.3933
 1355W        W17829   0.984  18.048  14.251 -0.0744 -0.1610  0.1873
 1356W        W17830  11.474  14.827  12.175 -0.0327  0.1907  0.2506
 1357W        W17831  11.387   3.540   1.017 -0.0594 -0.0883  0.3671
 1358W        W17832  13.196   5.845   5.138 -0.1414  0.0750  0.1885
 1359W        W17833  16.355  15.408   9.717 -0.3716  0.0277  0.1641
 1360W        W17834   9.588   3.252   4.348 -0.0579  0.0586  0.0709
 1361W        W17835  10.686   2.376   2.038 -0.0819 -0.0793  0.2368
 1362W        W17836  11.555  15.138  12.561  0.0689  0.0180 -0.3428
 1363W        W17837   8.194  18.740  14.290 -0.2488  0.1405 -0.0793
 1364W        W17838  16.163  18.730   2.829 -0.1327 -0.0585 -0.1717
 1365W        W17839   0.662  12.175   0.420  0.1057 -0.2987 -0.0213
 1366W        W17840   2.540  12.902   3.449 -0.0772 -0.1426  0.1736
 1367W        W17841   1.912  14.089  11.778  0.0505 -0.0522  0.0460
 1368W        W17842   6.546  13.870   4.128 -0.1755  0.0516 -0.1198
 1369W        W17843  15.450   1.399  15.133  0.1593  0.1358 -0.0473
 1370W        W17844   4.116  16.373  10.133  0.2357  0.0134 -0.0459
 1371W        W17845   6.584  10.627   1.222 -0.0902  0.0200 -0.1893
 1372W        W17846  11.677   6.960   3.913  0.1315 -0.0348  0.3724
 1373W        W17847  18.461  11.418  11.609 -0.1580 -0.0255  0.0103
 1374W        W17848  16.354  15.166   2.015  0.1167 -0.1977 -0.5997
 1375W        W17849   3.125   4.509   0.104  0.0444 -0.1575  0.1851
 1376W        W17850   3.327  10.150   1.462  0.1922  0.1204 -0.0213
 1377W        W17851  11.451  13.162   4.605 -0.1372 -0.0510 -0.0396
 1378W        W17852  13.793  14.428   3.779  0.0869  0.0723 -0.4312
 1379W        W17853  17.940   7.752   0.458 -0.1010  0.2757  0.0129
 1380W        W17854  17.114   7.994   2.495 -0.1683 -0.1228  0.2213
 1381W        W17855   4.729  17.860   0.212 -0.0105  0.0293 -0.0866
 1382W        W17856   1.673  16.610   4.576  0.1343 -0.0123  0.4230
 1383W        W17857  10.526  18.493   2.747 -0.1764 -0.1818 -0.1753
 1384W        W17858   4.303  16.064  10.616  0.1696 -0.0616 -0.1350
 1385W        W17859  13.904   8.124   5.355  0.3608  0.1579  0.2358
 1386W        W17860   0.619   8.596   0.350 -0.1286  0.0213 -0.3084
 1387W        W17861   1.591   1.229   1.033 -0.1825 -0.1666 -0.0050
 1388W        W17862  11.131   9.775  15.030  0.0530 -0.2597 -0.1976
 1389W        W17863  18.152   7.924  13.369 -0.1219 -0.1400  0.0343
 1390W        W17864  17.108   6.048   4.274 -0.0636 -0.0548  0.0627
 1391W        W17865  14.843   2.573   0.260 -0.2380 -0.4935 -0.5392
 1392W        W17866   0.369   8.690   2.123 -0.0555  0.1195  0.2939
 1393W        W17867   3.857   7.904   0.379  0.1562 -0.0416  0.3148
 1394W        W17868  10.832  12.496  12.684 -0.2353  0.0834  0.0885
 1395W        W17869  16.077  13.090  10.683  0.0838  0.0304  0.1004
 1396W        W17870  18.158   7.872  12.047 -0.2212 -0.1507 -0.3408
 1397W        W17871   5.015   3.548  11.414 -0.0622 -0.3150 -0.1424
 1398W        W17872  19.138  15.373  11.147  0.0542 -0.1057 -0.0327
 1399W        W17873  10.394  12.753  13.516 -0.1214  0.1045  0.1860
 1400W        W17874   9.011  12.499   1.621  0.0981  0.2424 -0.0832
 1401W        W17875   4.820   1.396   2.798  0.2761  0.1656  0.2143
 1402W        W17876  10.934  10.436  12.420 -0.0142  0.4345 -0.1231
 1403W        W17877  16.154  15.962  11.952  0.2256 -0.0651 -0.0419
 1404W        W17878  13.083  13.301   4.282 -0.0553 -0.0435  0.5084
 1405W        W17879  13.453  10.426   3.180  0.1236 -0.0367 -0.1135
 1406W        W17880   3.096   6.116  13.485  0.2867  0.2728 -0.1718
 1407W        W17881  10.520   2.313  12.299 -0.0175 -0.0653  0.2165
 1408W        W17882  13.654  16.313   1.666  0.1023  0.0306 -0.1147
 1409W        W17883   1.702  11.145   2.325  0.3185 -0.0289 -0.0656
 1410W        W17884  15.130  15.631  14.820  0.0194  0.2023 -0.1384
 1411W        W17885   3.563   0.944   1.821 -0.0329  0.2024 -0.0958
 1412W        W17886  17.850   0.494   3.396 -0.0045 -0.1293  0.0040
 1413W        W17887  11.298   3.576  13.474  0.5295  0.2369  0.3515
 1414W        W17888  10.066   6.544  11.921 -0.1099 -0.1835  0.2656
 1415W        W17889   9.150   3.785  13.065 -0.1266  0.0115  0.2770
 1416W        W17890   7.662   4.457   3.844  0.3212  0.2579 -0.2242
 1417W        W17891  17.413  19.052  11.901  0.1004  0.0239  0.4513
 1418W        W17892  15.741  17.495   0.648 -0.1158 -0.3192 -0.2627
 1419W        W17893  10.778  14.100  15.078  0.0669 -0.2661 -0.3337
 1420W        W17894   3.107   5.645   3.694  0.0098 -0.2665  0.0831
 1421W        W17895   5.147  14.752  10.507 -0.0468  0.0835  0.1939
 1422W        W17896   9.133   8.509  14.532  0.0370 -0.1459 -0.4386
 1423W        W17897  16.847   3.024   0.700 -0.1493 -0.2114  0.0571
 1424W        W17898  13.373   5.586   1.662  0.1223 -0.0201 -0.0255
 1425W        W17899   3.433   6.811  10.547  0.1367 -0.1753 -0.1768
 1426W        W17900   6.348   6.396   4.654 -0.3128  0.0226 -0.1370
 1427W        W17901   5.779   5.079  12.607  0.1451 -0.0136  0.3238
 1428W        W17902   9.591   6.959   0.896  0.2346  0.0988  0.2343
 1429W        W17903  12.585  18.201   1.867  0.0120 -0.3436  0.0073
 1430W        W17904  15.650   7.815   1.878 -0.1432 -0.1535 -0.3394
 1431W        W17905  17.464  15.129   3.250 -0.0506 -0.1218 -0.0630
 1432W        W17906   9.384   5.282  12.926  0.0822 -0.1295  0.0464
 1433W        W17907   7.829  10.033   9.650 -0.4206  0.2150  0.1972
 1434W        W17908   4.038  16.990   1.500 -0.0677 -0.1321 -0.2712
 1435W        W17909  16.332  16.508   1.638 -0.0889  0.2253  0.1835
 1436W        W17910  18.733  19.048   0.534  0.0711  0.3440 -0.0365
 1437W        W17911  12.527   8.139   1.500 -0.0855  0.1672 -0.0610
 1438W        W17912   1.960  16.767   3.444 -0.0859 -0.1169  0.0598
 1439W        W17913  18.316  13.610  13.480 -0.0530 -0.1376  0.2020
 1440W        W17914  19.005  11.585  12.153  0.2144  0.1073 -0.0449
 1441W        W17915   4.118  18.543   3.861 -0.0895 -0.1046 -0.2607
 1442W        W17916   6.953   0.193   0.601 -0.1609 -0.4863  0.2628
 1443W        W17917   3.524   5.980  13.402 -0.1167 -0.0367  0.0665
 1444W        W17918   1.122   2.771   4.039  0.0449  0.0388 -0.4159
 1445W        W17919   4.212  17.320   5.150  0.1749  0.0532 -0.1506
 1446W        W17920  14.730  16.282   2.112  0.0387  0.2568 -0.3207
 1447W        W17921   4.008   2.612   1.541  0.0427  0.0668 -0.3359
 1448W        W17922  12.499   2.645  10.108 -0.2514 -0.2579 -0.1225
 1449W        W17923   6.873   8.916  11.058  0.0163 -0.0340  0.0145
 1450W        W17924   4.051   3.290  11.398  0.3383  0.2462  0.2114
 1451W        W17925  13.470  12.779   1.612 -0.1303 -0.0122 -0.2459
 1452W        W17926   7.727  11.906   3.675  0.0302  0.0259  0.1856
 1453W        W17927   7.765  11.932   2.555  0.2415 -0.1212  0.0361
 1454W        W17928  15.138   7.136  14.081 -0.0365 -0.0640  0.0893
 1455W        W17929   1.650   4.871  10.853 -0.1236  0.1897 -0.1917
 1456W        W17930  11.475  11.350  13.448  0.1710  0.3366 -0.2077
 1457W        W17931   1.936   4.694  14.914  0.0973  0.1868 -0.3547
 1458W        W17932  16.732  15.724   0.419  0.1817 -0.0876  0.0810
 1459W        W17933   8.575   7.126   3.691 -0.0926 -0.3972 -0.0024
 1460W        W17934  13.046   7.697  12.856 -0.1714 -0.0542  0.2171
 1461W        W17935   4.165   6.058   2.623 -0.1359  0.0284 -0.1659
 1462W        W17936  10.874  16.454  11.311 -0.0296 -0.1091 -0.1590
 1463W        W17937  17.895   3.941  13.658 -0.1378  0.3868  0.2408
 1464W        W17938   2.070   7.110   1.759 -0.2273  0.3525 -0.2657
 1465W        W17939   3.417   7.688   0.456 -0.0525  0.2281  0.0972
 1466W        W17940  16.091   1.365   4.855 -0.0900 -0.2130  0.0898
 1467W        W17941   6.088  17.311  12.105 -0.0657  0.1270  0.0679
 1468W        W17942  15.546  12.860   5.146 -0.0005 -0.0543 -0.0096
 1469W        W17943   6.134   8.352  10.542 -0.3259 -0.3190  0.1627
 1470W        W17944   9.530  13.901  12.766  0.1407  0.0109  0.0045
 1471W        W17945  18.718  18.762  14.228  0.1559  0.1925 -0.0492
 1472W        W17946  10.090  16.566   3.850  0.0503 -0.1823 -0.1174
 1473W        W17947  17.704   0.194  15.075  0.1205 -0.1882  0.0731
 1474W        W17948   0.988  12.522   0.136  0.1760  0.0230 -0.2179
 1475W        W17949   8.702  11.539   1.434 -0.0215 -0.3222 -0.2313
 1476W        W17950   7.489  12.823  10.740  0.5539  0.2397  0.1291
 1477W        W17951  17.333  18.419   3.439  0.2234  0.0008 -0.2787
 1478W        W17952  14.349  10.256   1.953  0.2843  0.3066  0.2485
 1479W        W17953  18.664  10.362  13.340 -0.2606 -0.0987 -0.1058
 1480W        W17954   3.790   4.706   1.469 -0.0076 -0.3318  0.1857
 1481W        W17955   7.366  12.534  12.104  0.0041  0.0573  0.0352
 1482W        W17956   5.228  14.587  14.279 -0.3038  0.2043  0.2282
 1483W        W17957  13.613  11.035  15.016  0.1017  0.0073 -0.3036
 1484W        W17958  12.159   0.019   3.782 -0.0604  0.2312 -0.1407
 1485W        W17959   3.391   5.729   5.350 -0.1199 -0.1272  0.0248
 1486W        W17960  16.074  13.757   1.810  0.3456  0.1160  0.2424
 1487W        W17961   5.781   3.685  14.599 -0.0411 -0.0672  0.3086
 1488W        W17962   1.885   9.534   1.863 -0.2150  0.1280 -0.0535
 1489W        W17963   0.575   9.373  10.974  0.1344  0.2421  0.2605
 1490W        W17964   2.427   6.321   2.127 -0.0335  0.0691  0.1409
 1491W        W17965  18.263  15.123  11.667 -0.1527  0.2231  0.0007
 1492W        W17966  10.480  16.110   1.127  0.2760  0.0320  0.2298
 1493W        W17967   4.486  13.043   2.110 -0.2932  0.0538  0.1218
 1494W        W17968  15.281  11.353  12.885  0.1317 -0.6088 -0.1232
 1495W        W17969  11.014   3.174   2.314 -0.1561  0.1427  0.0915
 1496W        W17970  11.721   1.382  14.550  0.1602  0.1108 -0.0576
 1497W        W17971  13.807   5.841  14.424 -0.1894  0.0772  0.3145
 1498W        W17972  12.937   7.203   4.071  0.0453 -0.0489  0.0237
 1499W        W17973  15.348  18.510   2.010 -0.1172  0.0115  0.0803
 1500W        W17974   2.209   2.946   1.016 -0.0369 -0.1581  0.0416
 1501W        W17975  13.103  16.554   4.633  0.1716 -0.2322  0.3409
 1502W        W17976   4.733   9.518  11.005 -0.2572 -0.1903  0.3734
 1503W        W17977  14.399  11.494   3.146 -0.0839  0.0601 -0.1945
 1504W        W17978   7.672   6.221  14.839 -0.1746  0.2648 -0.1770
 1505W        W17979   1.655  13.742   2.100  0.0161 -0.0584 -0.0059
 1506W        W17980  12.734   2.840   0.904  0.3050 -0.1829  0.0568
 1507W        W17981   3.181   2.965   0.211 -0.1305  0.3191  0.0637
 1508W        W17982  13.927   0.686   1.834 -0.2701 -0.0101 -0.2698
 1509W        W17983   9.335  11.109   4.492  0.0021  0.2440 -0.2329
 1510W        W17984  10.151  13.785   1.842 -0.2489 -0.0620  0.1217
 1511W        W17985   0.742   0.980   4.516  0.2528  0.2002  0.0210
 1512W        W17986   0.194  10.913   3.353 -0.1217  0.2782  0.0444
 1513W        W17987   5.418   8.678  15.040 -0.1662  0.0941 -0.1230
 1514W        W17988   0.812   8.577  10.681 -0.2108  0.2604 -0.1519
 1515W        W17989   3.580   4.235   2.286  0.1016  0.0688  0.2449
 1516W        W17990   2.861   0.081  15.116 -0.0091  0.2092 -0.0664
 1517W        W17991  15.415   9.370  14.365  0.0117  0.1099  0.0096
 1518W        W17992  18.025   9.200   3.602 -0.1684  0.3365 -0.2449
 1519W        W17993   9.585   9.972  13.556  0.2205  0.0768 -0.0214
 1520W        W17994  13.404   5.194   4.177  0.0977 -0.0771 -0.0629
 1521W        W17995   0.012  14.516  13.368  0.1113  0.1021  0.3330
 1522W        W17996  15.778  16.807  10.251  0.2373  0.1106  0.1043
 1523W        W17997  17.688   3.370   4.482 -0.1253  0.2255 -0.0075
 1524W        W17998   7.276  18.843   2.369  0.1815  0.0685  0.1145
 1525W        W17999   7.642   0.107   4.595 -0.0528 -0.1850  0.0748
 1526W        W18000   3.562   4.224   5.103 -0.4543 -0.0462  0.2067
 1527W        W18001   9.651   0.825  14.120 -0.1879  0.1134  0.1934
 1528W        W18002  13.901  10.389   3.992  0.0853  0.1286 -0.0843
 1529W        W18003   6.412   5.882  14.475 -0.3655 -0.0710 -0.0955
 1530W        W18004   4.513   5.350   0.552  0.0858 -0.1698 -0.1661
 1531W        W18005  14.837   5.123   3.567  0.1607 -0.0186 -0.2560
 1532W        W18006  10.334  12.410  11.466 -0.0090  0.1992 -0.1329
 1533W        W18007  10.244   9.734  14.606  0.0814 -0.2188  0.4777
 1534W        W18008  16.457   1.983  11.571 -0.2737 -0.0427 -0.2273
 1535W        W18009  17.537  10.865   1.108 -0.1350 -0.0960 -0.1251
 1536W        W18010  15.083   7.979   2.102  0.1731 -0.1864  0.1943
 1537W        W18011   5.387  14.540  12.771 -0.3492 -0.5905 -0.0159
 1538W        W18012  10.606  17.904  14.659  0.2999 -0.5138  0.0211
 1539W        W18013   0.836  17.691  14.868 -0.1012 -0.2622 -0.2106
 1540W        W18014   4.164  12.763   2.973 -0.2671  0.1960  0.1982
 1541W        W18015   9.718  14.967   0.552  0.2670  0.0131 -0.1757
 1542W        W18016   0.061   2.362  14.134  0.0342 -0.1998  0.2188
 1543W        W18017  15.972  13.270   0.067  0.2206  0.1456 -0.0447
 1544W        W18018   7.246   4.381  11.124  0.0248 -0.1559  0.0365
 1545W        W18019  16.416  13.230  11.659 -0.2474  0.0415  0.1441
 1546W        W18020  11.044  16.268  14.475  0.5685  0.2406 -0.0982
 1547W        W18021  10.573  16.298   0.694  0.1152  0.1599 -0.1624
 1548W        W18022   4.137  18.619  11.315 -0.3441 -0.2558  0.2771
 1549W        W18023   5.915   0.984  14.403 -0.0062 -0.2483  0.0001
 1550W        W18024  14.567  17.678  12.036 -0.0393  0.0273 -0.1856
 1551W        W18025  17.354   9.596   2.480 -0.2958 -0.1555  0.2832
 1552W        W18026  16.118   4.431   3.665 -0.0971  0.1372  0.1544
 1553W        W18027  17.428  11.395  12.938  0.1658  0.6785 -0.1017
 1554W        W18028  19.050   9.102  11.680 -0.2862 -0.2096 -0.0475
 1555W        W18029  15.294   9.137   5.100  0.0372  0.1172 -0.0172
 1556W        W18030   1.501   9.229  11.897  0.2682  0.0407 -0.1348
 1557W        W18031  16.773  14.817  13.703  0.0386  0.1357  0.0131
 1558W        W18032   0.873  15.678   0.298  0.0306  0.0328 -0.0687
 1559W        W18033  14.381   2.819  12.458 -0.1080 -0.1105  0.0497
 1560W        W18034   4.660  12.426  12.303 -0.2240 -0.0226  0.0016
 1561W        W18035   1.056   9.235  13.694 -0.0371 -0.0195 -0.0156
 1562W        W18036   6.665  11.659   0.838  0.1268 -0.0006  0.3304
 1563W        W18037   2.952  13.549  14.433  0.1485  0.0639  0.0033
 1564W        W18038   3.537  17.958   2.783  0.1470 -0.1905  0.0060
 1565W        W18039   7.414   0.719   3.433  0.0248  0.2616 -0.2125
 1566W        W18040   4.612   6.434   1.228  0.0584  0.0769  0.1674
 1567W        W18041   8.447   9.036  14.742 -0.0146  0.2027 -0.1218
 1568W        W18042   0.431   5.396   4.392 -0.1364 -0.0842 -0.2829
 1569W        W18043  18.069   5.109   3.488  0.0481  0.0138 -0.0277
 1570W        W18044  18.643  17.702   0.115 -0.0069 -0.0685 -0.2145
 1571W        W18045  10.379   1.809   2.559  0.0962  0.0794  0.0545
 1572W        W18046  16.719  14.936   2.843 -0.2034 -0.3162  0.1592
 1573W        W18047   4.529  12.435  10.285 -0.1501  0.2462 -0.2174
 1574W        W18048   6.147  12.063  13.674  0.2935  0.1613  0.1400
 1575W        W18049  14.651  17.149   0.058  0.2916 -0.1615 -0.1084
 1576W        W18050  13.577   3.544  13.922 -0.0839  0.0190 -0.3015
 1577W        W18051  16.055   1.805  10.260 -0.1019 -0.2265  0.0170
 1578W        W18052   5.641  13.043  12.142  0.1472 -0.0799 -0.0144
 1579W        W18053  12.972   8.760   4.088 -0.4149  0.0670 -0.3499
 1580W        W18054   6.175   9.007   4.845 -0.3289 -0.0180 -0.0117
 1581W        W18055   3.742   5.788   2.128  0.3640 -0.3578 -0.2285
 1582W        W18056   6.007  11.700  14.157 -0.0531  0.1589  0.1790
 1583W        W18057   9.991  18.232   2.073  0.2451  0.0055  0.0653
 1584W        W18058   3.508   5.598   0.306  0.0391  0.1280 -0.1177
 1585W        W18059   8.476  16.051  11.228  0.1500 -0.0474 -0.0445
 1586W        W18060   4.094  19.036   1.104 -0.0372  0.2834  0.0574
 1587W        W18061   6.584   1.741   4.154  0.0101 -0.2373  0.2474
 1588W        W18062  14.869   5.595  10.445 -0.0125 -0.0572 -0.2536
 1589W        W18063  12.843  12.473   3.374  0.3435  0.2225 -0.2002
 1590W        W18064  14.962  18.671  13.304  0.0597  0.2135 -0.1560
 1591W        W18065   9.684  17.376   5.503 -0.1261  0.3822 -0.4403
 1592W        W18066   9.576  14.435  13.266  0.2161 -0.0914 -0.2805
 1593W        W18067   1.827   7.863   0.939  0.1312  0.1288 -0.0930
 1594W        W18068   3.528   9.069  13.302  0.1606  0.2709  0.3996
 1595W        W18069   7.424   9.893   0.714 -0.1367 -0.4180  0.4292
 1596W        W18070   1.725   9.659   0.551  0.0091 -0.0456 -0.3223
 1597W        W18071  16.553   8.247  11.801 -0.0093  0.0374 -0.0523
 1598W        W18072  14.786  17.854  15.112  0.1948 -0.0610  0.1992
 1599W        W18073  12.749   8.493   3.720 -0.1374  0.0713  0.1699
 1600W        W18074   1.135   2.797   3.345 -0.0344  0.0062 -0.1086
 1601W        W18075  13.954   0.059  12.204 -0.0364 -0.0553 -0.1439
 1602W        W18076   1.463   5.224   0.591 -0.0819  0.0649 -0.0560
 1603W        W18077   9.534   6.752  10.719 -0.0731  0.3870  0.0969
 1604W        W18078  10.597  16.172   4.974  0.1775 -0.0743  0.1456
 1605W        W18079  13.034   6.111   4.725  0.1318 -0.0384 -0.0279
 1606W        W18080  18.322   9.633   0.659  0.1641 -0.2849  0.0770
 1607W        W18081   7.573   1.850   1.128  0.0440  0.2132  0.4568
 1608W        W18082   4.823   5.701  13.834 -0.2036  0.2978 -0.1390
 1609W        W18083   5.037  11.070   0.480  0.2769  0.2423  0.1441
 1610W        W18084   4.982  15.975   1.297 -0.1189 -0.1369 -0.0603
 1611W        W18085  12.829   3.566  14.085 -0.3725 -0.0100  0.0601
 1612W        W18086  12.230  13.956   0.084 -0.1104  0.0014 -0.1156
 1613W        W18087  11.073  16.960   2.540 -0.2275  0.2791 -0.1603
 1614W        W18088  10.196  13.558  11.343  0.0443 -0.1678  0.0189
 1615W        W18089  13.929   6.371   3.734  0.0402  0.0743 -0.1145
 1616W        W18090  11.010  16.011  13.625  0.1954 -0.0325  0.1359
 1617W        W18091   8.999  15.069  10.744  0.0002  0.1358  0.0950
 1618W        W18092   2.666   9.008   3.288  0.0772  0.2641  0.1660
 1619W        W18093  17.726  14.722  13.910  0.0741 -0.0723 -0.0583
 1620W        W18094   7.599   7.567  13.772  0.1024 -0.0446  0.0936
 1621W        W18095   7.010   1.884   3.312 -0.0979 -0.0959 -0.0577
 1622W        W18096  14.943  15.441  11.810  0.0543  0.1039  0.1000
 1623W        W18097  18.290  15.355  13.162 -0.0843 -0.4133  0.2093
 1624W        W18098  17.099  15.546   5.352  0.1265  0.0475 -0.2974
 1625W        W18099   8.139   5.286   2.621  0.0498  0.0070  0.1609
 1626W        W18100   0.325  13.469  14.071  0.0714 -0.0414  0.3078
 1627W        W18101   1.057  14.535   1.931  0.2895 -0.3431  0.1596
 1628W        W18102   3.332   6.574  11.032  0.1342 -0.0939 -0.0292
 1629W        W18103  13.294  11.116   5.309 -0.1895 -0.0949 -0.0098
 1630W        W18104   7.402  12.388   2.461  0.4712 -0.3402  0.1853
 1631W        W18105  18.947   3.708   1.980  0.3265  0.0756  0.0565
 1632W        W18106   3.538   0.254   3.055 -0.1177 -0.1204  0.4405
 1633W        W18107  10.937   2.685   2.397  0.1141  0.0210  0.0933
 1634W        W18108  13.713   5.011   2.866  0.0331  0.0927  0.2389
 1635W        W18109   9.684  16.049   3.748 -0.3582  0.0327 -0.0575
 1636W        W18110   3.407  10.574  13.268 -0.2466  0.1871  0.0718
 1637W        W18111   8.276  16.673  13.439 -0.1513 -0.2303  0.1928
 1638W        W18112   5.220  17.391   2.138 -0.2236  0.0800  0.0742
 1639W        W18113  17.581   0.793  13.655 -0.2792 -0.1856  0.2511
 1640W        W18114   0.038  13.839   3.179 -0.2863  0.1791  0.1345
 1641W        W18115   0.715  16.955   5.096 -0.0061 -0.0550  0.0979
 1642W        W18116  16.211   9.948  11.804 -0.1385 -0.1140  0.2137
 1643W        W18117   0.127   3.073   2.764  0.3528 -0.0006 -0.2929
 1644W        W18118  11.902  18.517   3.142  0.0028  0.0798  0.1344
 1645W        W18119   5.597   1.990   0.964  0.6278 -0.1707  0.0486
 1646W        W18120   1.354   5.022   4.696  0.1318  0.1042  0.1746
 1647W        W18121  13.241   5.015   3.033  0.2909  0.1630 -0.2035
 1648W        W18122   1.397  15.747   1.669  0.0004 -0.2913  0.2318
 1649W        W18123  13.841  15.785  12.949  0.0179  0.2093  0.0221
 1650W        W18124   5.521   0.537   4.639  0.1122  0.1162 -0.0573
 1651W        W18125  11.574  10.932  13.663  0.2565  0.0784 -0.1025
 1652W        W18126   8.226  14.031  14.243 -0.0009  0.2720  0.2538
 1653W        W18127  10.485   4.450   5.260 -0.1171 -0.2593  0.0363
 1654W        W18128  12.628  13.575   4.089 -0.1829 -0.0968  0.1438
 1655W        W18129   3.369  13.246   2.347 -0.3114 -0.2027  0.2860
 1656W        W18130  13.919   1.400   5.373  0.1357  0.0398 -0.0608
 1657W        W18131  15.611   2.138   1.382 -0.0577  0.0112  0.0075
 1658W        W18132   1.037   1.539   3.820 -0.1070 -0.1983  0.1462
 1659W        W18133   0.178   6.910  11.209  0.1832  0.0416  0.0766
 1660W        W18134   0.058  19.105   3.752  0.2896  0.1716  0.0524
 1661W        W18135  15.702  11.596  13.020  0.0642  0.0544 -0.0058
 1662W        W18136  11.252  13.963   1.973  0.0395 -0.1555  0.2162
 1663W        W18137   2.100   4.255  13.667  0.1638  0.1955 -0.0307
 1664W        W18138   0.816   2.669  12.566  0.2045  0.0477  0.0645
 1665W        W18139  18.853  14.727   0.819  0.0590 -0.2589  0.1403
 1666W        W18140   8.105   1.110  12.692 -0.1746 -0.0273  0.2425
 1667W        W18141  11.893   1.932  14.484 -0.1413 -0.0093 -0.1798
 1668W        W18142  16.009   2.873   0.325  0.0356 -0.0496 -0.0251
 1669W        W18143  18.761   8.060  10.592  0.0335  0.2404  0.0514
 1670W        W18144   2.768  13.496  12.088  0.1495  0.1505 -0.2153
 1671W        W18145  18.778   0.201   1.012  0.2273  0.2081 -0.1984
 1672W        W18146  12.624  16.621  11.927 -0.2002 -0.0939  0.2063
 1673W        W18147  17.661   7.197  10.701 -0.0961 -0.2708  0.0073
 1674W        W18148   7.722   5.460   9.526 -0.2300  0.3563 -0.0005
 1675W        W18149  14.454   6.799  11.434 -0.3184 -0.0241  0.1469
 1676W        W18150  14.066  18.492  13.101 -0.1549 -0.1220 -0.1373
 1677W        W18151   7.204  11.333  10.725  0.0618  0.1697  0.3435
 1678W        W18152   3.719   0.921   0.293  0.0879  0.2180 -0.4227
 1679W        W18153  17.827   5.869  14.060 -0.2628  0.1233  0.0431
 1680W        W18154  18.428  16.227  11.742  0.1451 -0.0608 -0.0488
 1681W        W18155  17.233   2.331  14.713 -0.4751 -0.2394 -0.3318
 1682W        W18156  12.174  11.834   2.885 -0.1099  0.1289 -0.1634
 1683W        W18157   5.636   5.647  14.935 -0.0305 -0.1334  0.0380
 1684W        W18158  13.951  16.217   0.003 -0.2691 -0.1167 -0.3707
 1685W        W18159   9.413  12.179  11.709  0.1921 -0.0171 -0.2325
 1686W        W18160   5.333   8.772   2.153 -0.1389  0.0089 -0.1175
 1687W        W18161  14.768  12.359  15.116 -0.0878 -0.2329  0.1273
 1688W        W18162  10.837  16.947   4.400 -0.5065 -0.1649  0.0678
 1689W        W18163   6.665  10.355  13.753 -0.1214 -0.0431 -0.1296
 1690W        W18164  17.518  13.115   4.345 -0.0213  0.1606 -0.1007
 1691W        W18165  11.330   8.890  11.821 -0.0471  0.4051 -0.3633
 1692W        W18166  17.673   2.983   3.267  0.1267  0.0745 -0.1402
 1693W        W18167   9.153   7.240   0.524 -0.0722 -0.0856  0.1795
 1694W        W18168   1.530   8.409   1.266  0.0587 -0.2743  0.0864
 1695W        W18169   7.589  13.650   0.077  0.1057 -0.0097  0.0795
 1696W        W18170  10.149   3.874  10.948  0.0226  0.0781  0.3798
 1697W        W18171   3.281  18.403   4.594 -0.3847  0.0393 -0.0029
 1698W        W18172   8.244   5.383   3.115  0.1002 -0.2446 -0.1165
 1699W        W18173   5.472  18.436  12.038  0.0257 -0.2291  0.0950
 1700W        W18174   2.909  18.206  11.712 -0.1067 -0.0339  0.0309
 1701W        W18175  17.066  18.565  14.903  0.0744  0.0042  0.0314
 1702W        W18176   0.222   3.610  12.204 -0.2424  0.2507  0.0533
 1703W        W18177   9.904   5.717  13.854 -0.2424  0.3409  0.2128
 1704W        W18178   2.487   2.613  10.677 -0.3110 -0.0903 -0.0644
 1705W        W18179   8.075   0.096   0.528 -0.1753  0.1208 -0.0279
 1706W        W18180   1.008  10.138  12.262 -0.3631  0.0207  0.1035
 1707W        W18181   8.723   8.955   2.545 -0.3773  0.2284 -0.0820
 1708W        W18182  15.627  13.494  12.751 -0.1368 -0.0798 -0.1450
 1709W        W18183   6.616   4.845  14.464 -0.1887 -0.1183 -0.2032
 1710W        W18184   4.123  12.368   0.824 -0.1861  0.0517 -0.0044
 1711W        W18185  18.725  18.902  12.667 -0.1826 -0.1032 -0.1742
 1712W        W18186   6.428  11.745  13.362 -0.2832  0.0704 -0.0151
 1713W        W18187   1.321  18.874  13.626  0.2343 -0.1312  0.2709
 1714W        W18188  15.855  16.200  12.258 -0.0767 -0.3727  0.1342
 1715W        W18189   5.204   7.980   0.946 -0.1718 -0.2134 -0.1706
 1716W        W18190   8.642   4.211   1.105  0.0412  0.0697  0.1363
 1717W        W18191  13.802   3.676   1.952  0.5195  0.1637 -0.1112
 1718W        W18192  12.903  12.828  12.931  0.3058 -0.0077 -0.0915
 1719W        W18193   9.950  15.492   3.010 -0.1282  0.2693 -0.0193
 1720W        W18194  19.027   9.498   4.302 -0.0054 -0.1783  0.0232
 1721W        W18195   2.919  14.951   2.115 -0.0090 -0.1282 -0.5227
 1722W        W18196   4.625  13.292  15.150 -0.1925  0.0647  0.1726
 1723W        W18197  12.716  17.197   2.476  0.0382  0.1005 -0.0968
 1724W        W18198   1.063  11.129  10.310 -0.2105  0.0721 -0.0318
 1725W        W18199  15.677   6.710   2.827  0.3091 -0.0248  0.0226
 1726W        W18200  16.876  12.883  12.594 -0.1052 -0.1377 -0.0457
 1727W        W18201   2.433   6.169  14.602  0.3320 -0.0743 -0.0117
 1728W        W18202  18.576  12.238  11.045 -0.0447  0.0810  0.1749
 1729W        W18203  10.012  14.573   1.364  0.0982 -0.0559  0.0527
 1730W        W18204   1.975   4.275  12.735 -0.1654  0.2604 -0.1591
 1731W        W18205  13.147   1.983  11.162  0.1729  0.3982 -0.1789
 1732W        W18206   7.484   2.323   1.835  0.0934 -0.1778  0.0400
 1733W        W18207   4.829  10.374   3.058 -0.0487 -0.4222  0.0541
 1734W        W18208  10.570  11.902   5.745 -0.0068  0.0146 -0.2520
 1735W        W18209   4.462  17.870  14.190 -0.1562  0.0184  0.1128
 1736W        W18210  14.842   5.656   0.405  0.1243 -0.0040 -0.0886
 1737W        W18211  13.137  12.765   2.909  0.3363 -0.1689  0.0339
 1738W        W18212   0.591   0.731  14.368 -0.0364  0.0312  0.1811
 1739W        W18213  16.951  12.607   4.706 -0.0905  0.2299  0.2339
 1740W        W18214  12.639  13.396   0.699  0.2760 -0.4618  0.2008
 1741W        W18215   3.497  17.942  11.899 -0.0362 -0.0755  0.2273
 1742W        W18216  14.696   7.492   3.398  0.0196 -0.3241 -0.0699
 1743W        W18217  13.316   7.398  10.469  0.0362 -0.0047 -0.1458
 1744W        W18218   9.604   5.194  13.722 -0.1045  0.1952 -0.3680
 1745W        W18219  18.106   8.941   1.455 -0.2084  0.0041  0.0521
 1746W        W18220   4.037   7.295  10.935  0.0527  0.1149  0.0329
 1747W        W18221  18.642   8.046  12.344 -0.6406 -0.0369 -0.1999
 1748W        W18222  10.192  16.836   3.088  0.2170 -0.0069 -0.0027
 1749W        W18223   5.608  18.022  12.644  0.0956 -0.2512  0.4318
 1750W        W18224  18.059   9.750  13.048 -0.0602 -0.1987  0.2906
 1751W        W18225  16.487   6.084   4.325 -0.2667 -0.0167 -0.1309
 1752W        W18226  11.455   7.769  12.260  0.1944  0.0197 -0.0754
 1753W        W18227  14.346  14.002   1.199 -0.0358  0.1566 -0.1339
 1754W        W18228   2.756   4.214   5.147  0.1120  0.1068  0.0253
 1755W        W18229   3.570  11.086   0.250 -0.3281 -0.1304 -0.1436
 1756W        W18230   3.223  13.946  14.671 -0.3897 -0.2396  0.0142
 1757W        W18231   4.396  14.438  14.794  0.0063  0.0195  0.0617
 1758W        W18232   7.657  16.880  13.997  0.1241  0.5174 -0.2212
 1759W        W18233   1.115  13.751  13.615  0.0812  0.0130  0.0476
 1760W        W18234   0.360   7.105   2.426 -0.1375 -0.0064  0.0633
 1761W        W18235  11.509   6.770  13.520 -0.3185  0.0871  0.0803
 1762W        W18236   5.927  14.587   4.648  0.1733 -0.2596  0.2198
 1763W        W18237   3.289   8.513   1.811  0.1553 -0.0319  0.0836
 1764W        W18238  18.758  16.317  15.116  0.0378  0.0284  0.0850
 1765W        W18239   9.700  10.846  11.343 -0.1964  0.0872 -0.0595
 1766W        W18240  15.654   2.639  14.514 -0.2461 -0.0820 -0.0201
 1767W        W18241  15.668   6.087  10.143  0.0416  0.0009  0.0949
 1768W        W18242  13.261   8.543  13.803  0.3130  0.0062  0.0279
 1769W        W18243   3.820   5.945  14.777  0.2972  0.0445  0.2220
 1770W        W18244  13.092  18.485   0.118 -0.2770  0.2102  0.0883
 1771W        W18245  16.127   8.987   1.952  0.0152  0.3185  0.1829
 1772W        W18246  13.611  17.507   2.093 -0.0501 -0.0973 -0.1083
 1773W        W18247   5.264  13.817   0.712 -0.1285  0.0218 -0.3169
 1774W        W18248  13.594   9.659   1.114 -0.1121 -0.1807  0.0522
 1775W        W18249   0.502   8.631  12.191  0.2523 -0.1294  0.0334
 1776W        W18250  16.887   7.681  11.740  0.0284  0.1483 -0.0014
 1777W        W18251  15.886   4.303   4.124 -0.1228 -0.1196  0.0925
 1778W        W18252   2.828   7.891  12.975  0.0659 -0.0119 -0.1518
 1779W        W18253  12.501  10.240   3.511  0.1045  0.0780  0.4178
 1780W        W18254   9.825   8.697  13.563 -0.0494  0.0435 -0.0497
 1781W        W18255   3.589  11.383  11.792  0.1307  0.1021 -0.0276
 1782W        W18256  10.007  18.363  10.781  0.2070  0.3050 -0.3210
 1783W        W18257   9.511  16.727  12.047 -0.0724 -0.0484  0.0261
 1784W        W18258  14.843  16.270   1.259  0.2625 -0.1688 -0.0862
 1785W        W18259   4.782   4.775  13.462  0.0952 -0.1007  0.1605
 1786W        W18260  11.703   1.262  12.420 -0.2979  0.2407  0.1289
 1787W        W18261   4.917  12.078   4.594  0.1704  0.1314  0.0720
 1788W        W18262  15.895  10.386   1.000 -0.2700 -0.1446 -0.0045
 1789W        W18263  13.651   1.248  11.643  0.2631  0.1133 -0.1332
 1790W        W18264   3.023  10.195  13.670  0.1032  0.4845 -0.2780
 1791W        W18265   4.641  14.009  14.754 -0.0091 -0.0331  0.0270
 1792W        W18266   4.316  10.822  12.240  0.2221  0.3827 -0.1770
 1793W        W18267  15.325  10.468   1.895 -0.0665  0.2664 -0.0728
 1794W        W18268   3.073  15.239   1.300  0.0584 -0.4341 -0.3533
 1795W        W18269  17.400  12.744  14.860  0.2172  0.0299  0.2186
 1796W        W18270   2.904  18.577  12.396 -0.0149 -0.0202  0.0590
 1797W        W18271   0.118  15.590  11.688 -0.3120  0.2732  0.1873
 1798W        W18272  16.716   0.243   0.173  0.0739 -0.0370  0.1150
 1799W        W18273   0.668  16.192   0.985  0.0038 -0.2224 -0.0887
 1800W        W18274  14.613   8.634  10.126 -0.2513 -0.1656  0.2308
 1801W        W18275   9.650  12.606   0.270  0.0288  0.1308  0.1934
 1802W        W18276   5.278  14.579   3.239  0.0258  0.2522 -0.2648
 1803W        W18277   7.199  10.702   4.776  0.1993 -0.1307 -0.2009
 1804W        W18278  13.727  16.830  13.104 -0.2513  0.5083  0.1382
 1805W        W18279   7.339   7.422   3.592  0.0866  0.2663  0.0585
 1806W        W18280   8.825   5.355  13.511  0.0943 -0.0882  0.0163
 1807W        W18281  18.965   8.559  11.608  0.0311 -0.0257  0.0368
 1808W        W18282  15.394  16.405  11.486 -0.4058  0.2691  0.1651
 1809W        W18283   3.387   0.357  15.141 -0.1089 -0.2282 -0.1526
 1810W        W18284   7.379   5.731  10.762  0.0344  0.3623  0.0550
 1811W        W18285   1.236  12.616  10.494 -0.1040 -0.1536 -0.1559
 1812W        W18286  16.326  18.252   1.903  0.0695  0.0137 -0.1506
 1813W        W18287  16.176   1.696  14.046 -0.0265  0.0248  0.0773
 1814W        W18288  18.632   3.094   3.634 -0.1695 -0.2450 -0.3226
 1815W        W18289   8.599   5.523  11.505  0.2999  0.1009  0.3739
 1816W        W18290   4.134   8.333  14.531  0.0192  0.0403 -0.0986
 1817W        W18291  18.428   9.861  12.092  0.0560 -0.1883 -0.2877
 1818W        W18292  19.067   3.410   0.194 -0.0221  0.2596  0.2473
 1819W        W18293  18.398  17.799  11.202  0.0144  0.3011 -0.3807
 1820W        W18294   0.271   7.493   4.708 -0.0574  0.0048  0.3224
 1821W        W18295   1.972   1.506  14.617  0.0021 -0.0392  0.0519
 1822W        W18296  10.977  11.871   4.455 -0.0792 -0.3785  0.1079
 1823W        W18297  14.249  10.217  12.780  0.2814 -0.1136 -0.1788
 1824W        W18298   8.970  13.654   3.577 -0.1692  0.5631  0.0266
 1825W        W18299   4.345  11.484   3.747  0.0530  0.4176  0.0891
 1826W        W18300   0.263  16.371   1.176 -0.1497  0.3198 -0.1389
 1827W        W18301   3.071   9.117   5.136  0.0996  0.0560  0.0228
 1828W        W18302  15.606  16.207   0.212  0.2896  0.1655 -0.1446
 1829W        W18303   3.543  13.063  12.614 -0.3289 -0.4742 -0.1568
 1830W        W18304  18.532  11.538  12.094  0.2923 -0.0197 -0.2148
 1831W        W18305  11.602   8.689   1.030  0.3867 -0.4145  0.0245
 1832W        W18306  12.656  14.099   4.287  0.3695  0.0154  0.0208
 1833W        W18307  18.200   8.439   4.541  0.3261  0.0706 -0.1422
 1834W        W18308  14.762   6.802  14.155 -0.1730 -0.0215 -0.0775
 1835W        W18309  15.320  18.334   4.439 -0.0052 -0.0415 -0.2897
 1836W        W18310   4.343   2.825   4.819 -0.2662  0.2898 -0.1306
 1837W        W18311   4.281   1.037  14.151 -0.2151  0.0096  0.0301
 1838W        W18312  10.838  10.525  13.998 -0.2318  0.1441 -0.0735
 1839W        W18313  17.192  14.399   3.545 -0.0012 -0.1685 -0.1433
 1840W        W18314   2.714  15.344   4.287 -0.0363 -0.0840  0.0476
 1841W        W18315   9.029  18.429   5.106 -0.1136 -0.2896 -0.2397
 1842W        W18316   1.503   2.527   4.598 -0.0109  0.2569  0.4729
 1843W        W18317  12.052  15.251   9.349 -0.1380 -0.1213  0.1824
 1844W        W18318   6.695  12.776   1.880  0.1145  0.1115  0.0736
 1845W        W18319  18.418   8.479  10.600  0.0704 -0.4629 -0.0921
 1846W        W18320  18.588   0.388   2.055  0.3571 -0.0352  0.2226
 1847W        W18321  13.120  12.037  12.018 -0.0908 -0.0070 -0.2307
 1848W        W18322   0.721   4.646   2.486  0.0152  0.1016  0.1222
 1849W        W18323  18.338  14.356   4.593  0.0266 -0.0723 -0.1582
 1850W        W18324   2.228   4.076   4.303  0.0926  0.3111 -0.2677
 1851W        W18325  12.413   5.918   1.941  0.0407 -0.4741  0.2799
 1852W        W18326   9.212  16.327   4.641 -0.1776  0.0492 -0.1058
 1853W        W18327   9.034   3.726   5.227  0.3377  0.0262 -0.0277
 1854W        W18328   4.650  15.603  13.433 -0.3720  0.5063  0.2241
 1855W        W18329   3.044  11.593  10.947  0.0287  0.3209 -0.3584
 1856W        W18330  12.026   8.656  13.427 -0.2120 -0.0726  0.0784
 1857W        W18331  12.175   9.942  14.815  0.1497 -0.1068  0.1405
 1858W        W18332   6.714   9.838   0.012  0.0362 -0.1687 -0.2586
 1859W        W18333  10.588   5.617   1.397 -0.1029 -0.2162  0.0111
 1860W        W18334  18.000  11.275   0.547 -0.0648 -0.2481  0.2770
 1861W        W18335  14.955   1.254  12.946 -0.0822 -0.1717 -0.1613
 1862W        W18336  15.304   8.211   3.392 -0.0315 -0.0415 -0.2689
 1863W        W18337   0.386  15.172   0.917  0.0289 -0.1740  0.1445
 1864W        W18338   6.623   0.952  12.391 -0.3043  0.3419  0.0376
 1865W        W18339   3.641  14.658   2.885 -0.0738  0.1527 -0.0912
 1866W        W18340   9.972   1.480   1.876 -0.0442 -0.2710 -0.0531
 1867W        W18341   6.954  13.887  10.157 -0.2455 -0.0830  0.2135
 1868W        W18342  13.833   4.638   4.804  0.1923  0.1637  0.1017
 1869W        W18343  15.548  17.593   1.797 -0.2371  0.3672 -0.1851
 1870W        W18344   1.953   2.921   5.321  0.1071 -0.0223  0.2053
 1871W        W18345  12.331  10.999  11.314 -0.1079  0.1426 -0.0246
 1872W        W18346   0.593   8.749   0.979  0.2581 -0.1977  0.1956
 1873W        W18347  13.051  16.533  13.399 -0.0462 -0.4321 -0.2216
 1874W        W18348  11.359   0.036  12.799 -0.1185  0.2251 -0.4422
 1875W        W18349   8.993   1.325   4.776  0.3686 -0.2309  0.0610
 1876W        W18350   9.878  14.544   0.867  0.2351  0.1798 -0.4979
 1877W        W18351   5.239   1.849   0.631  0.0179 -0.0400  0.0897
 1878W        W18352   5.655   1.055   1.257 -0.3266  0.0571 -0.0002
 1879W        W18353  18.260  18.576  11.802 -0.1546 -0.2114  0.3052
 1880W        W18354  18.358   8.605  11.647  0.3107 -0.0520 -0.1611
 1881W        W18355  17.163  14.072  12.013  0.1512  0.2831  0.0597
 1882W        W18356  10.732   0.700  13.175  0.1232 -0.0238  0.0196
 1883W        W18357   7.026   8.106  14.236 -0.2183  0.0822  0.1515
 1884W        W18358  17.164   7.235   3.929 -0.1098 -0.2872  0.1977
 1885W        W18359   7.097   3.050  14.978 -0.0509 -0.3165 -0.0945
 1886W        W18360   3.348  10.630   2.317 -0.3225  0.0892 -0.1016
 1887W        W18361  13.988  18.881   0.183  0.0289 -0.1263  0.0052
 1888W        W18362  17.208  10.023   4.166  0.0133  0.2928 -0.4418
 1889W        W18363   1.538   4.914   2.850 -0.3225  0.1061  0.2204
 1890W        W18364  10.977   0.678   5.701 -0.2783 -0.1399 -0.0205
 1891W        W18365   7.952   2.669   0.500  0.0713  0.1585  0.0139
 1892W        W18366   4.024  14.929  12.559  0.0190  0.0408 -0.1948
 1893W        W18367  15.328  13.732  12.002  0.1366 -0.1204  0.0552
 1894W        W18368   0.223  16.017  11.297 -0.1719 -0.1063 -0.2162
 1895W        W18369  17.961   8.761  10.796  0.0078 -0.0103  0.0267
 1896W        W18370  15.530  15.259  14.762  0.0240  0.3018  0.1706
 1897W        W18371  13.224  12.909  12.106  0.0217  0.1457  0.0981
 1898W        W18372  13.342  15.661   5.175  0.2484 -0.2718  0.3288
 1899W        W18373  16.151   7.374  11.622  0.0175 -0.0983 -0.0383
 1900W        W18374   6.986   3.523  13.688  0.4241 -0.0989 -0.0082
 1901W        W18375  15.295  12.031   5.372 -0.1134 -0.0489  0.3282
 1902W        W18376   1.874   5.316  13.711 -0.0817 -0.1318  0.0753
 1903W        W18377   3.309  13.345  13.492 -0.4751 -0.2618  0.0944
 1904W        W18378  16.414  18.761   0.380  0.0875 -0.2253  0.3250
 1905W        W18379   8.525  16.749   2.739 -0.0158 -0.1834 -0.0353
 1906W        W18380  14.956   3.759  13.818  0.0757  0.2084 -0.1919
 1907W        W18381  14.075  11.605  11.158 -0.0534 -0.0378 -0.1092
 1908W        W18382   2.071  16.117   1.292 -0.0615  0.2245 -0.1938
 1909W        W18383  15.537   8.054   0.587 -0.1085 -0.2287  0.1583
 1910W        W18384   5.402  18.412   1.156  0.0779  0.0533 -0.1000
 1911W        W18385  17.106  12.955   1.231  0.1113 -0.1072 -0.1128
 1912W        W18386  18.777   4.171  11.204  0.0721  0.0799  0.1576
 1913W        W18387   1.972   5.538   1.722 -0.1397  0.0175 -0.0448
 1914W        W18388   8.607   3.440  10.422  0.3240  0.1228  0.1581
 1915W        W18389   2.984   8.146   1.765  0.2988  0.1041 -0.2691
 1916W        W18390  12.370   0.572  12.296  0.2437 -0.2463 -0.1193
 1917W        W18391   7.904   2.372  13.684  0.1650 -0.0315 -0.1531
 1918W        W18392  10.203   4.715  14.337  0.1700 -0.2382 -0.3429
 1919W        W18393  19.136   0.390   3.418  0.2239 -0.0358  0.3340
 1920W        W18394  15.661   9.965   5.702 -0.1361 -0.1751 -0.1025
 1921W        W18395   5.955  16.683  14.366  0.0549 -0.3620 -0.0215
 1922W        W18396  18.675   3.914  14.027 -0.1046 -0.0802 -0.0161
 1923W        W18397  17.588  18.545  13.336  0.1410  0.2971  0.3577
 1924W        W18398  18.289   7.800   0.782  0.3085  0.0717 -0.1812
 1925W        W18399   2.061  14.786  10.513  0.2236 -0.2240  0.0767
 1926W        W18400   1.111  10.639  13.284 -0.1037  0.1581 -0.0310
 1927W        W18401  16.480   2.825  10.718  0.0108  0.3039 -0.0405
 1928W        W18402   9.986   0.100   1.442 -0.0688 -0.1083 -0.1157
 1929W        W18403  13.901   2.243  10.125 -0.0032 -0.3131  0.1240
 1930W        W18404   2.644   0.872   5.561 -0.0922 -0.0443  0.1341
 1931W        W18405  14.686  11.375   0.738  0.2660  0.0113  0.3490
 1932W        W18406   4.946  11.572  11.850  0.1783  0.2422 -0.0518
 1933W        W18407  11.135   2.726  11.762  0.0953  0.3286  0.1353
 1934W        W18408  18.917   3.780  12.149 -0.4923  0.0976  0.1931
 1935W        W18409   3.157  14.293   1.566 -0.0032  0.1653 -0.1763
 1936W        W18410  13.131  10.930   3.832 -0.1338 -0.0290  0.0069
 1937W        W18411  10.625  13.843  12.562 -0.1111 -0.1278 -0.0841
 1938W        W18412   4.871   1.216  12.046 -0.1531  0.2561 -0.0478
 1939W        W18413   3.086  12.659   1.718  0.1287  0.0116  0.1616
 1940W        W18414   1.844  15.135  11.840 -0.1685  0.0216 -0.1463
 1941W        W18415  15.264  11.950  10.195 -0.4900 -0.0503 -0.0435
 1942W        W18416   6.261   5.489   0.476 -0.0167 -0.0696 -0.0015
 1943W        W18417   0.911   6.967   2.440 -0.0709 -0.0435  0.3122
 1944W        W18418  15.035  12.818  13.395 -0.2313 -0.3745 -0.1209
 1945W        W18419  18.089  11.139   4.186  0.2191  0.1253  0.0343
 1946W        W18420   6.116   0.758   1.100  0.0284  0.1820 -0.0131
 1947W        W18421  18.161  12.607   4.388 -0.1334 -0.0366  0.0256
 1948W        W18422   9.061   0.932   3.773 -0.0338  0.0265 -0.0482
 1949W        W18423  17.086   8.714  13.876  0.1563  0.0139 -0.0293
 1950W        W18424   6.106   9.053   2.439  0.0272 -0.3182  0.2122
 1951W        W18425  16.279   3.481  13.519  0.1922 -0.2463  0.2696
 1952W        W18426   9.305   0.506   0.097  0.2444  0.1386 -0.1605
 1953W        W18427   1.201   9.434  10.255 -0.0334  0.0110 -0.0970
 1954W        W18428  18.073   1.374  11.449  0.0200 -0.2997  0.1041
 1955W        W18429   1.626   5.952   3.062 -0.0732 -0.0057 -0.1943
 1956W        W18430   2.167   3.935  15.001  0.0035  0.3426  0.2428
 1957W        W18431   4.374  18.806   1.462  0.0566  0.0252  0.0711
 1958W        W18432   3.688   1.888   1.721 -0.0266  0.1368 -0.3693
 1959W        W18433  17.166  17.204  14.585  0.0838 -0.1880  0.1171
 1960W        W18434   8.900  13.327   4.018 -0.0377  0.0152 -0.0798
 1961W        W18435   6.400   0.850   3.969 -0.2066 -0.0335 -0.1243
 1962W        W18436  12.244   1.215   2.417  0.0772  0.2540 -0.0612
 1963W        W18437  17.675   8.988  11.147 -0.2642  0.0815 -0.0674
 1964W        W18438  12.350   3.474   1.082 -0.0135 -0.1254 -0.2184
 1965W        W18439  15.110  10.553  14.957  0.0753 -0.1325  0.0182
 1966W        W18440  15.900   7.155   4.290  0.4612  0.0872 -0.0961
 1967W        W18441   0.580  18.092   4.528  0.0563  0.0019  0.2968
 1968W        W18442   9.113  14.511   4.837 -0.2799 -0.5009 -0.0647
 1969W        W18443  17.779  10.898   3.870  0.1892 -0.1980 -0.2899
 1970W        W18444   4.328   7.224   1.406  0.0418  0.0457 -0.2043
 1971W        W18445  13.365  13.067  13.407  0.2063 -0.1880  0.1519
 1972W        W18446   7.192   0.580  11.189  0.2937  0.0539 -0.1610
 1973W        W18447   3.753   5.248   4.923  0.0023 -0.4878 -0.1791
 1974W        W18448  11.699  15.403  14.638 -0.1024  0.3512 -0.0955
 1975W        W18449   4.174   8.984  10.378 -0.0042 -0.0333 -0.0475
 1976W        W18450  12.494   9.627  12.239  0.0863 -0.0789 -0.1035
 1977W        W18451  11.466   7.435   0.060 -0.0907  0.2631  0.0571
 1978W        W18452   0.899   9.587   1.596  0.2698 -0.0797 -0.0504
 1979W        W18453  13.458   9.119  12.142  0.2528  0.2887  0.0146
 1980W        W18454   4.318   3.449   0.889  0.3176 -0.1400 -0.0611
 1981W        W18455  18.119   6.521   4.644  0.1085  0.1159  0.3787
 1982W        W18456   7.868  15.782   9.590 -0.0989  0.0112  0.1741
 1983W        W18457   6.885   6.169  12.486 -0.1790  0.2246  0.0051
 1984W        W18458  12.577  10.757   3.346 -0.0317 -0.0760  0.1343
 1985W        W18459  10.411  11.892  12.276 -0.1097 -0.1630 -0.2701
 1986W        W18460  16.453  13.794   2.229  0.0076  0.2404  0.0083
 1987W        W18461   7.707   4.772  11.101 -0.3214  0.1496  0.2448
 1988W        W18462  15.864   1.688   3.302  0.1436  0.0117 -0.1090
 1989W        W18463   6.938  14.299   0.197 -0.0129  0.1045 -0.5044
 1990W        W18464  13.721   7.854  11.826 -0.1989 -0.3559  0.1624
 1991W        W18465   2.825  11.890   1.128 -0.0141  0.1173  0.0470
 1992W        W18466   1.029   2.690   2.801  0.0435  0.1995  0.1480
 1993W        W18467   9.591  18.681  10.869 -0.0289 -0.0416 -0.1784
 1994W        W18468   2.244   4.404  11.896  0.1958  0.3234 -0.0176
 1995W        W18469  11.222   4.262   2.767 -0.0389 -0.2302 -0.1655
 1996W        W18470  15.128   1.782  13.817 -0.2553  0.1308 -0.2527
 1997W        W18471  15.377  14.903   1.480  0.1193 -0.0750 -0.1308
 1998W        W18472  12.837   2.415  13.327 -0.1407 -0.1392  0.2917
 1999W        W18473   7.970   3.050   3.587 -0.0225  0.3595 -0.0083
 2000W        W18474   4.408   8.109   3.768 -0.3037 -0.1499 -0.2249
 2001W        W18475   1.072   0.450   5.304 -0.1341  0.0795 -0.1302
 2002W        W18476  10.199  17.849  14.956  0.0228 -0.0535  0.1905
 2003W        W18477  12.958  10.113   2.734 -0.3035  0.0562  0.0612
 2004W        W18478   6.518   6.665   3.178  0.1885 -0.2148 -0.1963
 2005W        W18479  14.667   4.078   2.379 -0.1599 -0.0476 -0.2178
 2006W        W18480  14.693  17.552   4.819  0.0457 -0.1021 -0.2330
 2007W        W18481  16.626   2.766   2.407  0.0854  0.0522  0.2912
 2008W        W18482  16.355  13.667  12.083  0.0084 -0.3283 -0.0824
 2009W        W18483  15.371   6.430  13.031  0.1550 -0.0249  0.1586
 2010W        W18484  16.195  10.985   0.472 -0.2266 -0.0707 -0.0932
 2011W        W18485  16.990  17.000  13.690  0.0047 -0.1678  0.2690
 2012W        W18486   9.091   6.391   4.689 -0.1141  0.0543  0.1563
 2013W        W18487  14.121   2.217  13.076 -0.1388  0.1763 -0.1859
 2014W        W18488   5.188   4.529   2.475 -0.1755  0.2801  0.0218
 2015W        W18489   7.182  14.541  12.434  0.0645  0.0673  0.1037
 2016W        W18490  14.323   7.975  12.376 -0.0801 -0.1324 -0.0173
 2017W        W18491  18.119   1.485  12.552 -0.0730 -0.1658 -0.1642
 2018W        W18492   0.590   8.258   4.431 -0.3353  0.1877 -0.1954
 2019W        W18493  10.727   6.684  15.143  0.2800 -0.1409  0.1046
 2020W        W18494  18.396  11.791   3.962 -0.0670  0.0711 -0.2619
 2021W        W18495   1.556  11.380   4.472 -0.1391  0.0663 -0.2182
 2022W        W18496   6.335  17.491   4.764 -0.1142 -0.0889  0.1737
 2023W        W18497   1.987  13.685   2.761  0.2324 -0.1929 -0.0711
 2024W        W18498   6.530   3.454  13.011 -0.0231  0.0057 -0.2416
 2025W        W18499  11.604   0.485  12.196  0.0672 -0.2760 -0.0754
 2026W        W18500   6.904  14.929  12.149  0.0541 -0.0365  0.2413
 2027W        W18501   4.528  10.612  13.680  0.1113 -0.0675  0.1021
 2028W        W18502   9.716   5.961  12.394  0.2214 -0.1096 -0.3096
 2029W        W18503  16.158  12.260   0.774  0.0417 -0.1527 -0.1959
 2030W        W18504   1.174   7.918   1.885 -0.4970  0.1288  0.0548
 2031W        W18505   0.981   2.661  11.556  0.1821 -0.0799  0.2037
 2032W        W18506  11.360   1.262   0.158  0.2179  0.1128  0.1134
 2033W        W18507  14.840  16.326   4.006 -0.0042 -0.1974  0.0014
 2034W        W18508   4.623   5.891  13.038  0.2500  0.1071 -0.4338
 2035W        W18509   0.428  18.775  10.968  0.1559 -0.3454 -0.1909
 2036W        W18510  18.814  16.777   1.627  0.0981  0.0644  0.4713
 2037W        W18511   0.611  18.119  12.281 -0.1589  0.1767  0.1871
 2038W        W18512  18.413  10.248   1.994  0.2182 -0.0750  0.0840
 2039W        W18513  17.575  11.500  13.932  0.0149  0.1907  0.0854
 2040W        W18514  13.925  14.162   1.477 -0.1462  0.5226  0.1694
 2041W        W18515   3.263   5.720   2.348  0.2277  0.0675  0.2820
 2042W        W18516   1.801   6.785   1.470 -0.2248 -0.2824 -0.1948
 2043W        W18517   4.645  14.318   4.875  0.1118  0.0034  0.1364
 2044W        W18518   0.203   0.896   0.656  0.0086  0.1227  0.1179
 2045W        W18519   6.860  15.802  13.468 -0.2143 -0.1483 -0.3483
 2046W        W18520   1.219  15.304   3.924 -0.0867  0.1311 -0.4739
 2047W        W18521  14.644  10.796  10.660 -0.0140 -0.1750  0.0443
 2048W        W18522  10.180  18.139  11.209 -0.0002  0.0057  0.0297
 2049W        W18523   7.135   3.252  14.553 -0.0613 -0.2625  0.2667
 2050W        W18524  17.808  10.274   5.023  0.0115 -0.2366 -0.2379
 2051W        W18525   7.781   9.934   3.925 -0.0598 -0.0656 -0.0315
 2052W        W18526   1.641   7.565   2.698  0.1420 -0.2848  0.0622
 2053W        W18527  17.543   5.403   0.715  0.0853  0.0091 -0.2453
 2054W        W18528  13.733   3.993  14.212 -0.0142 -0.0187 -0.1801
 2055W        W18529  19.071  18.270  12.631  0.1447  0.3134 -0.1279
 2056W        W18530  18.507   5.486  10.650 -0.1039  0.0048 -0.1115
 2057W        W18531   8.693  13.809   1.289  0.0064  0.1083 -0.0568
 2058W        W18532  17.299  11.442   1.487  0.0466 -0.0862 -0.0597
 2059W        W18533   8.461   5.466   2.170 -0.1797  0.0974  0.2207
 2060W        W18534   6.923  17.132   0.417  0.2596 -0.0419 -0.1283
 2061W        W18535  14.536   6.531  12.818 -0.1176 -0.0572 -0.1480
 2062W        W18536   4.220   6.564  10.879 -0.1236  0.0749 -0.4368
 2063W        W18537   3.619   3.289   2.709  0.0759  0.0055 -0.0586
 2064W        W18538  17.117  18.497   1.411 -0.0746 -0.0537  0.1486
 2065W        W18539   5.456  14.868   1.316  0.0175  0.1724 -0.1880
 2066W        W18540   5.970  16.836  12.312 -0.3586 -0.1128  0.1709
 2067W        W18541  16.346  18.866   0.900  0.2294  0.0148 -0.1472
 2068W        W18542   9.371  16.271   3.390  0.0627  0.0422 -0.0968
 2069W        W18543   5.444  17.382   3.105 -0.1097 -0.3985 -0.2975
 2070W        W18544  14.550   0.065   4.330 -0.0051 -0.1395 -0.2390
 2071W        W18545   5.738   7.328  12.662  0.0810 -0.0810 -0.0174
 2072W        W18546   2.729   9.955  10.508 -0.0251  0.5602 -0.0042
 2073W        W18547   1.479   1.040  11.456 -0.0908  0.2700 -0.1580
 2074W        W18548   0.921   5.801   9.634  0.1250 -0.4707  0.1124
 2075W        W18549  15.723  11.573   3.366 -0.1807  0.1950  0.0183
 2076W        W18550  13.065  17.530   3.307 -0.1845  0.1262  0.1744
 2077W        W18551   6.296  18.696   0.655  0.0739  0.0005 -0.0472
 2078W        W18552   7.518  17.370   5.567  0.0391  0.0986 -0.1178
 2079W        W18553   4.326  17.723   4.817  0.2609  0.0974  0.0525
 2080W        W18554  12.644   0.626  13.192  0.1200  0.2144  0.0276
 2081W        W18555  14.316  13.097  14.406  0.1253 -0.2384 -0.4938
 2082W        W18556   0.143  17.762   4.986 -0.1823  0.1635 -0.3795
 2083W        W18557  15.623   2.425  10.737 -0.3597  0.2563 -0.2076
 2084W        W18558   7.226  13.185   3.038  0.0151  0.1763 -0.0885
 2085W        W18559   5.784   1.585  14.238  0.0100 -0.2332 -0.2462
 2086W        W18560  13.053   3.518  14.858  0.0601 -0.0682 -0.6295
 2087W        W18561   5.907   9.086  15.111 -0.0461  0.1924  0.3082
 2088W        W18562   5.397  17.115   4.163  0.2342 -0.3720 -0.0487
 2089W        W18563   8.234  10.812   0.217  0.0469 -0.1191 -0.0492
 2090W        W18564  10.937   5.769   2.215  0.1599  0.3166  0.0414
 2091W        W18565  15.883   1.323   2.872 -0.1094  0.0814  0.1675
 2092W        W18566  17.033  16.778   5.672 -0.1081 -0.0963  0.2436
 2093W        W18567   8.969  12.382  14.142  0.0460  0.2200  0.4184
 2094W        W18568   4.730  16.505   3.373 -0.0523 -0.2347  0.0733
 2095W        W18569   5.661   2.603   0.926  0.7145  0.0946  0.3353
 2096W        W18570   4.947   8.952  15.117  0.0888  0.1000  0.0499
 2097W        W18571  12.764  14.631  15.117  0.1883 -0.4329 -0.0480
 2098W        W18572   1.715   2.794  13.043 -0.1012 -0.5362  0.0723
 2099W        W18573   4.457  17.133  14.883  0.1450 -0.0482 -0.2273
 2100W        W18574   1.576  17.709   1.905  0.0726 -0.0123  0.1402
 2101W        W18575  16.475  15.907   3.374  0.2686  0.0987  0.1162
 2102W        W18576   9.627  10.490   4.458 -0.0101 -0.2981 -0.0985
 2103W        W18577  18.715  10.383  11.302  0.0234  0.1407  0.0426
 2104W        W18578   8.861  15.354   0.952 -0.3177  0.0915 -0.0857
 2105W        W18579   8.124   2.487   4.240 -0.3356 -0.0896  0.0834
 2106W        W18580  12.441  15.885   4.280  0.0733  0.0045 -0.2953
 2107W        W18581  18.336  11.316   2.175  0.0063 -0.1180 -0.1419
 2108W        W18582  18.768   6.095   4.277  0.0801 -0.0202 -0.0058
 2109W        W18583   0.200  12.504  12.253 -0.0058  0.2170 -0.2950
 2110W        W18584   8.336   1.794   3.310 -0.0266  0.0149 -0.1348
 2111W        W18585   0.877  18.526  12.150  0.1676 -0.2893  0.2079
 2112W        W18586   6.234  12.983   4.195  0.2256  0.0572  0.0242
 2113W        W18587   2.618  15.601   4.744 -0.3489 -0.0827  0.2650
 2114W        W18588  18.583   4.663   1.310 -0.2987  0.2415 -0.0384
 2115W        W18589   6.427   3.861   0.870 -0.0653  0.1563 -0.1926
 2116W        W18590  17.531  11.994   0.480 -0.2373  0.2322  0.1589
 2117W        W18591   7.956   8.100   4.415  0.3785 -0.0130 -0.1829
 2118W        W18592  11.079  17.278   1.505  0.2045 -0.1791  0.0223
 2119W        W18593  11.096   1.952   3.215 -0.0424 -0.0348  0.4310
 2120W        W18594  15.548  14.538  11.105  0.2509 -0.2583 -0.1671
 2121W        W18595   6.010  17.211  10.738  0.2840  0.2415 -0.3878
 2122W        W18596  11.655   6.525   4.948 -0.0028  0.0334 -0.0390
 2123W        W18597   4.789   1.038  15.073 -0.0136  0.2125 -0.1346
 2124W        W18598  15.024   1.149  15.000 -0.0612  0.1586 -0.1027
 2125W        W18599  15.586  17.373  11.628  0.1328 -0.1652 -0.0060
 2126W        W18600  17.389   7.353  11.607 -0.0852  0.1913  0.0744
 2127W        W18601   7.750   4.097  14.645 -0.2653 -0.2097 -0.3808
 2128W        W18602   0.973   7.263  13.024 -0.2956  0.0517  0.0368
 2129W        W18603   1.637   9.195  14.620 -0.2847  0.2120  0.1142
 2130W        W18604   9.272  16.733  13.424  0.1248 -0.2174 -0.3078
 2131W        W18605   4.857   3.120  14.748  0.2645  0.0357 -0.2092
 2132W        W18606   9.430   1.146  12.057 -0.2688 -0.4563  0.0615
 2133W        W18607  11.092  11.949  11.629  0.1954 -0.1141 -0.1881
 2134W        W18608  15.612   2.606  11.758 -0.2641 -0.0956 -0.2569
 2135W        W18609  11.062  14.975   0.496  0.0937  0.1702  0.0529
 2136W        W18610  10.533  13.243  13.835  0.2646 -0.0614 -0.2065
 2137W        W18611   8.367  17.689   2.998 -0.0342  0.0347  0.0367
 2138W        W18612   1.707  10.030  13.977 -0.2611  0.0726  0.0835
 2139W        W18613   1.300   7.958  11.927 -0.3171 -0.0778  0.1010
 2140W        W18614  17.856  15.621  14.918  0.0944  0.0430  0.1773
 2141W        W18615   0.948   3.901  14.795  0.1844 -0.3154 -0.0780
 2142W        W18616  12.415  16.774  14.837  0.2200  0.2376  0.4014
 2143W        W18617   5.729   3.002  11.766 -0.4507  0.1011 -0.0947
 2144W        W18618  15.461   3.993  14.750  0.0723 -0.2029 -0.0408
 2145W        W18619   7.455  15.914  15.128 -0.0909  0.0152  0.3397
 2146W        W18620  12.087   0.660  12.911  0.0492 -0.0154  0.1941
 2147W        W18621  17.413   2.494   3.047  0.1227 -0.1575 -0.0017
 2148W        W18622   4.693   1.672   1.520 -0.0824 -0.0230  0.0851
 2149W        W18623   5.143   2.813   1.127  0.1922 -0.2477 -0.2684
 2150W        W18624   4.596   9.997   3.878 -0.1719  0.0225  0.0639
 2151W        W18625   5.680   1.798  11.123  0.0588 -0.0489  0.0061
 2152W        W18626   2.989   7.081  11.359 -0.0055  0.2860  0.0212
 2153W        W18627   4.538   8.101  12.986 -0.0486 -0.2321  0.4752
 2154W        W18628   7.098  15.325  13.267 -0.0301 -0.2222 -0.1306
 2155W        W18629  14.581   3.914   0.937 -0.4887 -0.0037 -0.1473
 2156W        W18630   5.522  12.472  13.428  0.1494 -0.2494 -0.1143
 2157W        W18631   9.189   4.910   0.266  0.1392  0.2354  0.3165
 2158W        W18632  13.165   6.357  12.468  0.0820  0.1143 -0.0011
 2159W        W18633   7.294   9.785  13.633  0.2030 -0.1192 -0.2278
 2160W        W18634  16.922   2.127   1.900 -0.1444 -0.0885 -0.3692
 2161W        W18635  18.229  11.026  11.844  0.2026 -0.1461 -0.0291
 2162W        W18636   2.672  14.393   3.209 -0.0250 -0.1366 -0.0675
 2163W        W18637   5.459   4.246   3.668  0.0635  0.1991  0.1679
 2164W        W18638  18.318  16.926   4.679  0.3334 -0.2038 -0.2020
 2165W        W18639  17.634   6.258   4.773  0.0705 -0.0125  0.0604
 2166W        W18640   8.029  17.039  14.360 -0.1824  0.0526 -0.2548
 2167W        W18641  15.759   8.950   9.440  0.0981 -0.0706  0.1420
 2168W        W18642  12.498   6.711   2.672  0.0720  0.3189  0.1209
 2169W        W18643  16.182   0.297   1.782  0.1305 -0.0392 -0.0966
 2170W        W18644   9.001   7.579  11.991 -0.0207 -0.0307  0.0724
 2171W        W18645  10.907   8.881  11.594  0.0186 -0.4081 -0.0628
 2172W        W18646   4.408   8.071   4.253  0.0895 -0.0078 -0.1784
 2173W        W18647  13.806  12.481   0.976 -0.0912 -0.1342 -0.0685
 2174W        W18648   6.308   4.222   3.046 -0.3881 -0.2413 -0.0781
 2175W        W18649  15.472   1.777   4.623 -0.0631 -0.0210  0.1998
 2176W        W18650   6.000  15.903  12.960 -0.0084  0.0382  0.2483
 2177W        W18651  16.120  10.965  14.874 -0.0436 -0.0122  0.3768
 2178W        W18652   6.029   2.266  12.668 -0.1052  0.0364  0.2524
 2179W        W18653   9.255  18.013  15.090  0.0347 -0.1066 -0.1319
 2180W        W18654  12.275  16.230   2.100 -0.0626  0.0354  0.1810
 2181W        W18655  11.928  15.857  14.500 -0.0991  0.2530  0.2018
 2182W        W18656   1.233  10.822  12.525 -0.3258 -0.2450  0.4577
 2183W        W18657  19.038  15.202   0.731  0.2043  0.0559  0.0654
 2184W        W18658  15.476   6.482  14.427 -0.1332 -0.0730  0.0396
 2185W        W18659  18.344   7.712   3.513  0.1114 -0.0965 -0.0702
 2186W        W18660   1.163   0.908   5.429 -0.1830 -0.2487  0.0410
 2187W        W18661   9.739   8.878  10.807 -0.3243  0.0140 -0.0141
 2188W        W18662   9.184  10.279   4.201  0.0612 -0.2216  0.1259
 2189W        W18663  19.012   9.785  12.721 -0.1118 -0.3681  0.3956
 2190W        W18664   9.011  15.221  13.356  0.1676 -0.3580 -0.1547
 2191W        W18665   8.690   5.047   0.228  0.1204 -0.2699 -0.1572
 2192W        W18666   1.756  16.896   9.973  0.0461  0.1672 -0.2672
 2193W        W18667   7.668   9.024  11.705 -0.1620 -0.0272  0.0754
 2194W        W18668  17.156  17.840   4.275 -0.1345 -0.0028 -0.1492
 2195W        W18669  15.620  15.988   4.217  0.3083 -0.1410  0.1629
 2196W        W18670   3.589  18.365   3.876  0.1078 -0.2049 -0.1906
 2197W        W18671   9.287   6.864   4.867 -0.0514  0.0843  0.0373
 2198W        W18672   4.489   2.902  15.067  0.0467  0.1084 -0.1412
 2199W        W18673  10.411   8.832   5.389 -0.2671 -0.4099  0.0503
 2200W        W18674   8.392  16.628  14.376 -0.2730  0.0390 -0.2008
 2201W        W18675  10.354  18.133   2.339 -0.0362  0.0340  0.0501
 2202W        W18676   7.499  14.461  14.308  0.4911 -0.2422 -0.2298
 2203W        W18677  16.473  12.210   2.851 -0.0347 -0.1695  0.0085
 2204W        W18678   6.265   9.903  10.466  0.0705 -0.2562 -0.2097
 2205W        W18679  14.944  14.092  15.126  0.1689 -0.0520  0.0669
 2206W        W18680   1.846  14.710   1.872  0.2528 -0.2035 -0.3347
 2207W        W18681  12.762   4.549   3.907 -0.0755  0.0877  0.1492
 2208W        W18682  13.079  12.102   4.834  0.0066 -0.0070  0.0900
 2209W        W18683   1.581   6.975   2.920  0.1710  0.0505 -0.1335
 2210W        W18684  11.005   4.540  14.536  0.0019 -0.4467 -0.3277
 2211W        W18685   2.924   6.493   0.914  0.1372  0.1799  0.1745
 2212W        W18686   6.381  18.621  14.751  0.3436  0.2118  0.0352
 2213W        W18687  15.538   3.828  13.875 -0.2608  0.3484 -0.0082
 2214W        W18688  13.619   4.439   2.034 -0.0238 -0.2619 -0.1414
 2215W        W18689  14.629   4.516   0.081  0.1318  0.1571  0.3209
 2216W        W18690  14.488   4.595   5.230 -0.1569 -0.0434  0.2087
 2217W        W18691   8.363   3.548   2.613 -0.0149 -0.4195 -0.2211
 2218W        W18692   0.181  11.537   4.466  0.1505  0.3491 -0.1669
 2219W        W18693   9.499   3.042  10.998  0.1518  0.0131 -0.1465
 2220W        W18694  18.475   0.929  14.270 -0.3130 -0.0139 -0.1358
 2221W        W18695  18.453  16.825   2.682  0.3014 -0.0375  0.1746
 2222W        W18696   7.394  11.258  13.015  0.0155  0.1910  0.0034
 2223W        W18697  17.144   1.603   1.206 -0.0683 -0.0250 -0.2956
 2224W        W18698   7.858   4.139   3.315  0.0828  0.1255  0.0993
 2225W        W18699  15.021  17.623  13.671  0.0732 -0.0163  0.0403
 2226W        W18700   9.672  15.119  15.132  0.2691  0.1038 -0.0423
 2227W        W18701   1.796   0.414   4.528  0.0728  0.0694 -0.1055
 2228W        W18702   8.847   7.120   4.530  0.0201  0.4168 -0.1638
 2229W        W18703  13.662   1.394  12.285 -0.5447 -0.0787  0.3017
 2230W        W18704   8.504   6.525  14.185 -0.5595 -0.2651 -0.1871
 2231W        W18705  18.601   6.783  12.401  0.0639  0.1338  0.2623
 2232W        W18706  10.896   0.703   0.657 -0.1515 -0.0405 -0.0961
 2233W        W18707   6.585   4.480   1.729 -0.1669  0.2707 -0.2662
 2234W        W18708  13.727   7.320  13.250  0.2138  0.1122  0.0215
 2235W        W18709   1.770   3.246  15.147 -0.1680  0.1077  0.3571
 2236W        W18710   5.557   1.026  12.610 -0.2170  0.0447 -0.0530
 2237W        W18711   7.721  12.897  12.019  0.2163  0.0883  0.1650
 2238W        W18712   7.401  17.025  10.032 -0.2511 -0.1250  0.2167
 2239W        W18713   0.206  18.249   0.780  0.2078  0.1336 -0.0376
 2240W        W18714   8.684   6.296   2.765 -0.5231  0.2180 -0.0614
 2241W        W18715  15.814   9.637  14.927  0.0765  0.1286 -0.2293
 2242W        W18716  12.948  10.030  12.788  0.3218 -0.0835  0.2102
 2243W        W18717   2.139   2.054   1.242  0.2314 -0.0673  0.1914
 2244W        W18718  10.564  10.559   1.872  0.2180 -0.3024  0.0836
 2245W        W18719   0.832  13.359   2.666 -0.3997  0.0133 -0.1833
 2246W        W18720   6.265   9.641  13.099 -0.0110  0.0141  0.0864
 2247W        W18721  16.234  18.863  12.437 -0.4074  0.0841  0.0488
 2248W        W18722   2.607   3.793   0.909  0.0365  0.2125  0.4887
 2249W        W18723  13.469  17.948   4.664 -0.2077 -0.1236  0.0122
 2250W        W18724   0.573   4.922  14.785 -0.0665  0.2280  0.1729
 2251W        W18725  10.856   6.689   1.310 -0.3055  0.1465  0.1101
 2252W        W18726  13.237   3.700   4.967 -0.0408 -0.1242 -0.1004
 2253W        W18727  14.270   8.252  10.938  0.2543  0.3785 -0.0785
 2254W        W18728  15.283   8.405  14.936 -0.1105 -0.0897  0.0601
 2255W        W18729   1.479  14.569  14.651  0.0334  0.0232 -0.0155
 2256W        W18730  17.259  11.348   2.434 -0.1056  0.1681 -0.0988
 2257W        W18731  11.495  16.157   2.147 -0.2279  0.0107 -0.0573
 2258W        W18732  18.520  12.371  12.207 -0.0815 -0.0645 -0.0848
 2259W        W18733  18.514  18.070   4.912 -0.1795  0.0161 -0.2208
 2260W        W18734  12.264  18.004  12.882 -0.2662 -0.0272 -0.2701
 2261W        W18735  18.892  18.353   0.736  0.1738 -0.0248  0.1322
 2262W        W18736  10.148  16.951  14.628  0.0605  0.1903 -0.0700
 2263W        W18737   1.517   1.492   2.795  0.2436 -0.0470  0.3236
 2264W        W18738   6.289   1.827  14.174  0.0095 -0.1898 -0.2765
 2265W        W18739  11.681   0.917  14.239  0.0185  0.1037 -0.1171
 2266W        W18740  12.200  10.237  11.583  0.0775  0.0219 -0.0959
 2267W        W18741  10.989  11.100   1.031 -0.0147 -0.0319  0.0805
 2268W        W18742  14.530  12.904   0.595 -0.0274 -0.0098 -0.1057
 2269W        W18743  17.250  10.933  11.706 -0.1854  0.1708 -0.2497
 2270W        W18744  15.520   7.227   0.935 -0.2790  0.0167  0.2789
 2271W        W18745   3.096   7.159   1.919  0.0095  0.0758 -0.0897
 2272W        W18746   4.894  14.028   4.571  0.0498 -0.3199 -0.0622
 2273W        W18747  13.300   8.577   0.356  0.5069  0.0652 -0.0902
 2274W        W18748  18.095  11.452   1.446  0.1183 -0.2650  0.2616
 2275W        W18749   6.701  16.507  13.651 -0.4624 -0.0259  0.2174
 2276W        W18750   6.695  17.446   1.150 -0.1568  0.1546 -0.0442
 2277W        W18751  11.569  15.786  11.856 -0.1237 -0.1312 -0.1683
 2278W        W18752   9.521  16.724  10.698  0.0386 -0.1851 -0.3362
 2279W        W18753   6.786   3.227  10.927  0.3164 -0.1344  0.2103
 2280W        W18754   6.250   6.009  12.567  0.1882  0.0034  0.1961
 2281W        W18755  18.270  19.153  11.681  0.3128  0.0088 -0.0503
 2282W        W18756  11.773   3.772   0.289  0.2005 -0.1149 -0.1779
 2283W        W18757   0.233   1.604   4.466  0.4331 -0.1008  0.1168
 2284W        W18758   4.858  11.421  12.416 -0.0127 -0.0246  0.1691
 2285W        W18759   8.205  17.279  13.520  0.0195 -0.0020 -0.2038
 2286W        W18760   7.053  18.265   4.926  0.3421  0.2595  0.1422
 2287W        W18761  16.942  17.752  11.086 -0.1445  0.0418 -0.3377
 2288W        W18762  19.118   6.117   0.371 -0.3504 -0.0086 -0.3459
 2289W        W18763   1.869  18.276   4.139 -0.1878 -0.1788  0.0336
 2290W        W18764   4.774   1.945  13.869  0.0560 -0.0231 -0.0440
 2291W        W18765   7.658   9.009   4.056  0.0782  0.1392 -0.1873
 2292W        W18766   6.317  15.828  10.759 -0.4030  0.0498  0.1693
 2293W        W18767   5.954  13.903   2.026 -0.1519  0.0908  0.0326
 2294W        W18768   8.886  16.356   0.062  0.0023 -0.3486 -0.1454
 2295W        W18769   2.590  17.307  14.787  0.0760  0.3899  0.0352
 2296W        W18770  17.347   5.108   4.108 -0.0950 -0.2107  0.2110
 2297W        W18771   7.273   1.075   1.678 -0.0485 -0.2279 -0.2594
 2298W        W18772  11.426   8.560  12.803 -0.0417  0.2213 -0.1995
 2299W        W18773   5.284   7.837   0.452  0.1434  0.0395  0.1842
 2300W        W18774   4.220   9.828   0.210 -0.1392 -0.1646  0.1951
 2301W        W18775   4.870   8.166   2.840  0.0532 -0.2243  0.0451
 2302W        W18776   2.876   1.082   1.061  0.2563  0.1827 -0.2688
 2303W        W18777   9.711   4.907  12.057 -0.0819 -0.2519 -0.0509
 2304W        W18778   6.183   8.953   1.734 -0.1478  0.0468 -0.1548
 2305W        W18779   4.822   4.789  14.837  0.1377 -0.0055  0.1282
 2306W        W18780  16.927   4.112   9.940  0.0374 -0.0349 -0.0482
 2307W        W18781  12.836   5.332   4.261  0.1452  0.1503  0.0830
 2308W        W18782  12.147  16.661   3.976  0.1238 -0.3251 -0.1129
 2309W        W18783  13.195  10.269  14.271 -0.3776 -0.0660  0.0774
 2310W        W18784  15.224   3.940  14.331 -0.2405  0.0366  0.0363
 2311W        W18785  13.424  17.847   3.515 -0.3726  0.1119 -0.1731
 2312W        W18786  10.593   0.088  11.351  0.0061  0.0703 -0.0763
 2313W        W18787  19.088   9.561  15.042  0.0754  0.1237  0.0256
 2314W        W18788   3.180  17.771  12.950  0.3840  0.1871 -0.0522
 2315W        W18789   2.957   4.837  13.973  0.1666 -0.1055 -0.2935
 2316W        W18790  12.057  17.084  13.116 -0.0778  0.0866 -0.2280
 2317W        W18791  17.058  11.530  14.792 -0.0117  0.2022  0.3342
 2318W        W18792  16.123   6.286   1.057  0.4924  0.1888 -0.0759
 2319W        W18793  17.486  14.824   1.460 -0.0190  0.1391  0.2298
 2320W        W18794  16.817   9.702   1.667 -0.0199  0.0595  0.1964
 2321W        W18795   9.630  18.664   0.540  0.0720  0.1500 -0.2763
 2322W        W18796   9.865  13.250  14.566  0.0249 -0.0244 -0.1060
 2323W        W18797   2.486  10.398  12.990 -0.1489  0.0452 -0.2135
 2324W        W18798  11.573   7.989  11.683 -0.0069  0.0080 -0.1131
 2325W        W18799   5.449  16.674  14.265 -0.0647  0.0112 -0.0673
 2326W        W18800  11.645  13.012   0.786 -0.1953 -0.0404 -0.3579
 2327W        W18801   1.083   5.475   3.555  0.1811 -0.2442 -0.1529
 2328W        W18802  16.236  12.883   3.989  0.0136  0.2065  0.2132
 2329W        W18803   9.200  10.314   2.793 -0.3394 -0.2391  0.3629
 2330W        W18804  16.772   6.723   4.140  0.1156  0.0439  0.2025
 2331W        W18805   1.233  16.673   4.811  0.0313  0.2989 -0.0987
 2332W        W18806   1.688   6.430  10.755 -0.0457  0.1292  0.1845
 2333W        W18807   8.531   9.882   2.162  0.0280 -0.3012  0.0153
 2334W        W18808   6.949  18.681   5.657 -0.0421 -0.3918 -0.0114
 2335W        W18809   7.384  10.840   0.360  0.0976 -0.1354  0.4031
 2336W        W18810  12.702  11.444  11.519  0.1599 -0.0235 -0.2665
 2337W        W18811   7.793   7.482  11.931  0.1013 -0.4247 -0.0253
 2338W        W18812  14.779   5.890  11.370 -0.1377  0.0156  0.0825
 2339W        W18813   8.421  11.187   1.219 -0.0741  0.1298  0.2457
 2340W        W18814  18.496  12.683  12.728 -0.1452  0.2845 -0.3083
 2341W        W18815  19.062  10.783   9.624 -0.0877 -0.0080  0.2611
 2342W        W18816   1.321  10.093   3.061  0.0496 -0.0614 -0.1814
 2343W        W18817   3.454   0.423  11.076 -0.3622 -0.0086 -0.1770
 2344W        W18818  16.621  12.929   1.157 -0.3074  0.0034 -0.1998
 2345W        W18819  15.543   8.651   3.281 -0.2097 -0.2956 -0.0520
 2346W        W18820   3.865  12.784   4.714 -0.3086  0.0178 -0.2154
 2347W        W18821  11.781  14.368   2.553  0.0734 -0.0549  0.0557
 2348W        W18822   8.328  18.781   4.471  0.2473  0.1835  0.3015
 2349W        W18823   9.770   1.875   3.270 -0.0345 -0.1849 -0.0997
 2350W        W18824  17.538  13.934   1.301  0.1924 -0.2818  0.0013
 2351W        W18825  10.168  12.712   5.817 -0.0528 -0.1896  0.0762
 2352W        W18826   3.079   8.431   5.759 -0.0573  0.1624  0.0395
 2353W        W18827  10.444  16.784  12.489  0.1810 -0.2360 -0.0399
 2354W        W18828   1.798  12.218  13.943 -0.1875  0.1191  0.0197
 2355W        W18829   0.407  17.514  10.380 -0.1397  0.2177 -0.0449
 2356W        W18830  10.613  14.813  12.824 -0.0551 -0.2110  0.0628
 2357W        W18831  18.641  10.646   9.384 -0.1526  0.2209 -0.1876
 2358W        W18832  14.810  14.670  12.983  0.2090 -0.3486 -0.0124
 2359W        W18833  10.584  16.376  11.745 -0.0512 -0.0729 -0.0910
 2360W        W18834  12.035  12.899   1.771 -0.3293 -0.1364  0.1158
 2361W        W18835  13.396   4.713   1.101 -0.0494 -0.3004  0.0239
 2362W        W18836  13.032   7.366  10.913  0.1861 -0.0476  0.1133
 2363W        W18837  18.078   2.204   5.352  0.0316  0.3043  0.0657
 2364W        W18838  10.967  12.717  11.972  0.0733  0.0798  0.3750
 2365W        W18839   9.185  14.747  13.286  0.3524  0.1097 -0.2545
 2366W        W18840   9.212  12.008   3.038 -0.1822 -0.2599  0.2655
 2367W        W18841   2.961   8.963  14.169  0.0664  0.0251 -0.2897
 2368W        W18842   0.393   2.165   3.773  0.1209 -0.0848  0.0807
 2369W        W18843  18.732   9.476  11.887  0.0007 -0.1887 -0.1895
 2370W        W18844   9.125   5.269  15.100  0.1284  0.0016 -0.0276
 2371W        W18845  13.867  11.498  12.200 -0.0390  0.1491  0.1695
 2372W        W18846  12.520   1.277   0.520  0.0693 -0.5701 -0.2333
 2373W        W18847  17.843   0.301   4.133 -0.0003  0.0317 -0.0468
 2374W        W18848   0.289   6.492  11.390  0.0609  0.0038  0.1854
 2375W        W18849   2.429  13.067   4.457 -0.0844 -0.0411  0.2734
 2376W        W18850   1.862   5.722  10.767  0.3503  0.1126 -0.2303
 2377W        W18851  14.259  12.411  13.685  0.0302  0.0777 -0.1611
 2378W        W18852  13.183  17.247  11.500 -0.0694  0.4211 -0.0136
 2379W        W18853   4.541  16.062  10.021  0.0233 -0.0126 -0.5474
 2380W        W18854  13.250   5.922  14.870 -0.1552 -0.1620  0.1208
 2381W        W18855   0.620  14.032   1.881 -0.1442 -0.0689  0.1074
 2382W        W18856  17.590   8.733   2.251  0.1778 -0.0102  0.4449
 2383W        W18857  12.524  12.827   1.995 -0.2231 -0.0948 -0.0630
 2384W        W18858   6.320  13.961  13.596  0.2227 -0.0985  0.0885
 2385W        W18859  18.884   6.392  15.084 -0.2790 -0.1830 -0.1150
 2386W        W18860  17.190  13.601  14.983  0.0624 -0.1184 -0.0868
 2387W        W18861   7.293  15.268   5.427 -0.0972  0.2614  0.2011
 2388W        W18862   2.491   0.104   6.199 -0.1218 -0.3025 -0.0081
 2389W        W18863  12.898   0.643  10.876  0.0545 -0.0002  0.0878
 2390W        W18864   7.393  13.407   1.182 -0.0345 -0.0023 -0.2067
 2391W        W18865  17.273   0.193   3.964  0.1558  0.0451 -0.2707
 2392W        W18866   4.375   3.655   4.969 -0.0386 -0.3429 -0.0831
 2393W        W18867   5.373   4.903  13.893 -0.0013  0.1734  0.2554
 2394W        W18868  17.941  13.550  12.480 -0.1375 -0.2528  0.3355
 2395W        W18869   7.296   3.998   3.889 -0.0647 -0.4545  0.0697
 2396W        W18870   3.831  11.927   2.760 -0.2255 -0.0182 -0.2855
 2397W        W18871   8.954   3.591   2.125  0.0689  0.1123 -0.0393
 2398W        W18872  10.055  11.411   5.005  0.0663 -0.4251 -0.2341
 2399W        W18873  17.768   9.310   4.083  0.0773  0.3026  0.0207
 2400W        W18874   8.378   3.352  12.562 -0.1819  0.1522 -0.0487
 2401W        W18875   2.249   2.105   6.151  0.0864  0.1697  0.1396
 2402W        W18876  12.251   3.882  12.503  0.1066 -0.0027  0.0828
 2403W        W18877   6.025   1.355   0.345  0.1273  0.0487  0.5298
 2404W        W18878   6.385  11.661   2.470  0.2689  0.0041 -0.1922
 2405W        W18879  18.430  10.822  10.381  0.0671  0.6933 -0.1530
 2406W        W18880   5.009   7.014   4.604  0.1905  0.0424  0.0673
 2407W        W18881   1.899   8.318  11.984  0.0146 -0.2286 -0.1421
 2408W        W18882   8.749  17.855  14.511 -0.5145  0.3167  0.1901
 2409W        W18883   4.884  15.469  11.811 -0.3516  0.0383  0.1751
 2410W        W18884   2.250   0.301  11.915  0.2091 -0.0383 -0.1313
 2411W        W18885   2.911  15.954  12.658 -0.1239  0.1951 -0.1324
 2412W        W18886   0.655   6.162   0.456 -0.1138 -0.1728  0.3135
 2413W        W18887  18.929   9.161   0.403  0.0843  0.3813  0.0301
 2414W        W18888   4.747   1.067   4.971  0.1618 -0.0184 -0.0601
 2415W        W18889  11.078   4.338   2.302  0.1626  0.0591 -0.0826
 2416W        W18890  11.580   5.968   3.321  0.1271 -0.0308  0.2170
 2417W        W18891  11.311   3.471   2.578 -0.0121 -0.0719  0.3441
 2418W        W18892  14.517   4.412  13.807 -0.0707  0.0980  0.0922
 2419W        W18893   2.411   3.204   5.599 -0.4917 -0.2181 -0.1232
 2420W        W18894  17.880   0.434  13.429  0.2879  0.1282 -0.2062
 2421W        W18895   2.932  17.885  13.628  0.2413  0.2082  0.0437
 2422W        W18896   8.841  16.861   3.222  0.0779 -0.0426 -0.0189
 2423W        W18897  11.460  13.502   5.151 -0.0119  0.1989  0.0815
 2424W        W18898   7.890   8.836   2.873 -0.0809  0.0723  0.1429
 2425W        W18899  17.159   7.418   2.648 -0.1234  0.0428  0.0379
 2426W        W18900   7.864   8.608  13.257  0.2460  0.0681  0.0364
 2427W        W18901   7.097  15.202   3.099  0.1362 -0.2721  0.1517
 2428W        W18902   2.793  18.528   3.679  0.1320 -0.2217 -0.2671
 2429W        W18903  17.219   9.091   3.189 -0.0616 -0.1615 -0.2321
 2430W        W18904  12.197  16.134   1.177 -0.0726 -0.1148 -0.1187
 2431W        W18905   3.689   7.216   1.102 -0.0880  0.0603 -0.0727
 2432W        W18906   8.545   6.155   4.148  0.1953 -0.0811  0.0753
 2433W        W18907   7.289   5.318   4.077 -0.0479 -0.2858 -0.0449
 2434W        W18908   0.219  12.867   3.236  0.0510  0.0482  0.0284
 2435W        W18909   7.287   9.598  12.021  0.2623  0.3054 -0.0425
 2436W        W18910  10.712  15.963   3.648 -0.0869 -0.0152  0.1763
 2437W        W18911  11.368  17.158   2.920  0.2256  0.0511 -0.1071
 2438W        W18912  14.437  18.813  13.492 -0.0948  0.0193  0.1431
 2439W        W18913   9.249  10.718  13.117 -0.1250 -0.2113  0.1291
 2440W        W18914  15.838   3.101   2.933 -0.0621 -0.0333  0.2490
 2441W        W18915   2.844   6.319   1.791 -0.2208 -0.1567  0.1295
 2442W        W18916  13.656   7.051   2.043  0.1474  0.2777 -0.0910
 2443W        W18917   5.919   7.648  11.791 -0.2539  0.0479 -0.0340
 2444W        W18918   1.692   9.362   2.812 -0.1527 -0.1030  0.1647
 2445W        W18919  11.135   8.977   3.586  0.3659 -0.0597 -0.0452
 2446W        W18920  11.451   0.475  13.901 -0.1815 -0.1426 -0.1139
 2447W        W18921  17.126   3.833  14.603  0.2597  0.0011 -0.1492
 2448W        W18922   2.649  13.947  13.636 -0.0890 -0.3460 -0.1996
 2449W        W18923   5.718   6.529   4.868  0.1796 -0.3287 -0.1793
 2450W        W18924   5.447   9.567   3.883  0.0413 -0.0773 -0.1735
 2451W        W18925  14.857   4.418   5.547  0.2842  0.0831 -0.1792
 2452W        W18926  11.982   2.089  13.536  0.0527  0.1108  0.2855
 2453W        W18927   9.828  10.775   3.566  0.0157  0.3214 -0.1094
 2454W        W18928  13.849   3.737  14.605 -0.0016  0.0805 -0.1764
 2455W        W18929  18.905   4.259   1.920  0.3065  0.0927  0.1370
 2456W        W18930  13.522  17.056   5.358  0.1240 -0.0195  0.1096
 2457W        W18931  12.333  10.093   1.092  0.0116 -0.0684 -0.1948
 2458W        W18932   2.162   8.440   3.771 -0.0817 -0.0148 -0.1344
 2459W        W18933  17.592   0.661  14.268 -0.0357  0.0883 -0.4793
 2460W        W18934   9.711  17.774  14.915 -0.0560 -0.0026  0.4158
 2461W        W18935   5.411  14.344  13.669  0.0262 -0.2410  0.2026
 2462W        W18936  14.030  14.627   2.640  0.3420 -0.5654  0.3093
 2463W        W18937   8.598  17.986   1.715  0.0628  0.0827  0.1245
 2464W        W18938  16.740   5.130  13.010 -0.0581 -0.1452  0.1225
 2465W        W18939  18.312  16.914   9.822 -0.1571  0.3512  0.4127
 2466W        W18940   8.569   2.117   2.645  0.1878 -0.0861 -0.0716
 2467W        W18941   6.771   3.075  12.698  0.0140  0.2227 -0.2742
 2468W        W18942  16.211   0.108   2.318  0.1009  0.0717  0.2727
 2469W        W18943   2.497  18.515  14.687 -0.1808  0.2390  0.4291
 2470W        W18944   2.811  10.636   0.899  0.0317 -0.0882 -0.2232
 2471W        W18945   0.298  16.573   3.448  0.4744 -0.1922  0.3032
 2472W        W18946  12.474  11.402   2.562 -0.0553 -0.0672  0.1288
 2473W        W18947   7.351   9.417  12.467  0.1227 -0.0468  0.1574
 2474W        W18948  16.911   1.855   0.534 -0.0877 -0.0006 -0.3425
 2475W        W18949  10.358  16.135  14.484  0.0716  0.1505  0.1206
 2476W        W18950  13.521   8.924  14.368  0.0826 -0.2183 -0.2443
 2477W        W18951  16.093   2.114  11.136 -0.3294 -0.1967  0.0324
 2478W        W18952   8.575  12.767  11.596  0.1059 -0.5350  0.3693
 2479W        W18953  11.263  17.629  14.123 -0.1956 -0.2012 -0.1655
 2480W        W18954   3.771   8.070  13.626  0.1984  0.0475 -0.0884
 2481W        W18955  17.151   8.648  10.640 -0.0731  0.3960  0.0093
 2482W        W18956   0.218  11.734   0.265 -0.0898  0.0584  0.1255
 2483W        W18957  15.983   8.111   3.897 -0.2161 -0.0883 -0.2143
 2484W        W18958   0.632  13.541   1.817 -0.0163  0.1955  0.0781
 2485W        W18959  12.754   3.969   3.775 -0.2007 -0.0213 -0.2330
 2486W        W18960   8.694  17.597   5.289  0.0749 -0.0092 -0.3094
 2487W        W18961   3.200   1.771   1.573  0.1578  0.1785  0.0502
 2488W        W18962   6.517  14.056   3.577 -0.1317 -0.1725  0.0546
 2489W        W18963  13.368  17.533   1.658 -0.0992 -0.1844  0.1232
 2490W        W18964  17.461   6.097  10.836  0.2036  0.0439 -0.0367
 2491W        W18965   5.795  18.246   2.644  0.0951  0.0070  0.0910
 2492W        W18966  10.691   8.181  10.664 -0.0328  0.0418  0.0707
 2493W        W18967   0.199  16.851  11.013  0.3238 -0.2660 -0.1676
 2494W        W18968  12.030  13.055  11.838  0.4479  0.0731  0.1082
 2495W        W18969   1.158  18.001   9.836 -0.1702  0.0133  0.0167
 2496W        W18970  10.590  13.557  14.303 -0.3422 -0.0565 -0.1002
 2497W        W18971   1.345   5.721   0.457  0.2419 -0.4062 -0.0023
 2498W        W18972  16.924   9.025  10.462 -0.0616  0.0886 -0.1836
 2499W        W18973   9.957  17.777   5.453 -0.2124 -0.0022 -0.0323
 2500W        W18974  10.061  11.051  14.464  0.0732  0.0662  0.1567
 2501W        W18975  11.299  10.103  11.328  0.1977  0.2797  0.1499
 2502W        W18976  13.118  14.326  14.309 -0.1704  0.0318 -0.0877
 2503W        W18977   0.993  16.671   3.352 -0.0712 -0.2424  0.3458
 2504W        W18978   3.381   7.245  14.684 -0.1169 -0.0166  0.3097
 2505W        W18979  18.440   4.259  14.869  0.0488 -0.0573  0.3360
 2506W        W18980   0.208   1.513  14.474 -0.0317  0.2026  0.0373
 2507W        W18981   9.006   8.704   1.682  0.2266  0.1636  0.0924
 2508W        W18982  11.019   6.579   3.628 -0.1033 -0.2099 -0.0768
 2509W        W18983   1.730   7.275  10.057  0.1068  0.1735 -0.1629
 2510W        W18984  17.170   4.921  13.155  0.0656  0.1284 -0.0050
 2511W        W18985   0.626   3.919  10.440  0.0061  0.1415 -0.2811
 2512W        W18986   0.426   5.924   4.611 -0.2255 -0.1946 -0.3056
 2513W        W18987  17.608  18.247  10.926  0.0170 -0.1021  0.0468
 2514W        W18988   2.523   8.575   4.522  0.1475 -0.3081 -0.0869
 2515W        W18989   1.082   6.923   3.755  0.3239  0.4086 -0.0112
 2516W        W18990  19.029  17.768   2.489  0.2781  0.3056  0.0979
 2517W        W18991  16.643  18.399  13.491  0.0697 -0.0986 -0.1152
 2518W        W18992   0.034   8.443   4.337  0.1326 -0.2183  0.1542
 2519W        W18993   2.242  10.075  12.667  0.0008  0.1134 -0.1674
 2520W        W18994   3.932  14.473   9.452  0.3635  0.1675 -0.0763
 2521W        W18995   3.215  17.334   4.663  0.0301 -0.2361  0.2938
 2522W        W18996  13.441   6.748  11.563 -0.3494  0.0044  0.1394
 2523W        W18997  18.021   7.166  13.329 -0.2604 -0.0867  0.1410
 2524W        W18998  13.943   1.724  14.150  0.4394  0.1892 -0.2434
 2525W        W18999  18.550   8.161  11.877 -0.0533 -0.1400  0.0507
 2526W        W19000   6.653   7.143   1.208  0.3878  0.1369  0.0633
 2527W        W19001  11.120  15.624   3.867 -0.0457 -0.2401  0.0194
 2528W        W19002  17.225   3.755  11.962 -0.0320 -0.0314  0.1640
 2529W        W19003   9.775   4.571  10.408  0.2159  0.0885 -0.1741
 2530W        W19004  13.700   6.892   3.895  0.0257 -0.0642 -0.0564
 2531W        W19005   6.716  16.009   4.013  0.1536 -0.0499  0.3003
 2532W        W19006   5.090   3.144  10.993 -0.1527  0.1944  0.1054
 2533W        W19007  11.144   5.302  10.242 -0.1715  0.0990  0.3785
 2534W        W19008   4.359  17.690  11.579 -0.1599  0.4379  0.0574
 2535W        W19009  13.015   7.783   0.229  0.2628  0.0422 -0.4360
 2536W        W19010   2.740   4.340   0.422  0.1671  0.2808 -0.0971
 2537W        W19011   4.637  14.297   3.239 -0.1766  0.0833 -0.1456
 2538W        W19012  16.473  11.393  11.844  0.1174  0.0389  0.2538
 2539W        W19013   4.695   4.217   0.505  0.2275 -0.0974  0.0717
 2540W        W19014   9.146   1.022   9.226 -0.1315 -0.2525  0.2145
 2541W        W19015  18.630   3.390  14.921 -0.1434 -0.0024  0.2747
 2542W        W19016  18.460   4.068   4.158  0.1162  0.0816  0.0866
 2543W        W19017  17.907   6.216   0.899  0.0602  0.1169 -0.0766
 2544W        W19018  18.107   5.434   0.994 -0.0536  0.2572  0.1130
 2545W        W19019  12.534  12.609  11.095 -0.0486  0.1367 -0.2779
 2546W        W19020   0.999   8.070  11.562 -0.3507  0.2682  0.1005
 2547W        W19021  14.207   0.772   1.394  0.0365 -0.0962 -0.1097
 2548W        W19022   5.238   4.969  13.417 -0.0396 -0.1856  0.1179
 2549W        W19023  13.376  18.638  14.795 -0.4316  0.0561 -0.1616
 2550W        W19024  15.535   1.938  10.451  0.0757  0.0762  0.0456
 2551W        W19025  16.989  17.090   3.938  0.2746  0.1513 -0.1928
 2552W        W19026   4.025  15.328  14.348 -0.5010 -0.2785  0.2109
 2553W        W19027   9.824   9.819   1.074  0.0249 -0.2924  0.0411
 2554W        W19028   3.264   5.559  13.529  0.0799  0.2046 -0.2423
 2555W        W19029  10.431  18.433  14.946 -0.1625  0.2435 -0.4036
 2556W        W19030  12.598   8.308  11.766 -0.2837 -0.2799  0.1369
 2557W        W19031   6.123  10.144  12.363 -0.1774 -0.1485  0.1221
 2558W        W19032  10.224  12.995   4.070  0.0717 -0.1415 -0.0024
 2559W        W19033  16.322  12.808   0.708  0.0131  0.0080  0.5076
 2560W        W19034   0.150  11.926   2.247 -0.2150 -0.0934  0.0530
 2561W        W19035   0.163   9.435   0.448 -0.2250 -0.0484 -0.1561
 2562W        W19036  14.702   6.647  10.535 -0.1812 -0.1004  0.1957
 2563W        W19037  13.644  18.520   0.006 -0.0592 -0.0404 -0.0931
 2564W        W19038  12.673   0.491   1.026 -0.1361 -0.1004 -0.1919
 2565W        W19039  18.589   7.044  10.829  0.1185  0.2479  0.1655
 2566W        W19040  15.112  11.458   2.589 -0.2855  0.3171 -0.0587
 2567W        W19041   2.393   1.306  11.666 -0.0359 -0.0749  0.2177
 2568W        W19042   4.959  18.059  12.669 -0.0053 -0.0060 -0.2600
 2569W        W19043   3.733   1.422  13.269 -0.0297 -0.1483 -0.0138
 2570W        W19044   6.880  16.533   4.486 -0.1378  0.2271 -0.0587
 2571W        W19045  11.901  10.837  13.323  0.1408  0.0722  0.3585
 2572W        W19046   3.259  14.986   4.741 -0.0371 -0.0590 -0.0163
 2573W        W19047   6.852   6.424   4.535  0.2330  0.0605  0.2279
 2574W        W19048  18.563  13.891   2.497 -0.2536  0.1096  0.1670
 2575W        W19049  14.421   0.009  13.797  0.0158 -0.1125  0.4595
 2576W        W19050  14.403  12.783   4.612  0.0973 -0.3680  0.0357
 2577W        W19051   8.289  17.320   1.535  0.0458  0.1358  0.0939
 2578W        W19052  17.739   7.728  12.551 -0.0873 -0.1192 -0.0167
 2579W        W19053   6.485   9.593  11.607  0.1423  0.0036  0.1270
 2580W        W19054  15.713  18.956   0.045  0.1696 -0.1517 -0.1777
 2581W        W19055   5.885   5.945   9.897  0.2542 -0.3462  0.2965
 2582W        W19056   4.674   2.137  11.582  0.0235  0.0345  0.0257
 2583W        W19057   6.463  12.846  11.952  0.1175 -0.0513 -0.3575
 2584W        W19058   6.586   8.321   5.273  0.0466  0.3853  0.0995
 2585W        W19059   9.969   7.420   3.234 -0.0561  0.0561  0.2344
 2586W        W19060  10.249  11.163  11.840  0.3080  0.2245  0.1363
 2587W        W19061  15.947  14.969  10.929  0.1194 -0.0620 -0.0890
 2588W        W19062   4.128   9.786   2.965  0.0444  0.3914 -0.0208
 2589W        W19063   9.012   6.721  11.058 -0.3263 -0.0926  0.0771
 2590W        W19064  14.405   0.907   4.107  0.0776 -0.0103  0.2118
 2591W        W19065   4.967   1.794  14.294  0.1515  0.1334 -0.1109
 2592W        W19066   7.612   9.004   2.257  0.2034 -0.0712 -0.0693
 2593W        W19067  12.081   3.905  10.886  0.0035 -0.1575 -0.2210
 2594W        W19068   5.063  18.094   5.341 -0.2806  0.0942 -0.2691
 2595W        W19069   0.176   8.289  11.117  0.0257 -0.3710 -0.0706
 2596W        W19070  13.382  12.226  11.392 -0.4713  0.0634 -0.0402
 2597W        W19071  16.677   5.153   0.670  0.2972 -0.0290  0.0773
 2598W        W19072  16.252   7.452  10.577  0.3399  0.1941  0.0492
 2599W        W19073   6.067   1.091  12.471  0.0426  0.1803  0.0622
 2600W        W19074  15.017   3.117   2.465  0.0721 -0.0597  0.1922
 2601W        W19075   4.026   0.929  11.600 -0.1289  0.0464 -0.0942
 2602W        W19076  17.444   9.234   0.756  0.2203 -0.1148 -0.1349
 2603W        W19077   9.931   3.082  11.457 -0.1013 -0.1330 -0.0455
 2604W        W19078  11.057   2.265  10.993 -0.0521  0.0390  0.1198
 2605W        W19079   3.882   0.051   1.526 -0.3232  0.0576 -0.0860
 2606W        W19080   7.176  15.344  14.345  0.1891  0.0927 -0.0148
 2607W        W19081   1.504  12.030   3.348  0.1943 -0.2153  0.0787
 2608W        W19082   8.928  10.071   3.187 -0.4629  0.1188  0.0379
 2609W        W19083   9.557   3.988  13.792  0.1696 -0.1259 -0.3065
 2610W        W19084   9.240   0.085  10.511  0.3968 -0.2362 -0.0450
 2611W        W19085   7.035   4.715   2.396  0.1109  0.0907  0.2039
 2612W        W19086   6.421   8.231  11.386  0.0766 -0.2687  0.3215
 2613W        W19087  13.332  15.957   1.272  0.1986 -0.1167  0.0027
 2614W        W19088  15.443   5.392   2.243  0.1113 -0.1611 -0.1025
 2615W        W19089   5.317  16.524   2.040  0.1157 -0.3526  0.0068
 2616W        W19090  14.662  17.278   1.317  0.1409 -0.0535 -0.1475
 2617W        W19091   3.282  11.483  14.533  0.1203  0.0971  0.1910
 2618W        W19092  17.332  13.324   1.451 -0.2054  0.0474 -0.1391
 2619W        W19093   8.834   0.968   0.163 -0.0964  0.0081 -0.1263
 2620W        W19094   1.391   2.383   1.847  0.3022 -0.2059 -0.0097
 2621W        W19095  17.651   4.839   3.200  0.0079  0.3305 -0.0670
 2622W        W19096   5.896   6.026   2.585 -0.1712  0.1290  0.0295
 2623W        W19097  12.545  17.494   0.771  0.1417 -0.0343 -0.6026
 2624W        W19098   5.676  10.566   4.578 -0.1499  0.1988 -0.0118
 2625W        W19099  10.848   1.594  14.351 -0.0506 -0.3116  0.3284
 2626W        W19100   5.567   7.087   0.035  0.0767 -0.1080 -0.1043
 2627W        W19101   8.609  10.129  11.006 -0.1731 -0.3112  0.3149
 2628W        W19102   3.762   7.868   2.241 -0.0326  0.1708 -0.0495
 2629W        W19103   7.983   1.357   2.744  0.0744 -0.1371 -0.0281
 2630W        W19104  11.838  11.487  11.028 -0.1266  0.0164 -0.1884
 2631W        W19105   3.039   8.510   1.324  0.1549  0.0919  0.0061
 2632W        W19106  18.570  12.049   4.647 -0.1130 -0.1074  0.6153
 2633W        W19107   0.960  12.301   4.759 -0.2510  0.2350 -0.0957
 2634W        W19108   5.047   7.808   5.022  0.2744 -0.1182  0.1235
 2635W        W19109  19.027   7.080   3.276  0.0380  0.1735  0.0313
 2636W        W19110   0.764   9.036  14.012  0.2129  0.1957 -0.1444
 2637W        W19111   0.118   4.046  12.383  0.1318  0.1795 -0.0831
 2638W        W19112   7.153  11.920  10.539  0.4251  0.3963  0.0844
 2639W        W19113  17.302  17.649  10.618 -0.1759  0.2161  0.1644
 2640W        W19114   8.640  11.084   0.137  0.3454 -0.0663  0.2617
 2641W        W19115  18.180   3.118   5.627  0.1331 -0.2451  0.1197
 2642W        W19116  11.952   2.706  13.506  0.0443 -0.0820 -0.1231
 2643W        W19117  12.348   5.324  14.354 -0.1471 -0.4271 -0.4966
 2644W        W19118  13.550   9.687  12.271  0.0361  0.0477 -0.2367
 2645W        W19119  16.875   3.225   2.309 -0.2008 -0.1794  0.2545
 2646W        W19120   3.216  19.034  13.407  0.3364 -0.0121  0.0922
 2647W        W19121   7.514   3.427   4.734 -0.0989  0.0687 -0.0942
 2648W        W19122  15.795  18.084  11.361  0.1210 -0.1537  0.1328
 2649W        W19123   8.278   4.765  11.891 -0.0803  0.0505  0.3863
 2650W        W19124   4.085   0.192  14.340 -0.0572  0.0026 -0.0660
 2651W        W19125  16.076   7.470  14.240  0.0541  0.1913 -0.1125
 2652W        W19126   5.369   7.807   1.859 -0.2848  0.0319  0.1444
 2653W        W19127  17.390  12.114   9.533  0.0240 -0.1054 -0.0112
 2654W        W19128   2.978  16.187  10.815  0.0083  0.0711  0.2910
 2655W        W19129  10.310   8.861  14.957 -0.0229  0.2646 -0.0597
 2656W        W19130   2.922   8.146  10.180  0.0690  0.3443 -0.4196
 2657W        W19131   8.936  18.940   0.494  0.2055  0.0472  0.0608
 2658W        W19132  11.709   2.927   3.907 -0.0977  0.0695 -0.1631
 2659W        W19133   9.773   4.459  12.607 -0.1027 -0.3970 -0.0644
 2660W        W19134   1.943  15.033  13.782  0.1184  0.3244  0.1458
 2661W        W19135   8.674  18.986  12.789  0.1972  0.0383 -0.1376
 2662W        W19136   2.482  14.451  14.325  0.0170 -0.1199  0.1666
 2663W        W19137  12.812   2.438  14.852 -0.2841 -0.1440 -0.0617
 2664W        W19138   3.894  10.233   3.093 -0.1834  0.1029 -0.1113
 2665W        W19139  14.336  16.600   0.003 -0.2718 -0.1831  0.0552
 2666W        W19140   9.076  11.852  11.036  0.2270  0.2872  0.0097
 2667W        W19141   5.179   4.406  13.512 -0.1393 -0.1871 -0.0533
 2668W        W19142  12.150   8.791  12.526 -0.3554 -0.2489 -0.0692
 2669W        W19143   7.079  16.035   4.458  0.0749  0.0509  0.2407
 2670W        W19144   1.244   3.856  14.059  0.4903  0.1641  0.2545
 2671W        W19145   6.838  18.823   0.039  0.1210 -0.1861 -0.1235
 2672W        W19146  16.498  17.142  13.431 -0.3397  0.2814 -0.0352
 2673W        W19147  14.595   4.264  14.651  0.0159 -0.1791  0.3506
 2674W        W19148  16.269  15.724   2.899 -0.3144 -0.1332 -0.2411
 2675W        W19149  11.409  16.853   4.954  0.1608 -0.1547  0.0825
 2676W        W19150  14.101  10.657   1.878 -0.1666  0.1002  0.1021
 2677W        W19151  17.715   0.402   2.348  0.1374 -0.0437  0.1575
 2678W        W19152  18.979  15.541   2.081 -0.0633 -0.0329  0.2896
 2679W        W19153   2.587  17.242  12.649  0.0029  0.0419 -0.0486
 2680W        W19154  16.503   5.477   3.743  0.3168 -0.1067 -0.2923
 2681W        W19155  14.297   0.395   4.611  0.0063 -0.0286  0.2372
 2682W        W19156  16.708   3.270   4.403  0.0025  0.0335 -0.0910
 2683W        W19157  16.256  15.869   4.880 -0.1866 -0.2929  0.0837
 2684W        W19158   5.886   7.241  10.406 -0.0501  0.1352  0.1274
 2685W        W19159   4.123  18.154   0.655  0.2340  0.1215 -0.0043
 2686W        W19160   8.956   8.665  13.416 -0.1772 -0.0519 -0.1694
 2687W        W19161  13.569  15.577  11.645 -0.3462 -0.1705  0.0491
 2688W        W19162  11.839  18.021   9.366  0.1131 -0.0866  0.3360
 2689W        W19163  10.732   7.041   2.775  0.1527 -0.1663  0.1535
 2690W        W19164  10.871  15.651  12.401 -0.1226 -0.1814  0.1705
 2691W        W19165  10.633   8.957  13.416 -0.1621  0.1062 -0.2246
 2692W        W19166   3.373   5.898   1.421  0.0096  0.1124 -0.2439
 2693W        W19167  17.336   8.868   0.334 -0.1716 -0.2458  0.1633
 2694W        W19168   8.485  18.720   2.897 -0.0776 -0.0964 -0.0960
 2695W        W19169   3.339   4.687   1.305  0.2565  0.4328  0.1367
 2696W        W19170  13.688  16.314  12.310  0.0967 -0.2808 -0.0307
 2697W        W19171   7.630  15.098   4.358 -0.2393  0.2010 -0.0122
 2698W        W19172   3.156   0.199   0.884 -0.0175  0.1626  0.0323
 2699W        W19173  18.583  13.319   3.831  0.1325 -0.0836  0.4372
 2700W        W19174  16.708   0.851  13.918  0.1243 -0.1626  0.4574
 2701W        W19175  17.483   8.982  10.723 -0.2373 -0.1682 -0.0306
 2702W        W19176   5.509  15.124  13.516  0.0945  0.1312  0.0448
 2703W        W19177  17.167  12.538  13.958  0.0058 -0.0543 -0.0797
 2704W        W19178  18.368  12.497   4.850  0.0766  0.1618  0.1001
 2705W        W19179  13.889  17.611  12.214 -0.1108  0.1563  0.1253
 2706W        W19180  13.849   1.011  13.267  0.0672  0.0299 -0.0362
 2707W        W19181   7.133   5.231   1.535  0.1940 -0.0371  0.0980
 2708W        W19182   8.440  17.594  14.784  0.2260  0.1878 -0.0084
 2709W        W19183   6.669   0.416  14.415  0.1696 -0.0175  0.0376
 2710W        W19184  18.911   1.680   5.011 -0.1917  0.1963 -0.0824
 2711W        W19185  11.973  12.790  11.109  0.3096  0.2053 -0.0517
 2712W        W19186  18.244  14.814  11.238  0.1835  0.1655  0.1793
 2713W        W19187   8.609   6.757   9.268 -0.1770  0.3561 -0.1128
 2714W        W19188  11.175  13.951  12.540  0.2446  0.1461 -0.2181
 2715W        W19189   4.170  17.919  13.725 -0.3625 -0.1030 -0.2583
 2716W        W19190   6.809   4.911   0.257  0.0079  0.2136 -0.1063
 2717W        W19191  12.548  13.788  12.261 -0.1716 -0.1514 -0.0005
 2718W        W19192  12.514  11.003   0.142  0.1045  0.0864 -0.0702
 2719W        W19193  15.587   8.143   1.525  0.3241 -0.3585  0.2355
 2720W        W19194   8.066  17.055   5.375  0.0588  0.3084 -0.2218
 2721W        W19195  14.663   4.006   0.024 -0.0113  0.1786  0.3703
 2722W        W19196  10.473   2.318  10.205  0.0239 -0.1596 -0.1584
 2723W        W19197   8.082   2.224   2.567  0.1173 -0.1939  0.0967
 2724W        W19198  17.627   4.439   2.837  0.1507  0.1675 -0.0357
 2725W        W19199   8.901  14.183   1.671  0.3020  0.2362 -0.0817
 2726W        W19200   8.116  10.934   0.737  0.0026  0.1690 -0.1111
 2727W        W19201   4.456  17.896   1.097 -0.0982 -0.1204 -0.4464
 2728W        W19202   3.503  12.498   1.550 -0.1119 -0.2124 -0.0214
 2729W        W19203  10.954  13.252  11.424  0.1095  0.2183 -0.3421
 2730W        W19204   4.544  10.707   2.758 -0.1069 -0.0891  0.1159
 2731W        W19205  14.257   2.739  13.278 -0.1317  0.3170 -0.0852
 2732W        W19206   8.791   4.853   2.215 -0.0772  0.3019  0.1235
 2733W        W19207   7.505  13.678  14.201  0.1829 -0.0974  0.2084
 2734W        W19208  10.046  10.286  11.329  0.2421 -0.0535 -0.0607
 2735W        W19209   0.648   7.024  10.978  0.0928  0.1394  0.0674
 2736W        W19210   4.843  16.119  11.144 -0.0679  0.0503 -0.4003
 2737W        W19211  17.565   3.575   0.332 -0.0210  0.2309  0.1399
 2738W        W19212   1.708  17.080  14.814  0.2266  0.0382  0.1451
 2739W        W19213   0.565   4.377  12.482 -0.0182 -0.1894 -0.1351
 2740W        W19214  17.639  14.912  13.343  0.1612 -0.3085  0.3489
 2741W        W19215   6.418   3.063   3.978  0.0534 -0.2676 -0.2489
 2742W        W19216  17.146   7.571   0.129 -0.1974  0.0271  0.0022
 2743W        W19217   1.457  18.593  12.252 -0.0949  0.0860 -0.4031
 2744W        W19218   1.444   3.880  14.661 -0.4654 -0.1156  0.0069
 2745W        W19219  12.466  15.447   2.737 -0.0102 -0.3933 -0.1740
 2746W        W19220   6.182  13.174  13.081 -0.1117 -0.1789 -0.0365
 2747W        W19221   5.277   2.837   2.728  0.1361  0.0362 -0.3251
 2748W        W19222  18.426   5.168   4.281 -0.0167 -0.2066 -0.1257
 2749W        W19223  13.450   6.289  14.580  0.0661 -0.1307 -0.1534
 2750W        W19224   0.588  10.056  13.992  0.2938 -0.1158  0.0183
 2751W        W19225  10.523  12.634   5.484  0.1831 -0.0694  0.0708
 2752W        W19226  14.141  11.218   4.018  0.0544  0.0206 -0.1405
 2753W        W19227   5.119   6.927   1.521  0.0802 -0.3208 -0.0329
 2754W        W19228   1.272   9.734   2.722  0.2254 -0.1676  0.2756
 2755W        W19229  16.802  16.639   5.149  0.1953 -0.0650  0.1878
 2756W        W19230  17.526   0.177   1.908 -0.1163 -0.1889 -0.0084
 2757W        W19231  11.645   0.443  12.745 -0.2230 -0.3195  0.0625
 2758W        W19232   2.691  13.755  10.810 -0.0333  0.0998  0.0837
 2759W        W19233   6.468   1.085  13.246  0.0452  0.2463  0.1292
 2760W        W19234   5.021   6.429  10.619 -0.2796  0.0299  0.1335
 2761W        W19235   8.102   0.045  13.488 -0.0519 -0.2321  0.0256
 2762W        W19236   1.600   3.875  12.384 -0.1640  0.1281  0.1129
 2763W        W19237  16.566   8.506  11.351  0.3056  0.2494  0.3460
 2764W        W19238  16.430   1.701   4.591 -0.0583  0.0360 -0.2415
 2765W        W19239  15.581  11.609  12.024 -0.2084 -0.1084  0.2095
 2766W        W19240   0.516  13.344   4.646 -0.2713 -0.0657 -0.0671
 2767W        W19241  12.966  17.824   1.630 -0.0933 -0.1566 -0.1775
 2768W        W19242  13.703  11.513   3.944  0.2309 -0.2106  0.1224
 2769W        W19243  15.880  12.525  14.537  0.3099  0.1655  0.0807
 2770W        W19244  19.004  15.329   5.513 -0.0143 -0.0472  0.0954
 2771W        W19245  17.782  15.379  13.247  0.1839 -0.3398 -0.0201
 2772W        W19246   2.979   3.209   3.708 -0.2460 -0.2096 -0.1293
 2773W        W19247   9.318  16.814   3.257  0.1789 -0.1974  0.1446
 2774W        W19248   6.306  18.013   1.858 -0.1593  0.1090 -0.1488
 2775W        W19249   9.163   1.570   2.584  0.2638  0.0538 -0.0311
 2776W        W19250  17.372   8.914  10.168  0.0787 -0.1225 -0.0553
 2777W        W19251   2.176  14.514  13.825  0.1968  0.2387 -0.1914
 2778W        W19252  10.290   0.493   2.711 -0.2152 -0.0746 -0.2919
 2779W        W19253   8.600   0.120   1.272 -0.1776  0.0719 -0.1099
 2780W        W19254  16.126   0.213  11.558  0.0697  0.1133  0.1378
 2781W        W19255  16.012   9.270   0.096  0.0092 -0.0087  0.1110
 2782W        W19256  12.140   8.094  14.630  0.3027 -0.0506  0.0372
 2783W        W19257  17.148   0.594   4.305 -0.0033  0.1438  0.3581
 2784W        W19258  11.930  14.361   4.846 -0.2181  0.1241 -0.5176
 2785W        W19259  15.364  17.137  14.612 -0.1970  0.1226  0.1333
 2786W        W19260   8.834   9.853   0.107  0.1077  0.2108 -0.0056
 2787W        W19261   2.831  10.406   1.711 -0.3543  0.1493 -0.1504
 2788W        W19262  16.790   8.518  14.402 -0.1152 -0.0316  0.1811
 2789W        W19263  18.135  16.874  11.240  0.1117  0.1749 -0.1687
 2790W        W19264  10.059   8.405   2.816 -0.2230  0.2042 -0.2568
 2791W        W19265  17.364  12.600   9.358 -0.1656  0.0999  0.1011
 2792W        W19266  10.242   3.444  11.777 -0.0240 -0.2014 -0.1040
 2793W        W19267   1.080   8.608  13.069  0.3305 -0.1686  0.3953
 2794W        W19268  10.724   4.133   2.808 -0.2961  0.0006 -0.1261
 2795W        W19269   3.817  12.345  12.261  0.1602 -0.2249  0.0821
 2796W        W19270   3.496   4.310  11.014  0.0235 -0.3765  0.0368
 2797W        W19271   8.753  18.536   4.650  0.0953  0.3772 -0.1051
 2798W        W19272  11.324   1.760  14.423 -0.0463 -0.1856  0.0112
 2799W        W19273   2.413  15.332   2.785 -0.2089 -0.0055  0.1272
 2800W        W19274   5.985  17.074   0.590  0.1419  0.0448 -0.1367
 2801W        W19275   2.964   9.026   3.703 -0.1288 -0.0760  0.3112
 2802W        W19276   8.302  11.860   3.130 -0.3706  0.1682  0.0116
 2803W        W19277   3.866  13.307   1.212  0.2845  0.0052  0.0735
 2804W        W19278  10.084   5.462   4.394 -0.1588  0.2955  0.0082
 2805W        W19279   5.083  11.642  11.306 -0.2118 -0.3098 -0.3216
 2806W        W19280   5.921   9.699   4.868 -0.1398  0.0487  0.0402
 2807W        W19281   9.064   5.000  14.660  0.2310 -0.4326  0.0700
 2808W        W19282   3.660   6.895  13.477 -0.2984  0.1307 -0.3513
 2809W        W19283   7.546  13.622   2.459 -0.2984 -0.3060 -0.2088
 2810W        W19284  12.814   3.944  13.731  0.0576  0.0203  0.0971
 2811W        W19285  10.699  17.779   2.643  0.0586  0.1416 -0.2757
 2812W        W19286  11.941  16.055  13.550 -0.0030 -0.1540 -0.2530
 2813W        W19287  11.250   9.074   1.309  0.0318  0.0134 -0.1133
 2814W        W19288  13.290  14.257   3.759 -0.1080  0.3271  0.0705
 2815W        W19289  12.590  17.599   3.836 -0.1175  0.0176 -0.5049
 2816W        W19290  11.294   1.267  14.298  0.3549 -0.0856  0.0745
 2817W        W19291  14.773  17.068   0.744  0.1996  0.3962  0.2955
 2818W        W19292  10.413  17.121   4.501  0.2130 -0.1463  0.0385
 2819W        W19293  16.146  12.341  14.945  0.1910  0.0672 -0.0650
 2820W        W19294   1.007  16.630   0.846  0.2433 -0.2809 -0.0296
 2821W        W19295   3.468   1.725   1.160  0.1783  0.1470  0.2523
 2822W        W19296   6.232   3.314   5.087  0.0479 -0.0790  0.1109
 2823W        W19297  15.785   1.703  11.398  0.2843  0.0845 -0.0224
 2824W        W19298   4.701   1.577  13.538  0.0367  0.1555  0.0794
 2825W        W19299   2.752   4.109  14.368  0.0420  0.1276  0.1944
 2826W        W19300   9.876  15.787   4.521 -0.0025  0.1094 -0.2282
 2827W        W19301   7.998  12.646   4.302  0.3227 -0.2582  0.1375
 2828W        W19302   1.168  14.792   0.680  0.3061  0.2946  0.1316
 2829W        W19303   4.820   9.290   1.306  0.0686 -0.0574  0.0661
 2830W        W19304  11.694  13.613   3.756 -0.2335  0.0437  0.0564
 2831W        W19305   2.114   3.506  14.732  0.0961  0.2104 -0.1229
 2832W        W19306   4.174   8.526   4.041 -0.3144 -0.0759  0.2351
 2833W        W19307  16.674  18.129  12.788 -0.1406 -0.0078  0.2973
 2834W        W19308   3.069  10.368   2.832  0.2684 -0.1462  0.0132
 2835W        W19309   7.725   9.939  12.795 -0.1743 -0.1723  0.0087
 2836W        W19310  15.221  10.213   4.643 -0.0002  0.0418 -0.2695
 2837W        W19311   6.198  19.127   4.154  0.1505 -0.0570  0.1654
 2838W        W19312   8.008  14.534  13.901 -0.1999 -0.0547  0.0323
 2839W        W19313  10.885   9.885   4.711  0.2796  0.0572 -0.0133
 2840W        W19314   4.632  17.296  11.943  0.0978  0.4433 -0.0426
 2841W        W19315   0.750   3.981   9.491 -0.3320 -0.3869  0.0434
 2842W        W19316   3.782  18.099  13.447 -0.3894 -0.0703 -0.4214
 2843W        W19317   8.428  19.001   4.043  0.0469  0.0078 -0.1460
 2844W        W19318   0.032  16.140  13.676 -0.1005  0.0412  0.1195
 2845W        W19319   0.926  10.933   9.339  0.2717 -0.1258 -0.0251
 2846W        W19320   2.680  13.917   3.384 -0.3887  0.0314  0.1951
 2847W        W19321   7.519  15.369   0.215  0.1882  0.1366 -0.6473
 2848W        W19322  12.350  11.947   1.959 -0.0682  0.2144  0.1103
 2849W        W19323  15.542  13.908  14.687 -0.1479 -0.1602 -0.2412
 2850W        W19324  13.030  10.906  11.842 -0.1370  0.1715  0.1707
 2851W        W19325   8.721   4.096   3.540 -0.1479 -0.1176  0.0468
 2852W        W19326  13.380  11.494  12.382 -0.3739  0.3210 -0.3395
 2853W        W19327   5.325  10.166   0.965 -0.2560 -0.2425 -0.1663
 2854W        W19328  12.678  17.193  13.823 -0.0115  0.1621 -0.0098
 2855W        W19329   5.695   2.048   1.418 -0.1720  0.3345 -0.0365
 2856W        W19330   4.657  11.562  10.377 -0.2119  0.0546  0.1615
 2857W        W19331  14.318   9.666  12.951 -0.3499  0.1370 -0.1182
 2858W        W19332   2.915   7.421   3.292 -0.1553  0.4126  0.1272
 2859W        W19333  16.299  13.241  13.260 -0.1241  0.0850  0.2418
 2860W        W19334   6.175  16.894   3.312  0.0299  0.2807 -0.1530
 2861W        W19335   2.726   9.019   0.776  0.0237  0.2713 -0.1624
 2862W        W19336   2.234  13.406  14.066 -0.1533  0.1539 -0.0014
 2863W        W19337  11.870   0.802  12.467 -0.2145  0.0816 -0.3072
 2864W        W19338  16.343   7.002  13.471 -0.3376  0.3149  0.0614
 2865W        W19339   9.507  13.790   2.914 -0.1535  0.2314  0.0246
 2866W        W19340  14.707   0.636   4.426  0.5012  0.0377  0.0004
 2867W        W19341  17.974   3.648  14.616  0.2776  0.0141  0.0319
 2868W        W19342  13.883   9.631  14.911  0.3515 -0.1168  0.3303
 2869W        W19343  13.983   8.647   4.060  0.0110 -0.0446 -0.3030
 2870W        W19344  10.047   2.578  11.580 -0.4271  0.2344  0.0034
 2871W        W19345  13.113   3.611   2.013  0.2105 -0.1189  0.1085
 2872W        W19346  12.209   4.989   9.696 -0.0718  0.2647  0.2644
 2873W        W19347  14.297   0.993   5.364 -0.2371 -0.1648  0.3778
 2874W        W19348   6.472  11.137   2.177 -0.0522 -0.1375  0.0284
 2875W        W19349  16.951   6.398  13.053  0.1712  0.0945  0.3696
 2876W        W19350   0.357   6.288   3.796 -0.0149  0.0433 -0.2181
 2877W        W19351  16.998  15.299   0.382  0.0121  0.2865  0.2980
 2878W        W19352  15.293  13.407   5.184 -0.1697  0.2259  0.1273
 2879W        W19353  10.499  14.108  14.168 -0.0672  0.4505 -0.0082
 2880W        W19354  12.015   1.590   1.722 -0.1995  0.0022  0.0823
 2881W        W19355   5.948   4.091   3.820 -0.2396  0.0745  0.1502
 2882W        W19356  16.985   9.502  12.951 -0.2167  0.1196  0.1754
 2883W        W19357  18.056   4.284   3.979  0.0997  0.0897  0.0480
 2884W        W19358   4.564   6.632  10.493 -0.2857  0.2098 -0.0779
 2885W        W19359  15.956   3.321   1.834 -0.0804  0.0200 -0.0148
 2886W        W19360   4.216   4.501  12.760 -0.0265 -0.1469 -0.0456
 2887W        W19361  13.387  13.967  10.964  0.0507  0.2087 -0.0687
 2888W        W19362   0.508   6.023  12.488 -0.1530 -0.0874  0.0308
 2889W        W19363   5.636  18.471   4.135  0.1832  0.1510  0.0844
 2890W        W19364   0.975   6.453   2.412  0.0602 -0.1746  0.0641
 2891W        W19365  13.249  18.954  12.765  0.2477  0.2094  0.2032
 2892W        W19366   8.808  15.862   3.619  0.4516  0.0356  0.1989
 2893W        W19367  14.463   5.442  10.740  0.0744  0.3515 -0.0975
 2894W        W19368  12.249   9.115   2.806 -0.1017  0.1800  0.1795
 2895W        W19369  13.728  11.119   1.416  0.2322 -0.0945 -0.0445
 2896W        W19370  13.738   7.461   1.585  0.0077 -0.1339 -0.1477
 2897W        W19371  15.972  12.581  11.607 -0.0412  0.3099  0.1671
 2898W        W19372   8.628  12.487   2.169  0.2353 -0.1949 -0.0059
 2899W        W19373   4.763  10.109  13.623  0.0393  0.0821  0.0568
 2900W        W19374   7.294   5.613  13.330 -0.1890  0.0420 -0.1160
 2901W        W19375   3.705   6.724  13.957 -0.0800 -0.3515 -0.1014
 2902W        W19376  12.545   5.916   5.812 -0.1189 -0.1940  0.2489
 2903W        W19377  18.824  17.993   3.278  0.1216  0.2598 -0.0484
 2904W        W19378   3.482   1.946  14.062 -0.0702 -0.1357 -0.1128
 2905W        W19379  16.985  15.324   3.108 -0.4682 -0.1315  0.2039
 2906W        W19380  12.137  16.162   0.564 -0.0594 -0.2429 -0.1207
 2907W        W19381   7.178   0.092   2.077 -0.0988 -0.2381  0.1919
 2908W        W19382   5.776   3.261  14.221  0.0868  0.0240 -0.0363
 2909W        W19383   3.367   6.778   2.428  0.0740 -0.0668 -0.4075
 2910W        W19384   6.005  10.856   5.238 -0.3107 -0.1651 -0.0787
 2911W        W19385  10.796  17.492  14.392  0.0860  0.0044 -0.2109
 2912W        W19386  18.741  17.625   5.086  0.1602  0.2290 -0.2505
 2913W        W19387   3.753   9.095   4.560  0.0893  0.2878 -0.1402
 2914W        W19388   8.907  10.027  13.749 -0.1326  0.2221 -0.0570
 2915W        W19389   0.873   2.137   1.662 -0.0870 -0.0240 -0.0949
 2916W        W19390   7.624  15.101  13.103 -0.1788  0.1864 -0.1612
 2917W        W19391   0.028  11.024  10.929 -0.0949 -0.4073 -0.1929
 2918W        W19392  13.058  13.869   9.776  0.0481 -0.2451 -0.0738
 2919W        W19393  17.530   3.595  14.704  0.1439 -0.0319  0.2670
 2920W        W19394  12.168  17.662   3.017 -0.0766  0.0714  0.0526
 2921W        W19395  17.183   5.739   1.054 -0.2425 -0.1258 -0.2026
 2922W        W19396  18.493   6.583  10.599 -0.0174  0.0777  0.0510
 2923W        W19397  10.509   0.935   1.595  0.4922  0.1799  0.3043
 2924W        W19398  10.938   2.229  13.694 -0.2541 -0.0469  0.1121
 2925W        W19399   2.229   8.716   4.141  0.0299 -0.1204 -0.2636
 2926W        W19400   0.168  12.557  11.672  0.1306 -0.2022 -0.3770
 2927W        W19401   7.048  17.931   0.367 -0.3047 -0.4390 -0.2488
 2928W        W19402   6.316   6.364  13.505 -0.3196  0.1319 -0.2642
 2929W        W19403  13.336  13.977   2.430 -0.1335 -0.0754  0.0142
 2930W        W19404   3.630   8.497  13.922 -0.0238 -0.0624 -0.0477
 2931W        W19405   0.316  18.914   3.362 -0.2325 -0.1759  0.0056
 2932W        W19406  17.431  14.263   4.522  0.1453 -0.0953 -0.2738
 2933W        W19407  13.420  18.628   0.451 -0.2203  0.1969 -0.1422
 2934W        W19408  14.272  19.058  10.507  0.1842  0.1088 -0.2242
 2935W        W19409   8.274  10.191  12.232 -0.1171 -0.1931  0.1239
 2936W        W19410  14.142  12.709   1.707  0.3173 -0.1513  0.0238
 2937W        W19411  10.236  17.473   3.122  0.1669  0.3581  0.0245
 2938W        W19412   4.660  12.576  11.289  0.0827 -0.2195  0.2480
 2939W        W19413  14.468   8.353   2.774  0.1024 -0.1679 -0.3456
 2940W        W19414  14.378  15.110   3.233  0.2496 -0.2415 -0.1029
 2941W        W19415   3.363  12.581  11.161 -0.5165  0.4157 -0.0822
 2942W        W19416  10.578   2.826   1.875 -0.0133 -0.0182  0.0120
 2943W        W19417   2.844  16.729   3.169 -0.1617  0.1336 -0.1036
 2944W        W19418  12.881  17.896   0.100 -0.1657  0.5659 -0.2490
 2945W        W19419  11.826  13.522   4.713  0.1061  0.1934  0.0799
 2946W        W19420   7.769  18.707  14.088  0.2981  0.1344 -0.0234
 2947W        W19421   3.634   7.649  12.677 -0.2918  0.1386 -0.0203
 2948W        W19422   4.375  17.825  10.764 -0.0220  0.3069 -0.1618
 2949W        W19423  11.329  18.718   3.065 -0.2233  0.3905  0.1012
 2950W        W19424  15.149  17.399  12.772 -0.2094  0.0073 -0.0397
 2951W        W19425   3.508   4.914   4.452 -0.0478  0.0769 -0.4973
 2952W        W19426   3.077  13.686  10.333 -0.2346  0.2491 -0.1311
 2953W        W19427  18.752  11.587   2.993  0.0421 -0.1083 -0.2628
 2954W        W19428  13.066  10.390   4.639 -0.0636 -0.1389  0.1185
 2955W        W19429  11.778  17.908  13.061  0.0041 -0.2061  0.2816
 2956W        W19430   6.261   5.834   2.273 -0.1996 -0.1862  0.3065
 2957W        W19431  16.848   8.969   4.684 -0.2076  0.2589 -0.2223
 2958W        W19432   5.532  13.123  11.700 -0.2824  0.1050  0.0645
 2959W        W19433  15.362  15.257   3.916 -0.0530  0.2747  0.1919
 2960W        W19434   8.937  18.198   0.782  0.0125  0.4681  0.1555
 2961W        W19435   7.741   2.836  11.565  0.0389  0.3644  0.0752
 2962W        W19436  16.363  13.734  12.545 -0.0704 -0.0368 -0.2886
 2963W        W19437   3.551  10.900  12.624  0.1123  0.0240 -0.0975
 2964W        W19438  18.931  13.042  11.800 -0.2216  0.0324  0.1983
 2965W        W19439  17.315  16.272   4.074  0.0745 -0.1479  0.0761
 2966W        W19440  11.418   2.908   0.358  0.2804  0.0101  0.0005
 2967W        W19441  13.413   0.486   1.756  0.1091  0.0300  0.0358
 2968W        W19442  15.260   4.529  13.141 -0.0119  0.0172 -0.1042
 2969W        W19443   6.183   2.760  11.556 -0.1210 -0.2257 -0.2031
 2970W        W19444  12.379  17.685   0.135 -0.0890 -0.1071  0.1794
 2971W        W19445  17.222  11.658   1.901  0.1649  0.1052  0.1234
 2972W        W19446   5.620   3.173   1.838 -0.2207 -0.1996  0.2027
 2973W        W19447   0.192  16.893  11.814 -0.0289 -0.4325 -0.4065
 2974W        W19448   7.289   2.054  13.387 -0.2729  0.0931 -0.0238
 2975W        W19449   0.680  11.933  11.744  0.0782 -0.1719 -0.3004
 2976W        W19450   0.443  16.849  14.847  0.0709 -0.1102  0.1441
 2977W        W19451   5.727   7.280   4.696 -0.0009 -0.0133  0.0229
 2978W        W19452  12.242  14.122  14.715  0.3019  0.3982 -0.2540
 2979W        W19453  11.222  13.177   2.226 -0.2816  0.0319  0.0850
 2980W        W19454  13.146  17.842  14.167 -0.2166 -0.3118  0.2018
 2981W        W19455   1.391  10.114  11.933 -0.0054  0.0218 -0.1821
 2982W        W19456  10.684   4.445  10.309 -0.2440  0.3743  0.3557
 2983W        W19457   1.910  17.191   3.691 -0.0048  0.0709 -0.2734
 2984W        W19458   3.899   1.673   0.346 -0.0645  0.2181 -0.1795
 2985W        W19459  14.077   5.254   5.521 -0.3071 -0.2372 -0.0215
 2986W        W19460  17.961   5.371  10.747 -0.0225  0.1889 -0.2836
 2987W        W19461   2.210   3.236  10.131 -0.2065  0.1195  0.0029
 2988W        W19462  18.359  13.522   3.398 -0.1650  0.2296  0.1348
 2989W        W19463  19.038   5.772   2.570 -0.1648  0.2046  0.0086
 2990W        W19464   2.052   9.990   0.675 -0.0672  0.3660 -0.0686
 2991W        W19465  12.496   5.901  13.952 -0.2127  0.1377  0.0283
 2992W        W19466  12.468   3.760   9.534  0.1714  0.1210 -0.0494
 2993W        W19467  16.837   9.541   3.351 -0.3477  0.1459  0.2954
 2994W        W19468  12.557  18.905   2.435  0.1378 -0.1749  0.0687
 2995W        W19469   9.888   8.133   2.092  0.4135  0.3167 -0.0893
 2996W        W19470   8.489   4.069   1.520 -0.0669 -0.2576 -0.0760
 2997W        W19471   6.326  12.428   3.444 -0.2444 -0.3478 -0.0655
 2998W        W19472   3.376   1.918   3.023 -0.2108  0.0993 -0.1055
 2999W        W19473   1.682  12.887  10.535  0.1278  0.1589  0.1022
 3000W        W19474   0.673   2.842   5.009 -0.2385 -0.2042 -0.1651
 3001W        W19475   9.385   3.136  13.575 -0.1277 -0.0733 -0.0628
 3002W        W19476   0.471  14.128   3.085  0.2391  0.0446 -0.0014
 3003W        W19477   1.464  18.387   2.077 -0.2313 -0.2492 -0.2649
 3004W        W19478   8.354   6.954   0.435  0.0057 -0.1002 -0.0295
 3005W        W19479   2.766   4.802  13.412  0.1893  0.1449  0.1417
 3006W        W19480  11.668  19.134  14.112  0.0147 -0.1092  0.1433
 3007W        W19481  13.002  13.423  14.884  0.0665 -0.1315  0.0529
 3008W        W19482  12.215   7.300   5.180  0.1529  0.1005  0.0746
 3009W        W19483   0.947   4.243   2.898  0.3729  0.1404  0.1101
 3010W        W19484   7.168  15.740  11.690 -0.1057 -0.0207 -0.0249
 3011W        W19485   7.873  15.012   2.865  0.0253 -0.0381 -0.0072
 3012W        W19486   7.764   7.465   4.606  0.1402 -0.3588  0.1101
 3013W        W19487   5.530   1.418   0.578 -0.0316 -0.3458  0.1011
 3014W        W19488  15.830   1.085   4.166 -0.2534 -0.2093  0.2710
 3015W        W19489   5.916  16.153   0.987 -0.2109  0.1474  0.0972
 3016W        W19490   0.462  14.191   1.245  0.0096 -0.1512  0.4014
 3017W        W19491   1.515   5.208   2.483  0.0425 -0.0187  0.0173
 3018W        W19492  13.369   0.939  11.022  0.1121  0.3166 -0.0115
 3019W        W19493   6.486   1.934   9.646 -0.0691 -0.2126 -0.2115
 3020W        W19494  15.631   2.467  11.275  0.1484  0.0821 -0.1004
 3021W        W19495  18.692   1.018   0.505 -0.0221 -0.1676  0.2137
 3022W        W19496  14.148  17.032   0.209  0.0586 -0.3067  0.3068
 3023W        W19497  13.208  15.807  14.095 -0.0710 -0.0303 -0.1115
 3024W        W19498  18.956   9.353   3.698  0.3263 -0.2385 -0.4214
 3025W        W19499   7.642   8.395  12.011 -0.0498 -0.2663  0.2393
 3026W        W19500   4.197   1.670   1.460  0.1167  0.0303  0.0920
 3027W        W19501   9.407  11.463  14.102  0.1301 -0.1010  0.5415
 3028W        W19502  14.925  12.189  12.120  0.0980 -0.3289 -0.2372
 3029W        W19503   7.690   2.971  14.744  0.3455 -0.1239  0.0888
 3030W        W19504   8.158   2.942  13.030 -0.1396 -0.3363 -0.0330
 3031W        W19505   1.025  12.998  13.902  0.0353  0.1338 -0.0635
 3032W        W19506   1.300  11.778   2.870 -0.2809 -0.0250  0.2115
 3033W        W19507  11.925  14.374  12.826  0.0653  0.0323  0.1710
 3034W        W19508   9.768  10.260  13.986 -0.0768 -0.2362  0.0068
 3035W        W19509  11.385  16.053   4.428  0.0157  0.0594  0.1357
 3036W        W19510   5.475   6.035   4.189 -0.0915 -0.1808 -0.2674
 3037W        W19511   3.059  12.615   3.106  0.1876 -0.3534 -0.3675
 3038W        W19512   9.915   7.526   0.129 -0.2174 -0.0608  0.3096
 3039W        W19513  16.867   0.404  12.363  0.1815  0.2589  0.0178
 3040W        W19514   4.464   9.795  11.314  0.0932 -0.1408 -0.1722
 3041W        W19515  14.533   2.243  14.243 -0.0979 -0.1390  0.2108
 3042W        W19516  11.853   7.141  13.712  0.0904  0.1828 -0.0421
 3043W        W19517   6.296  10.708   3.176  0.4414  0.2700  0.2310
 3044W        W19518  12.708  10.882  13.996 -0.2912 -0.0219 -0.0910
 3045W        W19519  15.776  18.644  14.451 -0.4629  0.0680 -0.1779
 3046W        W19520   5.962   0.066  13.463  0.1370  0.1752  0.0237
 3047W        W19521   8.587  11.308   4.427  0.3197 -0.1832  0.0892
 3048W        W19522  15.977   8.873  12.667 -0.2239 -0.0831 -0.2257
 3049W        W19523   8.782  10.091   1.820 -0.4837  0.0292 -0.0319
 3050W        W19524  10.417  16.970   0.953  0.4726 -0.1463 -0.3365
 3051W        W19525  14.632   3.342  10.308 -0.1163  0.0081  0.1303
 3052W        W19526  16.469   6.927   2.521  0.0319 -0.0149  0.3292
 3053W        W19527   2.280   2.079   5.064  0.1057  0.0098  0.2073
 3054W        W19528  12.908  16.785  12.502 -0.0894  0.1389  0.2435
 3055W        W19529  18.139  16.596   4.323  0.1675 -0.1743  0.1514
 3056W        W19530  18.465   4.291   3.635  0.0412 -0.0320  0.3760
 3057W        W19531   0.405  12.398  13.689 -0.1528  0.0487 -0.0348
 3058W        W19532  15.174   8.395   0.748  0.0471 -0.2193 -0.0050
 3059W        W19533  18.693   1.158  10.922  0.0193  0.3255  0.0907
 3060W        W19534   5.546  11.523  11.092  0.3403  0.2281 -0.2271
 3061W        W19535  17.469  18.835   2.866  0.2107 -0.1696 -0.1131
 3062W        W19536  16.989  10.003   2.689  0.0450 -0.0875  0.0955
 3063W        W19537   2.974   9.446  14.365  0.2376  0.0079 -0.0743
 3064W        W19538   8.189   6.866   3.446  0.0349  0.1285 -0.3080
 3065W        W19539  11.143  13.979  10.053  0.2169 -0.0359  0.0908
 3066W        W19540  12.978   1.757   2.634 -0.0150  0.2233  0.0101
 3067W        W19541  16.956   5.767   0.221 -0.3067  0.0569 -0.3617
 3068W        W19542   3.120  18.126  11.277  0.0494  0.2425 -0.1905
 3069W        W19543   0.467  10.245  12.552  0.0854 -0.3378  0.1462
 3070W        W19544  18.862   8.116   5.359 -0.0630 -0.4427  0.2360
 3071W        W19545  15.707  10.734  12.003 -0.0302 -0.1292  0.3352
 3072W        W19546   6.286  10.414  11.665  0.1625 -0.2179  0.5128
 3073W        W19547   5.254   3.345  13.375 -0.1294 -0.0329  0.0767
 3074W        W19548   2.102   3.998  11.585 -0.2685  0.1557 -0.0192
 3075W        W19549  16.351   2.513   3.488  0.3110  0.0157 -0.3376
 3076W        W19550   3.238   0.237   2.489  0.1187 -0.0910  0.2567
 3077W        W19551  10.799  13.054   6.342 -0.0166  0.0323  0.1377
 3078W        W19552   6.152   3.495   3.629 -0.0657 -0.1153  0.0515
 3079W        W19553   3.256   8.102   2.188  0.4594 -0.0007 -0.2276
 3080W        W19554  12.147   3.123  14.858  0.1559 -0.0249 -0.0779
 3081W        W19555  12.028   8.277   1.677 -0.3282 -0.0475 -0.2866
 3082W        W19556   9.634   2.239  11.634 -0.0679 -0.1461  0.1083
 3083W        W19557   1.791  17.123   1.394  0.0296 -0.1462  0.0451
 3084W        W19558  14.547   1.292  12.125  0.0811  0.0547  0.3950
 3085W        W19559   3.238  13.445  12.713  0.0914 -0.0335 -0.2238
 3086W        W19560  10.005   7.167   4.605  0.2327  0.1263 -0.0418
 3087W        W19561   7.119  11.229   5.569 -0.1362  0.2884  0.0097
 3088W        W19562   2.228  14.455   1.573  0.1943 -0.0871  0.0092
 3089W        W19563  16.980   5.649  14.038 -0.0862 -0.0184 -0.1510
 3090W        W19564   9.585  11.486   2.243 -0.0080 -0.0966 -0.4087
 3091W        W19565   6.904   0.915  15.124 -0.0192  0.4394 -0.0502
 3092W        W19566   5.820  12.560  15.066 -0.1430  0.2200 -0.1861
 3093W        W19567   9.543  17.230  13.330 -0.4254  0.1910  0.0577
 3094W        W19568  14.433   8.100  11.873 -0.0049 -0.1981  0.0563
 3095W        W19569  11.926   8.155  11.371 -0.2365  0.2617  0.3140
 3096W        W19570   6.832   1.267   4.061  0.2437  0.1076  0.0736
 3097W        W19571  12.297   2.644  14.321 -0.1842  0.3438  0.2082
 3098W        W19572  12.706  18.435   0.437  0.0200  0.1129 -0.0642
 3099W        W19573  11.712  12.323  13.681  0.1452 -0.0378  0.2711
 3100W        W19574  13.294   7.577   2.081  0.1101  0.0506  0.1157
 3101W        W19575  19.092  11.847   4.807  0.0615  0.1334  0.1172
 3102W        W19576   1.119  18.840  12.556 -0.1393 -0.0420  0.1169
 3103W        W19577   4.257   8.027  14.866  0.3549 -0.1921  0.1269
 3104W        W19578   0.501  17.549  13.399 -0.2421  0.1642 -0.1253
 3105W        W19579   7.224  12.603  12.781  0.3191 -0.0800  0.3021
 3106W        W19580  13.046  15.545  11.802  0.0015  0.3391  0.1601
 3107W        W19581  14.422   7.887   3.202  0.0771 -0.2093  0.4705
 3108W        W19582   4.357   4.192   2.811 -0.2236 -0.1184 -0.1596
 3109W        W19583  12.867   8.329   0.386 -0.0825 -0.1473 -0.1099
 3110W        W19584   2.479  10.200  14.606 -0.2520 -0.1838  0.0686
 3111W        W19585   3.879  14.876   3.715  0.1201 -0.0513 -0.0747
 3112W        W19586   0.348  14.123   4.434  0.1438  0.0526  0.1236
 3113W        W19587   1.140  10.520  11.579  0.0593  0.1572 -0.2114
 3114W        W19588   0.920   2.323   3.907  0.1821 -0.0210  0.0485
 3115W        W19589  18.705  11.914   5.162 -0.3461 -0.0246 -0.2167
 3116W        W19590  15.161  18.978  12.261  0.0741  0.0586 -0.2696
 3117W        W19591  15.260   4.161   2.281 -0.2003 -0.0967  0.0904
 3118W        W19592  11.186   8.274   0.903 -0.1964  0.1447  0.2685
 3119W        W19593  18.685  14.250  14.768  0.0459 -0.0337  0.1124
 3120W        W19594  13.155   9.480   1.053 -0.0714 -0.1033  0.0580
 3121W        W19595  14.521  13.454  10.978  0.2168  0.2017 -0.2618
 3122W        W19596   7.206  16.682  12.978 -0.1723  0.2665  0.3895
 3123W        W19597   7.593  18.456   2.249 -0.1373  0.0747 -0.0733
 3124W        W19598  12.233  12.701  12.767  0.1410  0.0929 -0.0142
 3125W        W19599   2.083  17.816   1.825 -0.0920  0.1501 -0.1671
 3126W        W19600   0.491   1.853   1.502 -0.2173  0.2275 -0.0068
 3127W        W19601   4.128   3.170   5.094 -0.1542  0.3123  0.1552
 3128W        W19602  11.253   7.950   2.334 -0.2101 -0.0478 -0.0697
 3129W        W19603   8.235   0.802  11.352 -0.1112 -0.1666 -0.0998
 3130W        W19604   1.989  14.615   0.852  0.2331  0.0339  0.0659
 3131W        W19605  10.173  18.954  14.897  0.3658 -0.1259 -0.4326
 3132W        W19606  14.829  17.429   3.949  0.1478 -0.0598  0.2855
 3133W        W19607  12.062  12.173   5.031 -0.1206 -0.0382 -0.1070
 3134W        W19608   4.512   2.753  13.731 -0.4194  0.0505  0.0500
 3135W        W19609   7.190  17.896   1.076  0.1512  0.0184  0.2303
 3136W        W19610   5.992  13.708   5.112  0.2244 -0.3677 -0.0478
 3137W        W19611   7.685   4.625  15.125 -0.0518  0.0750  0.0026
 3138W        W19612   3.205   5.499   0.721  0.2091  0.2057 -0.0934
 3139W        W19613   5.955  15.645   3.934  0.2642 -0.0026 -0.1053
 3140W        W19614  14.442  15.368  12.055 -0.4254 -0.0050  0.1551
 3141W        W19615   4.892  16.791  14.006  0.0968 -0.0488 -0.1217
 3142W        W19616   6.147  11.511   2.982  0.0663 -0.0284 -0.2671
 3143W        W19617  14.003   6.941   3.490  0.0761  0.0084 -0.2487
 3144W        W19618   4.624  15.668   3.432  0.3541 -0.1864 -0.0282
 3145W        W19619   8.764   0.664  11.647  0.0079  0.0071 -0.1039
 3146W        W19620  17.520  18.393  14.807  0.0287  0.3778 -0.2053
 3147W        W19621   2.157   5.465  12.926 -0.3456  0.0190 -0.0150
 3148W        W19622   7.311   9.409  14.555  0.0604 -0.1756  0.1176
 3149W        W19623   9.953   5.411   3.385  0.1103 -0.0139 -0.0258
 3150W        W19624  16.706  10.789  11.795 -0.0434  0.3430  0.4338
 3151W        W19625   5.979   4.626  12.891  0.0099  0.1840  0.1546
 3152W        W19626  11.310   7.848  14.903 -0.1329  0.1113  0.0377
 3153W        W19627   3.862   1.315  15.092 -0.4078  0.2812 -0.2024
 3154W        W19628  15.911   1.963   0.537 -0.0827  0.0386  0.2599
 3155W        W19629  11.204   2.543   3.958  0.0708  0.0073  0.0650
 3156W        W19630  13.509  11.360  13.116 -0.1224  0.2226 -0.2702
 3157W        W19631   0.537   3.366   2.383 -0.0924  0.3049  0.0346
 3158W        W19632   5.467   0.891  14.219 -0.1866  0.2793 -0.0779
 3159W        W19633  11.194  17.836   2.703  0.1249 -0.1667  0.0480
 3160W        W19634  11.051   7.355  11.851 -0.1123 -0.0378  0.1329
 3161W        W19635  14.574  13.394  12.831  0.1919  0.0629  0.4429
 3162W        W19636   7.123  15.290   1.797  0.1899 -0.2027 -0.0206
 3163W        W19637  18.576   0.163  12.887  0.0728  0.0354  0.0459
 3164W        W19638   0.774  17.549   4.693  0.2331 -0.0245  0.4459
 3165W        W19639   7.197  11.190   3.203 -0.0511  0.1692  0.1549
 3166W        W19640  15.066   3.089  15.037  0.0468 -0.1958  0.0186
 3167W        W19641   1.587   6.490  11.227  0.3132  0.1544  0.2136
 3168W        W19642  12.595  10.343   4.035 -0.0425  0.0386  0.0065
 3169W        W19643  10.191  19.107   4.069  0.1003 -0.3076 -0.0425
 3170W        W19644  15.180   6.613  12.063  0.2754 -0.0625  0.0303
 3171W        W19645  12.625  16.143   2.524 -0.0655  0.0633  0.0053
 3172W        W19646   4.257   0.583  12.556  0.1385 -0.0125 -0.2320
 3173W        W19647  13.748  14.072   4.697  0.0999  0.0391 -0.1058
 3174W        W19648  15.817   9.314   3.627 -0.1252  0.0457  0.1391
 3175W        W19649   0.148  15.653  13.695  0.0955  0.0646  0.1437
 3176W        W19650   9.648  10.980  13.342  0.1658 -0.1932  0.0384
 3177W        W19651   7.133   8.444  11.020 -0.0249  0.0832  0.4168
 3178W        W19652   2.280   3.673   2.524 -0.1122  0.0642  0.0974
 3179W        W19653  12.337   3.759  13.462 -0.1596 -0.0529  0.3124
 3180W        W19654   6.563  19.002  14.352  0.2718  0.1833 -0.0718
 3181W        W19655  10.561  17.086   9.695  0.1081  0.0734 -0.3698
 3182W        W19656   1.114  15.321   1.825  0.0210 -0.0422  0.2573
 3183W        W19657   9.633  18.041  14.373  0.1809  0.0339 -0.2819
 3184W        W19658   0.871   4.710  11.899 -0.0539 -0.1482  0.2211
 3185W        W19659  18.977   9.601   0.782 -0.2254  0.1107 -0.1775
 3186W        W19660   3.349  12.793  11.606  0.0081 -0.2138  0.1645
 3187W        W19661   1.186  10.895  14.277  0.5001 -0.0194  0.0525
 3188W        W19662  15.879   8.557   2.864  0.2196  0.3390 -0.3430
 3189W        W19663   9.159  14.779  11.147 -0.0711  0.2484  0.2225
 3190W        W19664   3.108  13.711   2.350  0.0240 -0.1444 -0.2125
 3191W        W19665   0.575   8.575  13.267 -0.2668  0.2127  0.1640
 3192W        W19666  15.986   0.477   4.948  0.1320 -0.0640  0.1900
 3193W        W19667   1.648  16.330   2.404  0.0975  0.1339 -0.1100
 3194W        W19668  14.035   2.440   4.108  0.1076  0.2774  0.0597
 3195W        W19669   5.827  18.826   2.543 -0.1895 -0.0513  0.3466
 3196W        W19670  12.394   1.044  12.033 -0.3265  0.0598  0.2465
 3197W        W19671   2.903  16.928  12.327  0.5707 -0.1306 -0.1209
 3198W        W19672   2.407  15.895   0.344  0.0079  0.0721  0.2804
 3199W        W19673  16.310  17.415  13.016  0.1637 -0.0040 -0.0100
 3200W        W19674   4.019  12.925   0.723  0.2356  0.4215 -0.3138
 3201W        W19675  16.722  15.688   0.957 -0.1229 -0.2879 -0.0962
 3202W        W19676   8.005  15.740   0.874 -0.1524  0.0199 -0.3399
 3203W        W19677  16.173  12.766   4.483  0.3986 -0.0438  0.0481
 3204W        W19678  18.560   2.976  13.140  0.1443  0.1425  0.6481
 3205W        W19679   1.114  15.191   4.417 -0.1875  0.1226  0.0139
 3206W        W19680  17.502   8.911   4.285  0.3733  0.1394  0.1348
 3207W        W19681   2.325  17.342  13.709 -0.1634 -0.1489 -0.1763
 3208W        W19682   2.501   4.664   2.324  0.0520 -0.1620  0.2765
 3209W        W19683  18.722   2.346   0.880  0.1806  0.2401  0.0781
 3210W        W19684   4.894   7.059  10.483 -0.0670 -0.2361  0.1085
 3211W        W19685  15.374   3.854  11.283 -0.0427 -0.1945  0.1962
 3212W        W19686   2.861   4.438   4.568  0.1033  0.0935  0.2591
 3213W        W19687   6.004  16.827   2.746 -0.2194 -0.0227 -0.0354
 3214W        W19688  16.330  11.689  10.657 -0.0712 -0.2525  0.0296
 3215W        W19689  10.844   0.900  12.709 -0.0087 -0.1005  0.0404
 3216W        W19690   2.062   6.777  13.301 -0.2443 -0.0315  0.1356
 3217W        W19691   7.628  16.116  14.626 -0.0236  0.0192  0.0272
 3218W        W19692  15.975   0.380   0.508  0.1247  0.0764  0.3313
 3219W        W19693   2.148   5.852   3.117  0.0921  0.2425  0.1975
 3220W        W19694  15.084   3.046   5.623 -0.0743 -0.0700 -0.2007
 3221W        W19695   0.457  18.491   2.839 -0.1277 -0.0233 -0.0878
 3222W        W19696  11.661  18.773   0.899  0.0976  0.1358 -0.1741
 3223W        W19697  12.420   7.039  13.091  0.1448 -0.1954  0.0527
 3224W        W19698  14.441   1.377  13.150  0.0356 -0.2197  0.1615
 3225W        W19699   6.576   4.543  14.864 -0.0116  0.0075  0.0901
 3226W        W19700  14.650  14.691  12.472 -0.1884 -0.3253 -0.1422
 3227W        W19701   8.033   0.544   9.629 -0.1634 -0.1994 -0.1853
 3228W        W19702  18.411  18.766  12.236 -0.2152  0.3319 -0.3741
 3229W        W19703   4.794  12.117  13.982  0.0942  0.0545  0.1030
 3230W        W19704  16.039  14.193   4.279 -0.0264 -0.0931  0.0732
 3231W        W19705   8.954   4.442   2.511 -0.0172 -0.1079  0.1674
 3232W        W19706   3.609   4.662   0.263  0.0414 -0.1875 -0.1498
 3233W        W19707   6.832  11.667  10.813 -0.1075  0.2698 -0.1455
 3234W        W19708   2.984  14.385  12.340 -0.0228  0.0921 -0.0177
 3235W        W19709   5.483   1.808  12.400  0.0405 -0.0900 -0.0390
 3236W        W19710  12.898   3.643  12.695 -0.0785 -0.2201 -0.0584
 3237W        W19711   8.631  13.126  12.255  0.1041 -0.5887  0.1190
 3238W        W19712   6.882  15.383  13.748 -0.4916  0.1110  0.0599
 3239W        W19713   9.232  10.525  12.284  0.0350 -0.1001  0.1050
 3240W        W19714   4.270   3.633   2.442 -0.3697 -0.1076 -0.0596
 3241W        W19715   5.458  14.562   4.328  0.1979 -0.2181  0.6556
 3242W        W19716   7.816  15.147  14.620  0.1762 -0.1438 -0.0190
 3243W        W19717  14.616   8.507   4.746  0.1756  0.0129  0.0926
 3244W        W19718   6.770  12.147  14.145 -0.0536  0.3216  0.0992
 3245W        W19719  19.100   1.252   0.873  0.1267 -0.1218  0.0524
 3246W        W19720   7.985  13.459  10.812 -0.0946  0.1716 -0.0110
 3247W        W19721  17.847   9.299  10.779 -0.2597 -0.0630 -0.0284
 3248W        W19722  12.182   4.592   3.991 -0.0802 -0.1996  0.1535
 3249W        W19723   2.145  12.755   0.768 -0.0123 -0.2153  0.2821
 3250W        W19724   0.150   2.770   1.838  0.0433 -0.1991 -0.0533
 3251W        W19725   6.496  13.443   1.092  0.0723  0.0998 -0.0620
 3252W        W19726  14.921  16.439   1.693 -0.0995 -0.1015 -0.2404
 3253W        W19727   6.370   0.691   1.591 -0.0282  0.0153  0.4470
 3254W        W19728   9.387   9.263  11.822 -0.0509  0.1136  0.4594
 3255W        W19729  17.309   2.766  14.304  0.1289 -0.1207 -0.5390
 3256W        W19730   6.991   9.729   1.981  0.3329  0.1069  0.0179
 3257W        W19731   5.042   3.834   3.444 -0.0653 -0.2331  0.3745
 3258W        W19732  14.318   8.071  13.638 -0.0850 -0.2049 -0.0242
 3259W        W19733  14.996  13.792   4.359 -0.0783 -0.3163 -0.0427
 3260W        W19734  17.626   3.676   1.312  0.0138 -0.1767  0.1452
 3261W        W19735  13.930  13.830  13.235 -0.2312 -0.0927 -0.2081
 3262W        W19736  14.792   8.499  11.683 -0.1961  0.3376 -0.3271
 3263W        W19737  14.606  11.530   5.252 -0.0655  0.1317  0.0284
 3264W        W19738  13.700   8.402   1.753  0.4136 -0.0631  0.1377
 3265W        W19739  14.968   2.986   5.140 -0.1748  0.0719 -0.0703
 3266W        W19740  15.460  17.732  13.358  0.1379 -0.1830 -0.0115
 3267W        W19741  11.334   7.606  11.437 -0.1481  0.0346  0.1995
 3268W        W19742  18.663   7.506  14.879  0.2340  0.2098  0.3195
 3269W        W19743   9.436  18.169   1.569  0.3519  0.2404  0.1349
 3270W        W19744   1.849   0.080   1.531  0.3292  0.0868 -0.2809
 3271W        W19745   0.093   2.001   4.724  0.2428 -0.1916  0.0293
 3272W        W19746   3.918  19.031  12.931 -0.0301  0.0671 -0.0463
 3273W        W19747  10.157   9.250   5.211 -0.0378  0.0842  0.1765
 3274W        W19748   8.531   9.284  10.626 -0.3031  0.2900 -0.1015
 3275W        W19749   7.666   7.649  12.821 -0.2306 -0.0132  0.0554
 3276W        W19750  15.150  16.295  10.500 -0.0180 -0.3414  0.1399
 3277W        W19751  14.341   4.581  14.231  0.2970  0.1543 -0.0953
 3278W        W19752   5.992   6.668   0.974 -0.2729 -0.1509 -0.0634
 3279W        W19753   6.756   0.271   4.069  0.2723 -0.0565  0.1228
 3280W        W19754  11.826  16.137   1.811 -0.2027  0.0718 -0.2343
 3281W        W19755  16.723  13.392  12.711 -0.0539  0.2992 -0.1295
 3282W        W19756  15.923   3.606   2.731  0.0855 -0.0661  0.2558
 3283W        W19757  17.754  16.199   1.698  0.1534  0.2808  0.1450
 3284W        W19758  11.677  11.803  13.544  0.1132  0.4388 -0.0152
 3285W        W19759  10.388   6.203  11.651 -0.0766 -0.1995 -0.3232
 3286W        W19760  14.826  12.071   1.381  0.3857 -0.1899  0.1982
 3287W        W19761  16.471  11.930   3.326 -0.1152  0.3703  0.0556
 3288W        W19762   4.996   1.194   3.723  0.1229  0.0959  0.2155
 3289W        W19763   3.769  10.832   2.151 -0.0696 -0.2558 -0.0014
 3290W        W19764   4.074  14.843   0.358  0.1957 -0.6049 -0.1199
 3291W        W19765  13.579  10.643  12.029  0.1353 -0.0246  0.1193
 3292W        W19766  17.528  15.392   0.636  0.0283 -0.0339  0.0335
 3293W        W19767   6.098  18.579   2.877 -0.1303  0.2108  0.1572
 3294W        W19768  14.911  18.354  15.056  0.0914  0.1282 -0.0433
 3295W        W19769   6.867   9.579  11.223 -0.3243  0.0534 -0.1821
 3296W        W19770  11.155  11.009  14.691  0.1372 -0.3969  0.1549
 3297W        W19771   0.540  16.106   4.623 -0.3239  0.1132 -0.1019
 3298W        W19772  18.810  16.012   2.906 -0.0803  0.3329 -0.0809
 3299W        W19773   2.731  12.190  12.856 -0.0453  0.0141 -0.1793
 3300W        W19774  10.813  15.168   2.029  0.0451 -0.0584 -0.0664
 3301W        W19775  16.881   9.890   0.754 -0.4273 -0.2289  0.0592
 3302W        W19776   0.660   3.000  12.970  0.0632 -0.0037  0.0193
 3303W        W19777  13.820   9.311   3.075  0.0402 -0.3888  0.1106
 3304W        W19778  17.123  15.962  14.732 -0.2810 -0.0879  0.0112
 3305W        W19779  14.437   5.268   1.149 -0.0543 -0.3677 -0.0044
 3306W        W19780   5.239   5.003  12.674  0.0607  0.0703  0.2297
 3307W        W19781  12.989  11.718   0.328 -0.0722 -0.1247  0.2967
 3308W        W19782   5.177   5.313  11.815 -0.0581  0.1502  0.2408
 3309W        W19783   1.802  14.652   2.470  0.0164 -0.0899  0.1223
 3310W        W19784  12.799  14.122  14.013  0.1222 -0.0915 -0.3010
 3311W        W19785   3.174   1.654   4.775  0.4349  0.3228  0.2429
 3312W        W19786  18.995   2.735  12.897  0.0901 -0.0895  0.2327
 3313W        W19787   1.320   1.820   3.503  0.1328  0.0260  0.2335
 3314W        W19788  17.326   6.379   1.681 -0.0956 -0.2467  0.2342
 3315W        W19789   0.074  10.215  15.034  0.3206  0.3244  0.1528
 3316W        W19790   5.347   4.688   3.549 -0.0576 -0.1572  0.2817
 3317W        W19791   7.883   1.457  13.584 -0.0471  0.0469 -0.1047
 3318W        W19792  16.923   8.151   1.307  0.1911  0.1159  0.0857
 3319W        W19793   2.569   3.924   2.818  0.0034 -0.1708  0.0225
 3320W        W19794   6.893   6.549   3.429 -0.1082 -0.1518 -0.0901
 3321W        W19795  12.859  15.376   2.302  0.0395 -0.1109  0.1175
 3322W        W19796   8.891   2.666   3.779 -0.1020  0.1339 -0.3957
 3323W        W19797   8.282   8.077  14.487 -0.1447 -0.0754  0.1123
 3324W        W19798   9.034  17.891  12.912 -0.1682  0.0705 -0.1191
 3325W        W19799   5.401  18.175  11.645  0.1977  0.1889  0.1328
 3326W        W19800  15.678   1.735  13.795  0.1670  0.0904 -0.0237
 3327W        W19801  15.904   4.602  11.866  0.1097 -0.0652 -0.2943
 3328W        W19802  17.733   4.539   0.973 -0.0901 -0.1480 -0.2719
 3329W        W19803   1.830   0.124  11.757  0.0885  0.1004  0.1333
 3330W        W19804  13.956  16.573  10.518 -0.4244 -0.0450 -0.0286
 3331W        W19805  16.003   5.378   4.200  0.0841  0.1638 -0.1154
 3332W        W19806   4.833  14.719  12.947 -0.0931  0.1158 -0.0168
 3333W        W19807   8.467   4.194   4.390  0.1253  0.0791 -0.3723
 3334W        W19808   7.669  18.101   1.947 -0.2417  0.0690 -0.1538
 3335W        W19809  17.373   1.965   0.756 -0.3334  0.0952  0.0815
 3336W        W19810   0.264   3.424   1.966 -0.2234 -0.1401 -0.2364
 3337W        W19811  10.727   7.767  13.032  0.0722  0.1296  0.1340
 3338W        W19812  11.280  17.626   9.837 -0.2113  0.0630 -0.1828
 3339W        W19813  16.702   9.752  11.026  0.1466 -0.0369 -0.0320
 3340W        W19814   9.483  17.147   2.833 -0.0742  0.0086  0.2244
 3341W        W19815   6.555  17.398  13.406  0.3514  0.1517 -0.2923
 3342W        W19816   0.575   6.188   2.176 -0.0303 -0.0635 -0.0011
 3343W        W19817   0.765   3.377  14.886 -0.0474 -0.0836 -0.2166
 3344W        W19818  13.302  10.904   1.276  0.0038  0.1532 -0.2078
 3345W        W19819   9.044  15.813   5.622 -0.2946  0.0766 -0.2538
 3346W        W19820   6.006  12.761  12.370 -0.1649 -0.0538 -0.2013
 3347W        W19821  11.077   0.796   4.035  0.0906 -0.0526 -0.1099
 3348W        W19822  13.377   7.481   0.406 -0.0977  0.0839 -0.2440
 3349W        W19823  15.358   4.471  11.881 -0.0870  0.1449 -0.1390
 3350W        W19824  15.524   3.154   1.665 -0.0314  0.2050  0.2850
 3351W        W19825   0.398  12.230   0.894 -0.1097  0.0211  0.1481
 3352W        W19826  10.743  15.444   1.567 -0.1591 -0.0658 -0.0338
 3353W        W19827   2.030  12.771   0.156  0.1107  0.1074 -0.1392
 3354W        W19828  13.458   1.417  13.053 -0.4114 -0.0799  0.1399
 3355W        W19829   5.150   9.341   2.189  0.1997 -0.0889 -0.0256
 3356W        W19830   3.896   8.404   2.984  0.1565 -0.0456 -0.2441
 3357W        W19831   6.732  12.271   4.745  0.1508 -0.0537  0.0178
 3358W        W19832   0.890   3.174   0.269 -0.1565 -0.2283 -0.0428
 3359W        W19833  16.427   4.030  12.126  0.0646  0.1167  0.0342
 3360W        W19834   4.006  16.946   2.427  0.0247 -0.2470 -0.2152
 3361W        W19835   5.119   3.999   0.623 -0.1192  0.1212 -0.1608
 3362W        W19836   8.354   5.563  11.008 -0.0324 -0.5226 -0.0156
 3363W        W19837   1.117   3.591  14.455  0.2531  0.3184  0.0302
 3364W        W19838  11.726  10.018   3.594 -0.1249 -0.2489  0.2916
 3365W        W19839  10.178  11.537   4.066  0.1347 -0.0918 -0.0619
 3366W        W19840  14.430   8.892  12.379 -0.2402  0.3869 -0.1051
 3367W        W19841  18.362   7.021  11.389 -0.2424 -0.3512  0.2587
 3368W        W19842  12.004  16.770   4.543  0.0037 -0.0031 -0.1316
 3369W        W19843  12.093   6.591  14.977  0.1171 -0.0790 -0.0862
 3370W        W19844  14.267  10.632   2.834  0.0875  0.0110 -0.1372
 3371W        W19845  10.806   0.704  11.748 -0.2610 -0.0048 -0.0831
 3372W        W19846   3.030  14.661   5.015  0.2076 -0.3589 -0.0929
 3373W        W19847   0.900  18.307  13.830  0.3159 -0.1381  0.1333
 3374W        W19848  16.612  10.315   2.907  0.0739  0.3663 -0.2101
 3375W        W19849  15.565  11.387  11.386  0.0025 -0.1431  0.1791
 3376W        W19850   5.162   6.186   3.784 -0.0312 -0.0641  0.0171
 3377W        W19851  10.058  16.723   0.051 -0.1608 -0.2764 -0.1507
 3378W        W19852   1.377  17.509  10.045 -0.0711 -0.0767  0.2549
 3379W        W19853   9.858   6.826  12.276 -0.0472  0.0543  0.2226
 3380W        W19854  10.928   6.385   0.395 -0.0572 -0.0061 -0.2671
 3381W        W19855   9.735  10.793   1.603  0.0279  0.0528  0.0071
 3382W        W19856  12.794   7.881   4.994 -0.0075 -0.1312 -0.1275
 3383W        W19857  11.406  15.799   2.574  0.0071  0.0378 -0.0649
 3384W        W19858  16.798   8.229  12.593  0.1227 -0.3060 -0.0304
 3385W        W19859   3.929   2.723  13.877  0.1714  0.2128  0.1944
 3386W        W19860  16.396   5.019   4.367  0.1526  0.0516 -0.1782
 3387W        W19861  14.569   0.984  12.892 -0.0539 -0.0626 -0.0032
 3388W        W19862  12.668   2.911  11.589 -0.0290  0.2854 -0.2398
 3389W        W19863  14.392   7.273   4.181 -0.2938  0.0658 -0.1851
 3390W        W19864  14.268   5.699   2.404  0.1645  0.2132 -0.1847
 3391W        W19865   6.264   0.604  13.295 -0.1301  0.1646  0.0613
 3392W        W19866   3.913   0.508   0.068 -0.0959  0.2096  0.2062
 3393W        W19867  11.755   1.906   4.076  0.1155 -0.2840  0.0263
 3394W        W19868  14.201   9.384  12.226 -0.1699 -0.0706 -0.4528
 3395W        W19869  17.261  14.529  13.428  0.2027 -0.0587 -0.3932
 3396W        W19870  13.630   8.182   2.182  0.3143 -0.4459 -0.0947
 3397W        W19871  10.894  11.280  11.069 -0.2030  0.0648  0.0847
 3398W        W19872   3.691  14.644  12.287  0.1760 -0.1963 -0.4735
 3399W        W19873  17.900  16.043  12.463  0.1445  0.2015 -0.3183
 3400W        W19874   3.041  17.612  11.028  0.0356 -0.3569 -0.2148
 3401W        W19875  10.528  12.318   3.016  0.2077 -0.1097  0.1823
 3402W        W19876  12.167  18.716   2.759 -0.5124 -0.0750 -0.3147
 3403W        W19877  10.566  11.791   1.192  0.2255 -0.2483 -0.0891
 3404W        W19878   4.594   3.935   3.638  0.1415 -0.2208 -0.2961
 3405W        W19879   1.896   0.254  10.979 -0.2437 -0.0010  0.1359
 3406W        W19880   2.476  11.850  14.471 -0.0390 -0.0235  0.1307
 3407W        W19881  15.895   7.535  13.160  0.1617  0.3634  0.1038
 3408W        W19882   7.608  12.094  10.592 -0.0973 -0.1278 -0.4047
 3409W        W19883   7.050   1.508  14.075 -0.0817  0.2178 -0.1959
 3410W        W19884  14.418   9.063  13.216  0.1195  0.1089 -0.2615
 3411W        W19885   6.774  13.998  13.646 -0.0972  0.0012 -0.1130
 3412W        W19886  13.297   5.993   4.027 -0.0685  0.1204 -0.0296
 3413W        W19887   4.060  11.186   0.481  0.1255 -0.0705  0.1754
 3414W        W19888  16.410  14.599   3.288  0.2672 -0.1320 -0.4151
 3415W        W19889   5.424  14.161   4.726 -0.1827  0.2270  0.1508
 3416W        W19890  14.607  12.336   4.790 -0.3658  0.0703 -0.0677
 3417W        W19891  18.841   6.538   2.106 -0.1655 -0.1641  0.2083
 3418W        W19892  10.029   7.584  11.663 -0.1763  0.2324 -0.0776
 3419W        W19893  15.038  11.050   0.965  0.1709  0.1151 -0.0678
 3420W        W19894  10.818   1.845  12.298  0.1017 -0.0358  0.1711
 3421W        W19895   6.464  10.975  12.141  0.0547 -0.1738 -0.0734
 3422W        W19896  14.724   1.769  12.923  0.1752  0.1483  0.1887
 3423W        W19897   8.826   6.957  14.637  0.1490  0.1057 -0.0315
 3424W        W19898   5.877  17.403   4.011  0.3290  0.1914  0.1901
 3425W        W19899   6.755   3.944   1.607 -0.3491  0.2342  0.3211
 3426W        W19900  15.584  12.102   5.742  0.3653 -0.2125 -0.0398
 3427W        W19901   7.405   0.297   3.907 -0.2170  0.3957  0.2245
 3428W        W19902  10.680   4.345   1.586 -0.0520 -0.0142 -0.3734
 3429W        W19903   6.399  10.096   2.530 -0.4546  0.1055 -0.3236
 3430W        W19904   4.495  11.564   0.893  0.0105 -0.2693  0.2236
 3431W        W19905  17.701  16.523  12.119  0.2157  0.1040  0.0673
 3432W        W19906  11.622   5.953   3.858 -0.2341 -0.0315 -0.1029
 3433W        W19907   3.537  12.933  13.754  0.0855  0.2101 -0.1145
 3434W        W19908  16.022  16.133   2.110 -0.1288  0.1591 -0.0399
 3435W        W19909  12.789   9.120   1.078 -0.1320 -0.0285 -0.0208
 3436W        W19910  16.100   4.161  10.049 -0.1086  0.2413 -0.0843
 3437W        W19911  16.356  12.084   1.268 -0.1118  0.2370 -0.2442
 3438W        W19912   0.923   5.743   0.055 -0.5062  0.1132 -0.1723
 3439W        W19913  16.684   7.425   2.697 -0.2565 -0.3445 -0.3847
 3440W        W19914   4.261   1.865   4.832  0.1373 -0.2071 -0.1501
 3441W        W19915  12.883  11.855   1.807  0.1478 -0.0300 -0.1360
 3442W        W19916   7.354  11.866  11.659  0.1737 -0.2929  0.0688
 3443W        W19917   7.911  18.180  10.453 -0.0365 -0.0162  0.2323
 3444W        W19918   3.483   8.165  14.740  0.0610 -0.0062  0.1031
 3445W        W19919  12.292   9.414   4.247  0.2096 -0.2310 -0.3170
 3446W        W19920   2.746  14.264   4.583 -0.1258 -0.5721 -0.1650
 3447W        W19921   3.395  14.796  14.461 -0.3087 -0.1244 -0.2073
 3448W        W19922   6.563  11.178   3.227 -0.0602  0.0604  0.1946
 3449W        W19923   0.190  10.547  10.446 -0.5381 -0.0762 -0.0604
 3450W        W19924   9.531   2.036  10.749 -0.1375 -0.0976  0.2378
 3451W        W19925  11.822   0.061   0.958  0.0827 -0.0995  0.0994
 3452W        W19926   1.254   0.309   0.775 -0.1235 -0.0398 -0.1840
 3453W        W19927   2.627   5.635  14.346  0.0867  0.3490 -0.0414
 3454W        W19928   7.385  12.259  13.154 -0.1255  0.2221  0.0229
 3455W        W19929   2.847   8.165  11.756 -0.1023 -0.1346 -0.0795
 3456W        W19930  10.915  15.241   5.251 -0.1977  0.1505  0.1374
 3457W        W19931  10.342   0.364  13.234 -0.2249 -0.1926 -0.1073
 3458W        W19932  15.835   3.330  13.815  0.0536 -0.1910  0.1193
 3459W        W19933   4.397  12.607   2.419  0.1256 -0.2881 -0.4889
 3460W        W19934  12.684  16.787   5.280 -0.1590  0.1473 -0.2092
 3461W        W19935  12.685  16.631  10.222 -0.1090  0.2230  0.3313
 3462W        W19936  11.633   4.771  11.326  0.1515 -0.1548  0.0257
 3463W        W19937  10.262  11.574   0.850  0.0235  0.0238 -0.0448
 3464W        W19938  16.929  14.190  13.683  0.3292  0.2298 -0.2518
 3465W        W19939   7.808   0.605   1.653 -0.2714  0.0413 -0.2423
 3466W        W19940  14.030  15.494  11.127 -0.1629  0.4145 -0.0797
 3467W        W19941  16.892   5.260   4.025 -0.1700  0.2139  0.2015
 3468W        W19942   2.288   9.026   1.510 -0.0301  0.1975  0.4939
 3469W        W19943   0.798  16.455  10.581 -0.3381 -0.2055 -0.3028
 3470W        W19944  18.390  12.570  13.177 -0.2570  0.4601 -0.2850
 3471W        W19945  15.418  12.936  11.159  0.2331 -0.2418 -0.1034
 3472W        W19946  11.574   6.129   1.561 -0.1094  0.1467 -0.2311
 3473W        W19947   4.514   9.124  13.393  0.0886  0.0773 -0.0903
 3474W        W19948   1.102  10.033  10.819  0.0536 -0.3054  0.4395
 3475W        W19949  11.954  12.458  13.226 -0.1377 -0.1907  0.1110
 3476W        W19950  10.361   1.857   4.916  0.0131  0.1622 -0.3658
 3477W        W19951   6.113   8.967   4.377  0.2032 -0.1180  0.0186
 3478W        W19952  10.146   6.353   3.094 -0.2866 -0.0772  0.3482
 3479W        W19953   7.117   1.116   1.197  0.1735  0.0781 -0.0233
 3480W        W19954   3.511  15.757   4.810 -0.0389 -0.1102 -0.2014
 3481W        W19955   6.054   7.706   4.761  0.1996 -0.1194  0.0339
 3482W        W19956  14.953  13.639  12.479 -0.4771 -0.0241  0.1063
 3483W        W19957   9.811   3.262   3.675  0.1936  0.0014 -0.1773
 3484W        W19958   8.585   9.257  12.202  0.0029 -0.2356 -0.1307
 3485W        W19959   2.279   9.540   1.536 -0.2151  0.2322  0.2070
 3486W        W19960   5.284   9.561  10.910 -0.2108 -0.1184  0.5350
 3487W        W19961   7.530  13.214   0.259 -0.1001  0.1662  0.0779
 3488W        W19962  15.654  13.472   0.385 -0.0406 -0.2121 -0.1191
 3489W        W19963   9.579   9.750   9.934 -0.0757 -0.1801 -0.1806
 3490W        W19964   9.958   3.330  14.519  0.0902  0.1058  0.0671
 3491W        W19965  11.968  16.364  14.364 -0.4676  0.2315 -0.0096
 3492W        W19966  12.444   0.914   2.046 -0.2755  0.0089  0.4356
 3493W        W19967   3.005  14.914  14.152 -0.0473  0.0987  0.2813
 3494W        W19968  13.412   3.979   1.939  0.4851  0.2831  0.0541
 3495W        W19969  12.058   1.655   2.772  0.1344 -0.1776  0.0339
 3496W        W19970  18.215   9.724   1.937  0.1076 -0.1407 -0.0400
 3497W        W19971  17.445  17.364  10.207 -0.1100  0.1667 -0.2557
 3498W        W19972   8.259  10.922  11.569  0.1764  0.0147  0.1089
 3499W        W19973  16.842  18.825  13.396  0.1183 -0.0618 -0.0199
 3500W        W19974  18.592  11.359  14.159  0.0846  0.1658 -0.2048
 3501W        W19975  13.778  11.684  14.317 -0.1186 -0.1029 -0.1767
 3502W        W19976   0.292   3.107   1.457  0.3918  0.1431 -0.1408
 3503W        W19977   2.624   1.134  12.397 -0.1414  0.0875  0.2926
 3504W        W19978   2.306  17.673  15.002  0.0117  0.1424 -0.1362
 3505W        W19979  12.871   3.189   4.270  0.0719 -0.2861 -0.2736
 3506W        W19980  18.353  16.598   2.269 -0.0443 -0.1008 -0.0826
 3507W        W19981   4.995   8.212   1.877 -0.0279  0.1989  0.0266
 3508W        W19982  18.070  10.241  12.267 -0.1977 -0.2914  0.3944
 3509W        W19983  12.191   1.832   4.376  0.0104  0.0816 -0.0903
 3510W        W19984  14.320   1.182   2.703  0.0585 -0.1509 -0.1508
 3511W        W19985   4.209   4.031   0.539  0.1498 -0.2846 -0.2545
 3512W        W19986   0.459   2.008  11.154  0.5035 -0.3208  0.1363
 3513W        W19987  14.988   3.810   0.467 -0.3296 -0.0838 -0.0110
 3514W        W19988  13.902   4.100   3.263  0.3770  0.0696 -0.1053
 3515W        W19989   2.501  10.289  13.488 -0.0509 -0.0590 -0.0896
 3516W        W19990   0.003   4.721   4.012  0.1091  0.0825 -0.1666
 3517W        W19991  14.722   2.904  12.852 -0.0008 -0.3874  0.1638
 3518W        W19992  13.460  12.047   1.871  0.1437  0.1031  0.1894
 3519W        W19993  11.615   2.116  14.062 -0.0034  0.1894  0.3452
 3520W        W19994  18.801   5.180  10.970 -0.2200  0.1675 -0.0279
 3521W        W19995   3.470  12.210  14.721  0.1717 -0.1345  0.1458
 3522W        W19996   2.944   2.051   3.582  0.1325 -0.0430  0.2127
 3523W        W19997   7.031   2.580   1.083 -0.1352  0.2300 -0.1382
 3524W        W19998   7.729   0.749  10.464  0.1135  0.1867  0.3459
 3525W        W19999   2.612   7.690   2.753  0.1137  0.0285 -0.3259
 3526W        W20000   8.141   4.878  12.912  0.0783  0.0272 -0.0026
 3527W        W20001   7.503   1.584   4.601 -0.3356 -0.3336  0.0834
 3528W        W20002  18.392  12.465  15.094 -0.4451 -0.2301  0.0351
 3529W        W20003   3.909  11.559  14.316  0.1143 -0.1914  0.1003
 3530W        W20004  12.730  12.152   4.347 -0.1372  0.2512  0.1044
 3531W        W20005   7.822   9.103   4.514  0.0218 -0.3085  0.2008
 3532W        W20006  11.523   0.358  13.258  0.0961  0.1933  0.1684
 3533W        W20007  14.292  15.352  13.882  0.0901  0.0424  0.2070
 3534W        W20008  11.848   0.384  14.378  0.0031 -0.2778  0.1669
 3535W        W20009  12.900  17.325   1.720  0.2707 -0.0025  0.0936
 3536W        W20010  13.929  16.062  10.489  0.3334  0.0230  0.2640
 3537W        W20011   2.144  13.057  11.315  0.0355 -0.1852  0.2599
 3538W        W20012  10.480   3.050  10.752  0.0141 -0.0196  0.0750
 3539W        W20013  12.331   4.585   2.597  0.1025 -0.0642  0.2138
 3540W        W20014   8.806  13.614   2.451  0.0707  0.4088 -0.2621
 3541W        W20015   5.329  17.339   3.654 -0.0631  0.0460 -0.0802
 3542W        W20016  17.540   0.745   3.105 -0.0513 -0.3103 -0.2998
 3543W        W20017   8.361  14.734  13.614 -0.2080  0.2431  0.1846
 3544W        W20018  12.417   8.695   5.166  0.0442 -0.1399  0.3064
 3545W        W20019  14.667   1.008   2.405  0.1743  0.0551  0.0922
 3546W        W20020   6.347   8.057   2.807  0.1626  0.0701 -0.0349
 3547W        W20021   1.357   7.338   4.154 -0.2028 -0.0153 -0.3878
 3548W        W20022  15.657   7.664   2.846  0.1744  0.1382 -0.3576
 3549W        W20023   5.038  12.658   3.635  0.0156 -0.0159  0.3496
 3550W        W20024  13.080   9.370   5.330 -0.0879  0.1981  0.0410
 3551W        W20025   1.649  10.715   3.429 -0.0484  0.1556  0.0342
 3552W        W20026   3.754  15.326  11.362 -0.1281 -0.2037  0.0057
 3553W        W20027   0.988   6.422   1.860  0.3778 -0.2354 -0.0608
 3554W        W20028   5.672  10.325  13.590 -0.0306  0.1064  0.0859
 3555W        W20029  11.593  16.638   1.833  0.2255  0.1313 -0.0080
 3556W        W20030   4.924  12.602  14.085  0.0168  0.2692 -0.1947
 3557W        W20031  18.435   5.597  11.111  0.0467  0.2470 -0.3247
 3558W        W20032  16.086  18.169   9.567  0.3607  0.4354 -0.0879
 3559W        W20033   6.086   0.463   5.021 -0.1110  0.3543  0.0182
 3560W        W20034  12.141   5.198   4.242  0.1907 -0.0477  0.0835
 3561W        W20035   4.182   4.967   3.530 -0.1421  0.0175  0.4191
 3562W        W20036  10.144   8.621   2.214  0.2225  0.0419  0.0270
 3563W        W20037   5.182  17.647   5.161 -0.0291 -0.2234  0.1662
 3564W        W20038  13.153  18.049  13.681  0.1365 -0.0291  0.1672
 3565W        W20039   6.615  16.511   1.601  0.0271  0.0151 -0.1858
 3566W        W20040  17.948   4.986   1.281 -0.2000  0.1643 -0.0582
 3567W        W20041  13.642  17.030  10.452 -0.3075 -0.1660  0.4259
 3568W        W20042  18.984  17.511   1.471  0.1213 -0.2493  0.3442
 3569W        W20043  14.781   2.355   0.773  0.0453  0.1053 -0.0561
 3570W        W20044   7.420   9.563   1.749 -0.4300 -0.0050  0.1560
 3571W        W20045  10.708  12.991  12.925 -0.0817  0.4221 -0.5055
 3572W        W20046  10.605   4.085  13.026 -0.0248  0.0728  0.0962
 3573W        W20047   7.884  12.715   2.453 -0.1507  0.2810  0.0852
 3574W        W20048  12.247   2.854   4.489 -0.0734 -0.0534  0.1222
 3575W        W20049  15.095  15.141  13.722  0.2036  0.2830  0.2535
 3576W        W20050   5.873   3.181   3.907  0.4206 -0.0768 -0.1813
 3577W        W20051  13.509   2.861  11.218 -0.4331 -0.1781 -0.2472
 3578W        W20052  16.385  14.649   1.944 -0.0376  0.0493  0.0526
 3579W        W20053  16.758   3.847  14.961 -0.0041  0.2402 -0.4896
 3580W        W20054   1.417  12.758  12.453 -0.0198 -0.0502 -0.1325
 3581W        W20055  16.190   5.379  11.324  0.0545 -0.1190 -0.2842
 3582W        W20056  12.881  12.579   4.713 -0.0014 -0.1756 -0.2015
 3583W        W20057   0.694  16.164   0.032 -0.0739 -0.0998 -0.1941
 3584W        W20058   6.884  13.581  10.945  0.1587  0.4476  0.1641
 3585W        W20059  10.609  12.403   0.335 -0.3704 -0.5056  0.0726
 3586W        W20060   5.796   1.964   3.553  0.1506 -0.2603  0.2607
 3587W        W20061   8.408  14.039  12.498  0.2523 -0.2404  0.0887
 3588W        W20062   0.404  15.371   3.836  0.1534 -0.2243  0.0709
 3589W        W20063  13.830   8.697  14.748  0.2512  0.2144 -0.0705
 3590W        W20064   5.882   4.271  13.219  0.0283 -0.0442  0.2428
 3591W        W20065  11.284  10.024  11.834  0.0354  0.0761 -0.3082
 3592W        W20066  11.090  18.709  11.089 -0.1569  0.5594 -0.1933
 3593W        W20067   7.908   6.843   0.261  0.0750 -0.4313  0.0248
 3594W        W20068   9.609  15.464  14.207  0.0868  0.0262  0.3751
 3595W        W20069   8.300   9.108  11.698 -0.4064  0.2419 -0.1165
 3596W        W20070  17.966  10.599  11.873  0.0446 -0.0741 -0.0145
 3597W        W20071   1.703   9.130   3.374 -0.0513 -0.0134  0.0278
 3598W        W20072   8.061  15.949   1.894 -0.1506 -0.0828  0.0853
 3599W        W20073  16.194   4.647   1.300 -0.3269 -0.1071  0.1502
 3600W        W20074  18.862  11.687   3.726  0.3565  0.0505  0.2582
 3601W        W20075   9.161  10.250   0.133  0.1108  0.2591 -0.3270
 3602W        W20076  18.662  10.221   3.806  0.3662  0.0239  0.1466
 3603W        W20077   7.139  15.270  12.419 -0.2408  0.0454  0.3170
 3604W        W20078   7.679  15.820   2.176  0.2866 -0.0331  0.0856
 3605W        W20079   1.506   2.613  11.995 -0.3215 -0.2723  0.1464
 3606W        W20080  17.712   6.725   0.380 -0.2465  0.0691  0.1499
 3607W        W20081  13.165  10.975  13.781 -0.0027  0.0405 -0.1100
 3608W        W20082   0.066   4.627  12.440 -0.1157 -0.4935  0.2496
 3609W        W20083  14.895   2.607   3.329  0.0309  0.1414  0.3212
 3610W        W20084  10.885   5.821   5.259  0.2646  0.1092  0.5650
 3611W        W20085  10.156  18.062  14.490 -0.1147  0.1714  0.1325
 3612W        W20086  13.584  16.171   3.586 -0.0959 -0.0409  0.2964
 3613W        W20087   1.290  12.035  14.365 -0.0568  0.1088  0.0072
 3614W        W20088  13.568  10.531  15.115 -0.0672  0.1602 -0.2231
 3615W        W20089  14.896   6.924   2.700  0.4726 -0.3088 -0.1756
 3616W        W20090  11.604  14.749   4.689 -0.2840  0.2007  0.2019
 3617W        W20091   5.859  12.842   1.653  0.1549  0.3713 -0.0446
 3618W        W20092   9.780   7.324   5.462  0.1541 -0.1402 -0.2423
 3619W        W20093   3.553  18.796   0.554 -0.0690 -0.1784 -0.0799
 3620W        W20094   8.769   7.553  13.798  0.1188 -0.3074  0.1121
 3621W        W20095  17.921   0.291  14.516  0.3053  0.1718  0.0063
 3622W        W20096  17.009   9.182   1.701 -0.1027  0.0033 -0.0772
 3623W        W20097   1.994   6.187   0.239 -0.2141  0.3276  0.0100
 3624W        W20098  12.782   7.947  13.231  0.2024  0.1092 -0.1520
 3625W        W20099  15.482   1.889   0.098 -0.3747  0.0803 -0.2035
 3626W        W20100   0.111  16.187   5.379  0.1072 -0.0725  0.1753
 3627W        W20101  15.509   3.133  14.618  0.0204 -0.1893 -0.0956
 3628W        W20102   7.680  11.001   3.181 -0.0642  0.1069  0.5016
 3629W        W20103  13.181   8.383   1.694  0.1804  0.4329 -0.3849
 3630W        W20104   5.108   1.953  10.466 -0.3042  0.0210 -0.1602
 3631W        W20105  16.056  12.839   1.218  0.1054 -0.1172 -0.1069
 3632W        W20106   5.181  13.988  15.040 -0.1952 -0.2721 -0.2848
 3633W        W20107   4.310   2.891  11.229  0.3076 -0.1016  0.0165
 3634W        W20108  15.545  17.227  10.543 -0.2033 -0.2785 -0.1426
 3635W        W20109  13.620   1.927  13.185  0.1053  0.0301 -0.1875
 3636W        W20110   3.289  18.079   0.198  0.0603 -0.1581 -0.1106
 3637W        W20111   8.922  10.567  13.955  0.0956  0.2815  0.0707
 3638W        W20112  13.197   5.317  13.361  0.0958  0.0274 -0.3207
 3639W        W20113   4.325  11.672  13.900  0.1829 -0.0760  0.0157
 3640W        W20114   0.900  11.080  13.387  0.0325  0.0680 -0.2668
 3641W        W20115   6.655   6.873   4.449  0.1056 -0.2141  0.0901
 3642W        W20116  13.107   7.942   2.661 -0.0646 -0.0133 -0.0087
 3643W        W20117   4.196   3.719   2.910 -0.1182 -0.1118 -0.1506
 3644W        W20118   2.851  17.035   4.846  0.0049 -0.0156 -0.4375
 3645W        W20119   3.855  12.839  10.846  0.2768  0.1440  0.1004
 3646W        W20120  14.231  18.567  12.168 -0.1070 -0.0055  0.4198
 3647W        W20121   1.688  14.602  10.252 -0.1306 -0.1450  0.1838
 3648W        W20122   4.876  13.118  11.025 -0.1997  0.3391  0.1275
 3649W        W20123   0.506   5.001   2.742  0.3119 -0.1995  0.0581
 3650W        W20124   5.219   2.486  11.624 -0.3211  0.1057  0.1637
 3651W        W20125  11.610   7.668  13.676  0.1041  0.1157  0.4626
 3652W        W20126  14.486  10.175   1.082  0.0190  0.0184 -0.0376
 3653W        W20127  14.809  13.075  14.643  0.1905  0.0215 -0.1557
 3654W        W20128  14.559   6.874   0.630 -0.0550 -0.0591  0.1524
 3655W        W20129   5.610   7.939   1.375 -0.0574 -0.0913  0.0800
 3656W        W20130  11.616   6.848   2.405  0.1122 -0.0834  0.0495
 3657W        W20131   9.102   8.080   0.420  0.3178  0.0831  0.1035
 3658W        W20132   4.410  14.335  13.867 -0.2206  0.0738 -0.1365
 3659W        W20133   6.840   3.848   4.016  0.0349 -0.0883  0.2078
 3660W        W20134   3.376  11.895  15.126 -0.0845  0.0533 -0.1619
 3661W        W20135  13.719  12.779   2.164  0.2226 -0.2063  0.0190
 3662W        W20136   6.328  11.089   4.846 -0.0307  0.2717  0.2653
 3663W        W20137  18.127  15.595  12.317  0.1719 -0.0950  0.0416
 3664W        W20138   6.706   5.851   0.643 -0.1889  0.0232 -0.1508
 3665W        W20139   6.872   5.537   4.942  0.1411  0.1238 -0.0830
 3666W        W20140  17.152  12.036   4.342 -0.1120  0.3222 -0.0524
 3667W        W20141  14.807  11.487  13.100  0.2026  0.3912  0.1996
 3668W        W20142  14.792  16.532   0.826  0.1917  0.1929 -0.1929
 3669W        W20143  16.471  12.724   3.093  0.1802  0.1418 -0.0309
 3670W        W20144   1.502   8.818  12.220  0.2407  0.3166 -0.4648
 3671W        W20145   4.538  13.229  14.652  0.2383 -0.0142  0.0986
 3672W        W20146  18.958  15.412   0.110  0.1316  0.0529  0.0210
 3673W        W20147   3.428   2.345   3.747 -0.0317 -0.3798 -0.1226
 3674W        W20148  15.452   4.583  12.383 -0.2929 -0.0800  0.3239
 3675W        W20149  14.067   9.084  11.326  0.1554 -0.4090  0.0748
 3676W        W20150   9.544  13.436  10.737 -0.0979  0.2563 -0.3145
 3677W        W20151  17.435   5.196   2.258 -0.0139  0.0514  0.0043
 3678W        W20152  12.550   2.150  10.526 -0.2039 -0.0562  0.3287
 3679W        W20153   8.131  17.706  13.781  0.0493 -0.0150 -0.0925
 3680W        W20154  13.867  18.564   3.353 -0.3840  0.1906  0.2904
 3681W        W20155   4.356   2.031   0.469  0.0980 -0.2914 -0.4461
 3682W        W20156   4.237  16.871  11.994  0.1991  0.0046 -0.1478
 3683W        W20157  12.977  12.404  11.229 -0.2460  0.1009  0.0520
 3684W        W20158  11.361   2.024  11.826 -0.1730 -0.0696  0.1983
 3685W        W20159  15.204  11.358  14.660 -0.0720  0.0625 -0.1613
 3686W        W20160  14.417  11.658   2.621 -0.1832 -0.0904  0.0352
 3687W        W20161   9.503  10.560   3.926 -0.0511 -0.2538  0.1445
 3688W        W20162  10.813  13.114  12.222 -0.0421 -0.2277  0.3793
 3689W        W20163   4.011   7.056   1.783  0.2804 -0.0644  0.2791
 3690W        W20164   4.963  10.360   4.037 -0.3541  0.1930 -0.0493
 3691W        W20165   3.299  16.005   0.489  0.2591  0.0449 -0.0709
 3692W        W20166  14.711  16.895   5.495  0.1693 -0.3388 -0.1884
 3693W        W20167   2.075   7.224   3.857 -0.1134  0.0226 -0.0769
 3694W        W20168  16.877  11.166   1.772 -0.1767 -0.1546 -0.2753
 3695W        W20169  19.018   5.180  14.286  0.1646  0.3254  0.0616
 3696W        W20170  10.809  17.150  12.456  0.0636  0.0003  0.2422
 3697W        W20171  11.015   7.292   0.391 -0.0193 -0.1280 -0.0922
 3698W        W20172   5.816   5.947  11.585  0.0636  0.3701 -0.2825
 3699W        W20173  15.017  11.121  10.743  0.0706 -0.0339 -0.2073
 3700W        W20174  16.621   8.786  11.814 -0.1629  0.0203  0.2002
 3701W        W20175  14.727   2.477   3.903 -0.0888  0.2186 -0.2796
 3702W        W20176  17.919  18.115  14.600 -0.0530  0.1540 -0.2157
 3703W        W20177   5.777   0.546  14.062  0.0451 -0.0696 -0.1108
 3704W        W20178   6.333  17.672  12.464  0.1130  0.1512 -0.3737
 3705W        W20179  14.023   7.247   1.179 -0.1512  0.0872 -0.0336
 3706W        W20180  11.360  18.706   3.951 -0.2843 -0.1738  0.3554
 3707W        W20181  17.295  18.729   0.470  0.0579 -0.1841 -0.1001
 3708W        W20182   4.299  12.932  11.151 -0.2382  0.0173  0.0561
 3709W        W20183   6.633   6.059  13.975 -0.5833  0.1284  0.0443
 3710W        W20184  14.872  15.321  12.437 -0.0181  0.1115 -0.5349
 3711W        W20185  13.512  11.527   1.626 -0.0319  0.1016 -0.0291
 3712W        W20186   5.325  11.260   0.075 -0.2882 -0.0444  0.0521
 3713W        W20187   6.175   3.762  14.336 -0.0169 -0.0424  0.0664
 3714W        W20188  10.767  13.131   1.695 -0.1210  0.1700  0.1667
 3715W        W20189   3.523   4.794  12.050 -0.2178 -0.0662 -0.1937
 3716W        W20190  10.668   5.072   2.798  0.1605 -0.2561  0.3207
 3717W        W20191  10.610  15.467  11.258  0.1853  0.0673  0.3330
 3718W        W20192  17.030  14.772   0.664  0.0074  0.0734  0.0901
 3719W        W20193   2.286   0.679  12.271  0.1507 -0.1154 -0.2064
 3720W        W20194  11.139   3.594  14.801 -0.0681 -0.1338  0.2767
 3721W        W20195  13.488   7.304   1.125  0.1994 -0.0914  0.1597
 3722W        W20196   6.660   9.074   1.503  0.1706 -0.1455  0.0474
 3723W        W20197  18.798   3.768   1.516  0.0888  0.0733 -0.2332
 3724W        W20198  11.568   4.777   1.220 -0.2907 -0.3254 -0.1876
 3725W        W20199  12.381   9.427   0.938  0.1464 -0.0264  0.0867
 3726W        W20200   5.548  16.042  13.575  0.0659  0.4329 -0.0390
 3727W        W20201  14.424   3.263   2.079 -0.0013 -0.0875  0.0631
 3728W        W20202  15.278  10.077   3.340 -0.0300 -0.0274 -0.0631
 3729W        W20203  16.029   7.878   4.472  0.1453  0.4608 -0.1848
 3730W        W20204   1.909  13.281  13.371  0.2538  0.2713 -0.0031
 3731W        W20205   6.583  17.585   1.646  0.0228  0.0567 -0.1018
 3732W        W20206   6.181   7.333   5.648 -0.1781  0.2291  0.4775
 3733W        W20207  10.015   7.578   2.495  0.0952  0.0971  0.0196
 3734W        W20208  17.460  10.512   3.990  0.2340 -0.1752  0.0832
 3735W        W20209  19.032  14.188  12.928  0.1943 -0.1061 -0.1161
 3736W        W20210   4.104   3.975  11.741 -0.0530 -0.4094 -0.0958
 3737W        W20211  10.098   0.959   3.875  0.1054  0.1009 -0.1231
 3738W        W20212   2.964  17.700   5.376  0.0658  0.0106 -0.1973
 3739W        W20213  13.362   9.789  10.917  0.2082  0.2991 -0.0611
 3740W        W20214   9.807   8.105  11.679 -0.0249  0.0315 -0.1867
 3741W        W20215   9.950  11.041   5.368 -0.0321  0.0995 -0.3858
 3742W        W20216  16.213   9.140  11.609 -0.1565 -0.1255  0.2571
 3743W        W20217  11.261   2.668  13.354  0.2905 -0.2452  0.0157
 3744W        W20218   3.634  10.056  11.966 -0.0143 -0.4832  0.0537
 3745W        W20219   3.756  16.591   9.758 -0.3290  0.1794 -0.2697
 3746W        W20220   0.040  12.071   3.818  0.3060 -0.3093 -0.1242
 3747W        W20221   8.123  15.898   3.923 -0.0205 -0.0147 -0.0200
 3748W        W20222   8.115   7.871  13.009 -0.0105  0.0493 -0.2444
 3749W        W20223  16.057   7.469  13.728 -0.1764  0.3010  0.2672
 3750W        W20224  17.521   2.161  13.317  0.2320  0.0335  0.0149
 3751W        W20225  13.380   9.466  14.805 -0.0683  0.2077  0.1299
 3752W        W20226  13.435  13.950  14.209  0.0489 -0.0550 -0.0126
 3753W        W20227  18.691  16.956  12.540  0.0210  0.5023 -0.2686
 3754W        W20228  17.282   9.056   2.585  0.0966 -0.1538 -0.1226
 3755W        W20229   5.360  17.246  11.660  0.0378  0.0144  0.1938
 3756W        W20230   9.828   9.990   4.783 -0.0145 -0.2660  0.2002
 3757W        W20231  13.881  14.287   2.324  0.2683 -0.1122 -0.0460
 3758W        W20232   1.512   4.163   4.998  0.1450  0.4003 -0.1471
 3759W        W20233   9.668  18.204  11.143 -0.1788  0.1319  0.0922
 3760W        W20234  18.020  17.296   3.818  0.2429  0.1297  0.1389
 3761W        W20235   6.739  10.408   3.171  0.1135  0.0269 -0.0252
 3762W        W20236   6.641  16.284  14.103  0.2062  0.0515  0.2678
 3763W        W20237   0.792   5.430   1.458  0.2742  0.0726 -0.0145
 3764W        W20238  16.581  14.762   4.172 -0.0454 -0.1340  0.0368
 3765W        W20239   6.077  13.205   3.766  0.0621  0.0095  0.0070
 3766W        W20240  13.113   9.354   4.758  0.3185 -0.0944 -0.0762
 3767W        W20241   9.275   3.151   1.957 -0.0090 -0.0379 -0.1352
 3768W        W20242  13.799   9.647  14.371  0.0962 -0.1753  0.0775
 3769W        W20243   7.317   9.399  11.523  0.0343  0.1945 -0.1227
 3770W        W20244   3.396   0.566   5.002 -0.3393 -0.0495  0.2529
 3771W        W20245  18.241   0.328   1.187  0.0062  0.2265 -0.2309
 3772W        W20246  11.611   8.344   3.409 -0.0503  0.0149  0.2204
 3773W        W20247   2.901   2.083   5.346  0.2057  0.1311  0.0351
 3774W        W20248   8.054   2.241  15.146 -0.2592 -0.2521  0.1290
 3775W        W20249   0.060  12.954  14.847 -0.4245  0.0526  0.2326
 3776W        W20250  15.666   0.991   0.352  0.0874 -0.1161  0.2707
 3777W        W20251   5.215   8.178   5.595  0.2052 -0.1646 -0.0777
 3778W        W20252   8.868   8.923  10.581 -0.2058 -0.0992  0.0177
 3779W        W20253   1.661   3.371   1.805 -0.1045 -0.2584 -0.0819
 3780W        W20254  18.133   4.577  14.660  0.0590 -0.3484  0.0978
 3781W        W20255  10.031   7.516   0.625  0.1776 -0.1160 -0.1993
 3782W        W20256   6.911   1.107  10.946 -0.2211  0.1708  0.4601
 3783W        W20257  14.973   7.894   3.635  0.3208 -0.2359  0.1272
 3784W        W20258  18.751   0.470   4.426 -0.0938  0.2639 -0.1580
 3785W        W20259   5.029   4.230  14.778  0.0326 -0.1204  0.1417
 3786W        W20260  12.525   5.261  14.819 -0.0019 -0.0701 -0.2078
 3787W        W20261  15.960   2.904   2.380  0.3089  0.3232  0.1412
 3788W        W20262   5.590   2.161  10.672  0.2586 -0.2913 -0.3418
 3789W        W20263  16.102   8.864  13.788 -0.0434  0.3314  0.2400
 3790W        W20264  13.255  10.916   2.994 -0.1645 -0.0558  0.1474
 3791W        W20265   0.385   1.675   4.965 -0.4345 -0.1693 -0.0487
 3792W        W20266  13.891   6.049  12.311 -0.1200  0.1036 -0.4164
 3793W        W20267   4.489  15.030  13.191  0.2981 -0.0974 -0.0538
 3794W        W20268   6.174  12.745  14.350  0.0724  0.1811 -0.1833
 3795W        W20269  13.416   5.534  10.992 -0.0608 -0.0370 -0.0381
 3796W        W20270   8.057  10.781  13.633  0.1530  0.0093 -0.1763
 3797W        W20271   5.515  19.080   3.205 -0.1623 -0.0213  0.2654
 3798W        W20272  15.855   2.483  14.997 -0.2169  0.2838  0.0879
 3799W        W20273  12.058   7.473  13.994  0.2761  0.0463 -0.2098
 3800W        W20274  13.579   8.364   4.569 -0.1180 -0.0913 -0.0747
 3801W        W20275   0.852  18.237   3.786 -0.1363 -0.3184 -0.1824
 3802W        W20276   7.335  18.502   3.629  0.0484  0.0483  0.3159
 3803W        W20277  12.259   2.602  11.692 -0.0106 -0.1213 -0.3669
 3804W        W20278   0.558  17.874  11.026 -0.1383 -0.1706  0.2081
 3805W        W20279   2.388  18.251  14.233 -0.1457  0.0144  0.1050
 3806W        W20280   1.079  11.528   5.344  0.2332 -0.1347 -0.2306
 3807W        W20281   1.761  12.181  11.784 -0.0220  0.2116 -0.0407
 3808W        W20282   3.373  17.816  14.303  0.3217 -0.1144  0.1500
 3809W        W20283  11.117  15.210   4.176  0.1314 -0.1640  0.0669
 3810W        W20284  18.147  12.024  12.233 -0.2433  0.1273  0.1011
 3811W        W20285  18.339  14.280  12.362 -0.1741 -0.0490 -0.0751
 3812W        W20286   1.479   2.404   4.114  0.2075  0.3489 -0.1969
 3813W        W20287  15.896  15.946  13.143 -0.0046  0.1690 -0.2425
 3814W        W20288  16.116  18.555  13.396 -0.0789  0.0149  0.0967
 3815W        W20289  15.150   5.146  14.525 -0.1209 -0.2896  0.1447
 3816W        W20290   0.955   4.321  10.329  0.2047  0.1734  0.0898
 3817W        W20291  15.927   8.976   2.510  0.0202  0.1505 -0.0664
 3818W        W20292  13.616  13.387   0.817 -0.3014 -0.0973  0.1366
 3819W        W20293  13.216   5.743  13.041 -0.1661 -0.0565 -0.0520
 3820W        W20294   6.529   9.741  10.947 -0.0134  0.2915  0.1269
 3821W        W20295  11.420   2.214  14.650 -0.0166 -0.0232  0.0539
 3822W        W20296   7.773   7.243  11.508  0.0451 -0.0111 -0.1242
 3823W        W20297   9.100  18.841  13.646  0.2576 -0.0439 -0.1577
 3824W        W20298  12.191   5.433  12.461  0.2785  0.2198  0.0030
 3825W        W20299   1.034   0.110  11.340  0.2396 -0.0006 -0.2397
 3826W        W20300   6.771  18.570  10.460  0.2033  0.1739  0.1061
 3827W        W20301  18.947  19.015   2.178  0.0923  0.0247 -0.0144
 3828W        W20302   8.600  17.113   1.927 -0.2440 -0.1161 -0.0444
 3829W        W20303  14.562  12.818   0.046 -0.1401  0.2026 -0.0943
 3830W        W20304   0.404  11.126   3.845 -0.0011  0.0244 -0.0452
 3831W        W20305   6.521  11.276   4.272  0.1216 -0.2706  0.0146
 3832W        W20306   5.236   0.055   3.605  0.0548  0.1486  0.2454
 3833W        W20307   1.971  13.912  12.345  0.2452  0.2296 -0.0194
 3834W        W20308  12.724  17.794  12.895  0.1101 -0.1460  0.0533
 3835W        W20309   7.722  18.700  12.835  0.0156 -0.0221 -0.2009
 3836W        W20310   9.855   4.707  14.926 -0.0607  0.2417 -0.2750
 3837W        W20311  10.756  17.349   0.616  0.2490 -0.0430 -0.0973
 3838W        W20312   0.313   8.250  12.844 -0.4148 -0.0468  0.1176
 3839W        W20313  10.059  10.118   4.329  0.0159 -0.0682 -0.1354
 3840W        W20314   1.001   4.306   4.890  0.0560 -0.2176  0.0870
 3841W        W20315  12.393  11.854  12.660  0.3963 -0.2017 -0.2488
 3842W        W20316   3.244  16.106   1.934  0.0525 -0.0781 -0.2080
 3843W        W20317  18.971   0.615   2.347  0.3404  0.1238 -0.5452
 3844W        W20318   0.269   5.846   0.577 -0.0382 -0.2247 -0.2805
 3845W        W20319  10.266   5.810   4.826 -0.1070 -0.3467  0.0765
 3846W        W20320  17.367   4.423  13.126  0.0099 -0.0300 -0.1606
 3847W        W20321   1.379   2.627  13.833 -0.3069  0.1575 -0.1230
 3848W        W20322   9.978  11.229  14.969 -0.1203 -0.0279  0.1545
 3849W        W20323   9.790   0.089  13.837  0.2471  0.3692 -0.0395
 3850W        W20324  16.799  10.591   5.641 -0.1882 -0.0192 -0.1005
 3851W        W20325   2.191  11.032  10.960 -0.2342  0.2258  0.0463
 3852W        W20326   5.901  11.615  11.567  0.0896  0.6031  0.0357
 3853W        W20327   1.011  15.985  13.884 -0.0532  0.2624 -0.0252
 3854W        W20328   6.498  18.878   2.814 -0.2883 -0.1463 -0.1105
 3855W        W20329  13.298  19.137  11.905 -0.1701  0.2823 -0.3398
 3856W        W20330   1.748  18.362  13.148  0.0425  0.0760  0.0375
 3857W        W20331  12.666  16.080  15.068  0.1351 -0.2257  0.0672
 3858W        W20332  17.228  12.891   1.864  0.0821  0.0643  0.0374
 3859W        W20333   2.995   5.154  14.410  0.1611 -0.3300  0.0827
 3860W        W20334   8.433   1.144  13.118  0.0861  0.0048  0.0469
 3861W        W20335  18.097   1.999  12.281  0.0708 -0.3543 -0.2306
 3862W        W20336  16.794  17.393  12.768  0.1204 -0.1866 -0.0863
 3863W        W20337   2.660  13.711   2.076  0.4127 -0.1121  0.2978
 3864W        W20338  18.957   6.760  11.505 -0.0495 -0.0222 -0.1766
 3865W        W20339   2.259  15.538   0.623  0.3389  0.0975  0.3400
 3866W        W20340  10.739   3.305   3.440 -0.1931 -0.0250 -0.2318
 3867W        W20341  10.627  11.666  10.853 -0.0064 -0.2121  0.3164
 3868W        W20342  15.905  17.584   3.246 -0.0783 -0.2795 -0.0329
 3869W        W20343   4.015   2.362   3.576 -0.4601 -0.3533  0.1480
 3870W        W20344  15.106   9.140  15.090  0.0625  0.0805  0.1865
 3871W        W20345  12.561   2.204  11.376  0.1816  0.1594 -0.2972
 3872W        W20346   6.600  10.652   2.272  0.2835 -0.1774  0.2001
 3873W        W20347   0.212   9.019  12.524 -0.0407  0.0946 -0.0694
 3874W        W20348  11.304  16.602   2.283  0.4407  0.3343  0.1717
 3875W        W20349  11.194  14.383  14.552 -0.1114  0.0964 -0.0063
 3876W        W20350   6.166   1.500   3.272  0.1209 -0.0212  0.2716
 3877W        W20351   8.829   2.707  10.647 -0.0816  0.1129 -0.4695
 3878W        W20352   4.809  17.158   2.004  0.1984 -0.1106  0.1129
 3879W        W20353  15.554   0.023   1.115  0.1092 -0.0834 -0.1104
 3880W        W20354   2.832   6.106  14.910  0.0577  0.2360  0.0723
 3881W        W20355   6.903  11.753  13.671  0.1131  0.0106 -0.1972
 3882W        W20356  18.380   5.505  13.523 -0.1953  0.1120  0.2211
 3883W        W20357   2.318  16.133  13.367 -0.0175  0.1340  0.2646
 3884W        W20358  10.886  12.759  11.105  0.0099  0.1530 -0.0302
 3885W        W20359   5.688   8.925  12.295  0.0428 -0.2916  0.2052
 3886W        W20360  17.240  11.990   3.330 -0.0422  0.4663 -0.0848
 3887W        W20361   6.893   7.305   1.640 -0.0002 -0.4378 -0.1407
 3888W        W20362  13.610   5.396   3.207 -0.2940  0.0190 -0.2435
 3889W        W20363   1.274  18.837   2.255  0.1766  0.0833 -0.1882
 3890W        W20364   7.610   4.995  13.741 -0.0809  0.0515  0.1003
 3891W        W20365   1.751  12.840   2.710  0.0447 -0.4032  0.0550
 3892W        W20366   4.778   2.972   4.725  0.0212 -0.1417  0.0287
 3893W        W20367  18.328   6.178  13.649  0.0158  0.0375  0.3337
 3894W        W20368   7.170   7.395   3.061  0.2486 -0.1146 -0.0323
 3895W        W20369   5.824  18.773   0.266 -0.3709 -0.2595 -0.1951
 3896W        W20370   9.922   0.736  10.463 -0.0053  0.0729  0.1925
 3897W        W20371   2.721  13.575  12.654  0.1022  0.1991  0.0499
 3898W        W20372   2.979   5.117  12.518 -0.1266  0.3206  0.1147
 3899W        W20373  11.019  10.571   0.164  0.0421 -0.1362 -0.1073
 3900W        W20374   2.010  12.007   3.389 -0.3087 -0.0288 -0.1247
 3901W        W20375  18.602   2.845  11.980  0.1400  0.0181  0.5374
 3902W        W20376  10.305  17.414  14.599 -0.0400  0.1169 -0.2645
 3903W        W20377  14.471   9.131   2.363 -0.2120  0.1486 -0.1214
 3904W        W20378  17.597   6.867  13.375 -0.0723  0.2062 -0.0457
 3905W        W20379  18.903   6.522   0.590 -0.4045  0.3384  0.0406
 3906W        W20380   3.912   8.294   3.594 -0.3253 -0.2046  0.1339
 3907W        W20381  10.970  18.234   1.493 -0.2757 -0.2920  0.1550
 3908W        W20382   3.598  13.386   5.490 -0.3360  0.2312 -0.0384
 3909W        W20383  17.546  15.983  12.100  0.2026  0.2724 -0.1531
 3910W        W20384  12.704   6.793   0.550 -0.0971 -0.0888  0.1684
 3911W        W20385  10.189   7.121   2.258 -0.1442 -0.1969  0.0313
 3912W        W20386  13.130   8.171  14.226 -0.1624  0.5729 -0.0726
 3913W        W20387   8.751  18.481  12.909  0.0872 -0.0294 -0.1542
 3914W        W20388   2.794   4.530  12.558 -0.3704 -0.0161  0.2257
 3915W        W20389  16.914  12.036  14.842  0.0296 -0.2497 -0.0094
 3916W        W20390  14.981   6.924   3.762  0.1194  0.0490 -0.2941
 3917W        W20391  18.191  18.942   5.561 -0.1989 -0.1794  0.0269
 3918W        W20392   2.402  11.845   1.525  0.3178  0.3127  0.1885
 3919W        W20393   6.499  13.962   0.984 -0.0448  0.1134  0.0526
 3920W        W20394   3.211   7.544   0.993  0.3080  0.5322  0.0887
 3921W        W20395   4.487  10.327   1.659 -0.0543 -0.3482  0.2035
 3922W        W20396   8.637  13.934   4.688  0.0692  0.1426  0.2655
 3923W        W20397   4.567  11.155   0.605  0.0878  0.0958 -0.0732
 3924W        W20398  10.249  12.293  12.001  0.1276  0.1287 -0.2834
 3925W        W20399  16.721  10.830   3.792  0.2110  0.0035 -0.1584
 3926W        W20400   0.740  17.849  13.041 -0.0788 -0.1679 -0.0889
 3927W        W20401   6.541  18.426   0.959 -0.0088 -0.2420  0.1874
 3928W        W20402   8.573   6.454   1.612 -0.0197 -0.1724 -0.2348
 3929W        W20403  10.960   0.192  13.064 -0.0923 -0.0131 -0.2873
 3930W        W20404   2.899   7.556  10.956  0.3344  0.0838  0.0182
 3931W        W20405  14.552   1.673  15.078  0.0012 -0.1732  0.1539
 3932W        W20406  11.616  17.304   1.646 -0.0784  0.4113 -0.1297
 3933W        W20407   5.483   7.604   2.491  0.1419 -0.1178  0.0745
 3934W        W20408  12.972  11.223   4.699  0.0725  0.0867  0.1774
 3935W        W20409   7.579   0.664  14.118  0.2052 -0.0281  0.2158
 3936W        W20410  17.965  10.607   4.234  0.0314  0.1970  0.3740
 3937W        W20411  10.196   5.743  14.282 -0.1964 -0.0679 -0.1656
 3938W        W20412   2.990  11.792  11.847 -0.3842 -0.4422  0.0107
 3939W        W20413  13.769   5.551   2.577 -0.0011 -0.1393 -0.0058
 3940W        W20414  12.163  15.697  13.898  0.2032  0.2158  0.2498
 3941W        W20415   0.193   1.130   4.550 -0.3389 -0.3729 -0.1003
 3942W        W20416   6.400  10.437  12.657  0.3559 -0.0828 -0.1021
 3943W        W20417  13.029   9.622   3.547  0.1160 -0.2710  0.0515
 3944W        W20418  16.943  17.060  13.169  0.0352 -0.2123  0.1112
 3945W        W20419   3.076   2.072   1.189  0.1087  0.1531 -0.3592
 3946W        W20420  17.163  13.400   0.432  0.0302 -0.1198  0.0044
 3947W        W20421   1.780   7.062  14.849  0.1332 -0.4354  0.2643
 3948W        W20422  19.040   1.435  12.985 -0.3062  0.1868  0.2146
 3949W        W20423   1.227   7.089  11.676 -0.3726  0.0782  0.2174
 3950W        W20424   3.436  16.701  14.787  0.0779  0.1217 -0.2003
 3951W        W20425   4.923  14.309  13.796  0.0482 -0.4794  0.2719
 3952W        W20426  14.171  10.700   5.258 -0.2633  0.2787 -0.1026
 3953W        W20427   1.684  10.693   5.150  0.3770  0.3929  0.0122
 3954W        W20428  16.612   7.858   0.763 -0.2821  0.0643  0.2824
 3955W        W20429   7.452  10.863  12.180  0.2672 -0.1098 -0.0757
 3956W        W20430   5.552  12.018   2.017 -0.1430  0.4426  0.2104
 3957W        W20431  16.014   9.486  11.985  0.0653  0.4932 -0.0856
 3958W        W20432   3.216   5.732  11.333  0.1161 -0.2041  0.1186
 3959W        W20433  17.736  15.411   9.655  0.2822  0.0685 -0.2753
 3960W        W20434   6.557   3.237  13.556 -0.2544 -0.0217 -0.0420
 3961W        W20435   6.511  17.184   0.712 -0.2157 -0.0757  0.0714
 3962W        W20436  12.457  11.857   0.867 -0.2782  0.0262  0.1208
 3963W        W20437   0.947  16.360   4.502 -0.0809  0.1559  0.2478
 3964W        W20438  13.751   3.065  13.966  0.3421  0.0559  0.1352
 3965W        W20439  14.781   0.924   5.615  0.0455 -0.0703 -0.1278
 3966W        W20440  10.181   8.712  13.227 -0.1347 -0.1689 -0.0331
 3967W        W20441  14.624  13.500  14.448 -0.1541 -0.2534 -0.0239
 3968W        W20442   3.173  10.601  12.779 -0.1146 -0.1161  0.2150
 3969W        W20443  14.456  11.205  12.853 -0.3156  0.0164  0.0025
 3970W        W20444  12.331  13.517   4.923 -0.4308 -0.1480  0.2339
 3971W        W20445  15.782   6.840   0.216  0.3240  0.1913  0.1026
 3972W        W20446   0.700   0.005   1.293 -0.2402  0.1491 -0.3269
 3973W        W20447  14.081  13.629  10.760  0.2559 -0.1446 -0.1811
 3974W        W20448   7.169  10.585   1.637  0.0633  0.1714  0.2017
 3975W        W20449  17.027  15.671  15.131 -0.1962 -0.2849 -0.0450
 3976W        W20450  10.881   3.153  14.613  0.1209  0.1068  0.0637
 3977W        W20451   3.960   9.470  12.577 -0.3515 -0.0284  0.0263
 3978W        W20452  12.639   9.162  14.168 -0.1195 -0.1177 -0.1324
 3979W        W20453   7.467  15.827   1.178  0.1260 -0.1331 -0.2668
 3980W        W20454   5.529   5.049  12.127 -0.0081  0.4880 -0.0271
 3981W        W20455   2.303   5.088  13.614 -0.1825 -0.0248  0.0147
 3982W        W20456  17.574   5.579  12.103 -0.1554  0.2463  0.0772
 3983W        W20457  18.576   8.414   3.266  0.0731 -0.2553 -0.1692
 3984W        W20458  18.815  16.351  13.338  0.1048  0.0718 -0.2842
 3985W        W20459  12.383   1.039   9.875 -0.4477 -0.0217 -0.1489
 3986W        W20460  18.307  11.289   4.998 -0.0294  0.1981 -0.0108
 3987W        W20461  13.070  12.705  13.878  0.0367  0.0973  0.1224
 3988W        W20462  16.710   1.724  12.634  0.4019 -0.1024 -0.2231
 3989W        W20463   3.093  17.110  11.373  0.0449 -0.1995 -0.1407
 3990W        W20464  16.096  12.883  11.927  0.2828  0.0290  0.2687
 3991W        W20465  10.713  13.759  11.500  0.1958  0.1161 -0.2242
 3992W        W20466  10.239   1.770   3.103  0.2549  0.0150  0.1878
 3993W        W20467   6.322  16.272   2.708  0.0467 -0.1562  0.0700
 3994W        W20468  10.431  12.068  12.848 -0.0113  0.4661 -0.0813
 3995W        W20469  12.463  16.394   0.852  0.0294 -0.1054  0.1838
 3996W        W20470  14.656  18.299   5.570 -0.2695  0.0324 -0.0538
 3997W        W20471  12.949   1.646   1.627  0.0446 -0.0975 -0.0732
 3998W        W20472  11.361  18.420  13.786 -0.2335 -0.0744 -0.3006
 3999W        W20473   0.048   3.359   3.222  0.0358 -0.0134  0.1259
 4000W        W20474   0.613   2.590  14.295  0.2049  0.0763  0.1592
 4001W        W20475  17.345   6.015   0.002 -0.1459  0.1482 -0.2863
 4002W        W20476  17.606  18.152   4.389 -0.0135  0.2868 -0.0819
 4003W        W20477  16.332  16.161   0.282  0.0433  0.0589 -0.1665
 4004W        W20478  14.221   9.472  13.388 -0.3219  0.0349 -0.1344
 4005W        W20479  15.983   2.260  14.600  0.0503  0.0580  0.0656
 4006W        W20480   0.775   8.365  11.133  0.0757 -0.0841 -0.1368
 4007W        W20481  10.426   1.926   2.080  0.0357  0.0317  0.0224
 4008W        W20482   8.658  15.251  11.392 -0.0515  0.0345  0.0875
 4009W        W20483  16.809  17.335   1.678 -0.0489  0.1928 -0.0106
 4010W        W20484  10.113   2.955   2.645  0.1140  0.2149 -0.1122
 4011W        W20485   5.153   5.216   1.141 -0.0900  0.3019  0.1214
 4012W        W20486  18.548  17.660   1.749  0.0745 -0.0236 -0.1625
 4013W        W20487   9.611   6.289   2.862  0.1159 -0.1785 -0.2539
 4014W        W20488   1.121   5.754   3.092 -0.2775 -0.1855 -0.0106
 4015W        W20489   4.780   2.684  11.380 -0.1704  0.1734  0.1264
 4016W        W20490  17.245  13.901  11.549  0.0586 -0.0251 -0.2254
 4017W        W20491  17.321   7.038  11.217 -0.2727 -0.0009 -0.0745
 4018W        W20492   1.052  15.260   2.530  0.1190  0.1885 -0.0463
 4019W        W20493   0.989  12.772  14.788  0.0559 -0.0627 -0.1729
 4020W        W20494   0.199  18.725   2.471  0.0703  0.1989 -0.1558
 4021W        W20495  12.577   2.533  13.875  0.4995  0.1059  0.1480
 4022W        W20496   2.189   7.807   3.845 -0.1740  0.2656 -0.3129
 4023W        W20497   7.236  12.176  10.956  0.4198  0.1834  0.0235
 4024W        W20498   7.998  11.650   1.276  0.1319 -0.2147  0.1854
 4025W        W20499  16.656  15.287  12.393 -0.0567 -0.3629  0.0287
 4026W        W20500   9.944  10.926   4.789  0.3023  0.3866 -0.2264
 4027W        W20501   7.701  18.053   1.275  0.1122  0.3459 -0.0598
 4028W        W20502   0.567  12.745  13.036 -0.0506  0.1234  0.0533
 4029W        W20503   7.835  18.548   3.457 -0.3394  0.0116  0.0625
 4030W        W20504   0.734   5.435  12.389  0.1932  0.0003  0.0590
 4031W        W20505  13.248   9.780   4.556  0.1373 -0.0415 -0.0240
 4032W        W20506   4.515  16.135   5.022 -0.2691 -0.2390  0.1146
 4033W        W20507   2.025  17.318  12.787 -0.0465 -0.0376  0.0567
 4034W        W20508   8.447  15.030  12.740  0.4426  0.0579  0.1369
 4035W        W20509   9.378  14.679   3.674  0.2102  0.1188  0.2704
 4036W        W20510  17.747   0.387   1.431  0.0946 -0.0631 -0.0764
 4037W        W20511  16.546   0.120  12.637  0.1104  0.2010 -0.2102
 4038W        W20512  16.545   6.137  14.739 -0.0906 -0.3067 -0.1255
 4039W        W20513   6.288   8.394   3.132 -0.3028  0.1670 -0.2761
 4040W        W20514  15.301   0.315  11.241  0.0508 -0.6014  0.2065
 4041W        W20515   4.723   2.121  10.196 -0.1647 -0.0590 -0.0641
 4042W        W20516  14.936  18.315  12.863  0.2076  0.2234  0.0309
 4043W        W20517  17.743  11.737  12.648 -0.3366  0.0451 -0.0245
 4044W        W20518   2.620   2.958  14.159 -0.2336 -0.2265 -0.0228
 4045W        W20519  18.034   9.742   5.185  0.0097 -0.0359 -0.2099
 4046W        W20520   8.642   2.947   2.445  0.0773 -0.0747 -0.3188
 4047W        W20521   3.985  12.390   2.291  0.2229  0.2081 -0.2711
 4048W        W20522   7.484   5.306  10.976 -0.0072 -0.0548  0.0478
 4049W        W20523  14.061   6.064  10.102  0.3132  0.2027 -0.0843
 4050W        W20524   0.261  15.221   5.749  0.2466 -0.0267  0.4231
 4051W        W20525   5.474  15.974   4.811  0.4227 -0.4591 -0.1241
 4052W        W20526   4.899   8.406   0.761  0.2538  0.0005  0.1470
 4053W        W20527   5.479  15.875   3.697 -0.1938  0.2837 -0.1819
 4054W        W20528   7.515   2.587  10.502  0.1345 -0.1119  0.1808
 4055W        W20529   1.801   1.941   1.788  0.3045  0.0898 -0.1419
 4056W        W20530   9.311   4.754   2.078  0.0307  0.4404  0.0281
 4057W        W20531  14.336  16.037  12.161 -0.0701  0.0693  0.0435
 4058W        W20532  19.102  18.093  12.103  0.1097  0.2533 -0.1755
 4059W        W20533  10.520  16.805   4.030 -0.1866 -0.0918  0.2922
 4060W        W20534   6.874   0.196   1.482  0.0253 -0.0747 -0.1568
 4061W        W20535   7.198  16.311   4.049 -0.1015 -0.0358 -0.0022
 4062W        W20536  14.453  15.138  12.595  0.0144 -0.0869 -0.0056
 4063W        W20537  17.048  14.683  11.133 -0.1954 -0.0011 -0.2027
 4064W        W20538  11.008   3.949  11.204  0.0439 -0.4421  0.2280
 4065W        W20539   4.337   5.680   3.856 -0.2027 -0.0654  0.2234
 4066W        W20540  10.239   3.419   3.389 -0.0093 -0.0683  0.2257
 4067W        W20541   4.450  13.823  10.687  0.3419 -0.2609 -0.0135
 4068W        W20542   7.988  14.802   4.154  0.0109  0.0465  0.0784
 4069W        W20543   7.782   3.694  11.612 -0.1993 -0.2640 -0.0029
 4070W        W20544   2.859  14.419   1.022  0.0375 -0.0172  0.2789
 4071W        W20545  13.780   7.120   3.063  0.2609  0.0356 -0.2865
 4072W        W20546   5.679  18.680  12.799  0.0309  0.1945  0.0542
 4073W        W20547   7.700   5.835   1.915 -0.2457  0.1518  0.2956
 4074W        W20548  12.574  14.915   2.224 -0.0656 -0.0135  0.2194
 4075W        W20549   8.102  12.496  14.325  0.0071  0.2202 -0.0906
 4076W        W20550  13.404   0.312  11.546  0.4514  0.1755  0.3129
 4077W        W20551  17.895  12.592   3.520 -0.1702  0.0648 -0.3614
 4078W        W20552   8.005   8.606   3.763  0.0898  0.1477 -0.0792
 4079W        W20553   6.818  11.156  11.648  0.0321 -0.0030 -0.1210
 4080W        W20554  14.796  18.145  10.625  0.0945 -0.4362 -0.1569
 4081W        W20555   1.425  10.463  10.847 -0.1660 -0.1379 -0.0176
 4082W        W20556   8.336  15.597   4.859  0.0326  0.0715  0.1174
 4083W        W20557   1.205   8.443  11.331  0.2344  0.1155 -0.1739
 4084W        W20558  16.410  16.986   1.867  0.0485 -0.1732  0.1821
 4085W        W20559  18.223  13.354  10.680 -0.0339  0.0147  0.1805
 4086W        W20560   5.153   3.408   1.857 -0.2950 -0.0774  0.1201
 4087W        W20561  17.705  18.214  12.943 -0.0391 -0.2281  0.0436
 4088W        W20562  18.547   2.802   2.273  0.1304  0.1244 -0.2524
 4089W        W20563   8.793   6.754   4.954  0.0341 -0.1705 -0.1710
 4090W        W20564  14.144  18.161  13.538 -0.2036 -0.1865  0.0664
 4091W        W20565   4.980   3.964  12.917  0.1794 -0.3370  0.1097
 4092W        W20566  16.508   1.272  14.646  0.1769 -0.0019 -0.2247
 4093W        W20567  15.950  18.459   3.586 -0.0140  0.0675  0.1241
 4094W        W20568  16.277   1.900   4.189 -0.1438 -0.1185 -0.0453
 4095W        W20569  10.023   0.280  12.728 -0.1719 -0.1961  0.3443
 4096W        W20570  11.851   2.175   0.509  0.1257 -0.1857  0.1246
 4097W        W20571   5.743   8.408  13.332  0.3986  0.2351  0.0045
 4098W        W20572   0.422  15.715  14.575  0.1785 -0.3767  0.1849
 4099W        W20573   0.696  17.174   3.331  0.2800 -0.3784  0.1855
 4100W        W20574   2.165  18.808  14.457  0.2923  0.1012  0.0949
 4101W        W20575  18.354  16.126  14.830  0.1007  0.1144  0.0816
 4102W        W20576   1.670   8.647  11.391  0.2795 -0.1677 -0.0696
 4103W        W20577   3.158   0.038  11.945  0.2368 -0.2175 -0.0489
 4104W        W20578  17.889  11.407  11.499 -0.2553 -0.0404 -0.2252
 4105W        W20579  10.351   9.136  12.187  0.1059 -0.0868 -0.0294
 4106W        W20580   4.935   9.311  14.692 -0.2142  0.1695  0.2135
 4107W        W20581   1.258   6.812   2.103  0.1617  0.2127  0.1219
 4108W        W20582   2.854  13.668   1.243  0.0883 -0.3154  0.0932
 4109W        W20583   7.399  16.566   4.465  0.2055  0.0986 -0.2707
 4110W        W20584  18.157  15.330   4.722  0.1247 -0.0222 -0.1855
 4111W        W20585   8.275  11.184   4.020 -0.0206  0.1340 -0.0237
 4112W        W20586  17.488   6.768  11.666  0.0764 -0.1878  0.1232
 4113W        W20587   9.129  17.398  11.944 -0.4735  0.0982 -0.0647
 4114W        W20588  17.527  11.129   0.655 -0.0360  0.0332  0.4139
 4115W        W20589  18.495  10.063   3.286 -0.2972 -0.0986  0.1477
 4116W        W20590  10.384   5.742   3.489  0.0125  0.1893  0.1022
 4117W        W20591   0.503   0.528   4.237 -0.1785  0.0294 -0.1300
 4118W        W20592  15.828  11.989  12.446  0.0634  0.2857 -0.0860
 4119W        W20593   9.727  15.546   3.514  0.1516  0.2523 -0.0900
 4120W        W20594   5.066  13.284   2.250  0.0457 -0.2984  0.2265
 4121W        W20595   2.800  12.542   3.680  0.1151  0.0821 -0.0501
 4122W        W20596  11.464   2.960  10.384  0.1568  0.1522 -0.1712
 4123W        W20597   6.580   0.591   4.996 -0.2279  0.2326 -0.3517
 4124W        W20598  13.214  12.991   0.383  0.3045 -0.1043 -0.1911
 4125W        W20599   8.322   0.448   4.032  0.1540  0.2834 -0.4804
 4126W        W20600  17.510  18.942   2.309  0.0051  0.1790 -0.1221
 4127W        W20601  12.939  11.724   0.827  0.0377 -0.0781 -0.0843
 4128W        W20602  13.681  18.720  12.815 -0.3016 -0.0870  0.1059
 4129W        W20603  14.835  12.705  11.931  0.1415  0.2715 -0.1791
 4130W        W20604   4.648   7.717  13.978  0.2477  0.0663  0.0260
 4131W        W20605   6.088   7.784   3.712 -0.0985  0.0432  0.0365
 4132W        W20606  12.513  14.238   1.749 -0.1007  0.0512 -0.0103
 4133W        W20607  15.068   4.537  12.681 -0.0166  0.1065 -0.3207
 4134W        W20608   5.215  11.410  14.729 -0.0776  0.3917 -0.1364
 4135W        W20609   1.313  18.766  13.122  0.2463 -0.0266 -0.0278
 4136W        W20610   7.788  17.289  11.393  0.2125  0.0242 -0.0662
 4137W        W20611   6.441  15.395   4.003  0.0736  0.1386 -0.2818
 4138W        W20612  12.436   1.681   3.074  0.3237 -0.1716 -0.1540
 4139W        W20613  10.951   3.833   2.387  0.1658 -0.2154 -0.1248
 4140W        W20614   2.879  10.546   4.174 -0.2619  0.1973 -0.2657
 4141W        W20615  12.488   3.717  11.051 -0.0906  0.0438  0.1203
 4142W        W20616  15.567  12.235  14.947  0.1329  0.3218 -0.3547
 4143W        W20617   9.704  12.953  10.566 -0.0857  0.0988  0.0257
 4144W        W20618  11.083   7.533  13.825 -0.0435  0.1472  0.1274
 4145W        W20619  17.977   5.265  14.236 -0.1435 -0.1001  0.0443
 4146W        W20620  11.154  14.769   0.981  0.1613 -0.0277  0.0075
 4147W        W20621  14.358   3.813  12.564 -0.1512 -0.0499 -0.1339
 4148W        W20622   1.226   5.326   4.303 -0.1406 -0.1680  0.0567
 4149W        W20623  12.179   4.853   4.966  0.0267 -0.1023  0.0303
 4150W        W20624  18.437   5.574  14.826 -0.0600 -0.0823 -0.0291
 4151W        W20625  12.486   9.083   5.500  0.1117  0.0761  0.3669
 4152W        W20626  15.159   0.425   1.325  0.0253 -0.1315 -0.0653
 4153W        W20627  16.336   8.781   1.144 -0.1748 -0.1090  0.0485
 4154W        W20628  17.532   2.726   0.348 -0.0036 -0.1174 -0.0960
 4155W        W20629  15.193   5.927   4.572  0.1372 -0.0374 -0.2866
 4156W        W20630  18.359   7.533   2.178 -0.0504 -0.1899 -0.2077
 4157W        W20631   0.271   3.947  14.196 -0.0473 -0.2336 -0.2549
 4158W        W20632   9.770  17.497  10.559  0.2093  0.1995 -0.0366
 4159W        W20633   3.935   1.871   3.100  0.0445  0.0291 -0.0260
 4160W        W20634  19.089  18.497  11.817 -0.3983 -0.2000 -0.2677
 4161W        W20635   0.471  12.291  13.214 -0.0605 -0.2949  0.1352
 4162W        W20636  17.004   6.311   0.800 -0.0200 -0.0493  0.0108
 4163W        W20637  17.051   8.297  12.008 -0.3389 -0.2077 -0.1138
 4164W        W20638   4.003   8.385  10.906 -0.0832 -0.2765 -0.1066
 4165W        W20639  13.582   4.555  13.754 -0.1350 -0.1315  0.0183
 4166W        W20640  18.988  12.962  13.561 -0.2522  0.2546  0.1890
 4167W        W20641   0.117  12.137  13.996 -0.0698  0.0380 -0.0726
 4168W        W20642   3.304  17.780   1.320  0.1180 -0.0350 -0.3301
 4169W        W20643   1.259  18.014  13.769  0.0843 -0.1227  0.2224
 4170W        W20644   8.486  15.262  13.566  0.0052  0.0907 -0.2174
 4171W        W20645   4.367  17.136   3.952 -0.1676 -0.0066 -0.2122
 4172W        W20646   1.245  15.708  14.246 -0.1478 -0.1517 -0.0686
 4173W        W20647   6.720   0.636  10.844  0.2041 -0.1147  0.1901
 4174W        W20648   8.474  16.177  13.386  0.2649 -0.0091  0.1218
 4175W        W20649  15.454   0.584  14.177 -0.0710 -0.1786  0.2315
 4176W        W20650  12.581   3.726   1.952 -0.1959 -0.1802 -0.3799
 4177W        W20651  13.590   2.998  13.032  0.0447  0.3587 -0.0738
 4178W        W20652   2.985   7.995   1.187 -0.4645 -0.1195  0.0481
 4179W        W20653  10.527  11.045  13.238  0.0182 -0.0967 -0.1499
 4180W        W20654  18.619   5.687   3.961 -0.2652 -0.0077 -0.3935
 4181W        W20655   2.100   8.108   1.877 -0.3914  0.0801 -0.1652
 4182W        W20656   8.422  15.943   9.635  0.1236  0.3438  0.0755
 4183W        W20657  12.209  15.410  14.296 -0.5264 -0.0701  0.1046
 4184W        W20658   2.812  16.191   0.631 -0.2865 -0.1588 -0.0515
 4185W        W20659   5.426  10.178   1.470 -0.2526  0.1794 -0.0746
 4186W        W20660  18.045  18.683  13.879 -0.1482 -0.1248 -0.0744
 4187W        W20661   9.312  12.327  15.051 -0.4735 -0.0143 -0.0954
 4188W        W20662  14.735  12.596  11.162  0.0934 -0.4698  0.2252
 4189W        W20663  12.937  13.676   1.454 -0.0563 -0.0015 -0.2300
 4190W        W20664  13.048   9.139  11.641 -0.3197 -0.0105  0.0272
 4191W        W20665  11.799  13.492   1.045  0.0838  0.2883  0.1777
 4192W        W20666   1.756   7.298   1.424  0.0176  0.1894 -0.0302
 4193W        W20667  17.304  16.103  13.528  0.0912  0.0107 -0.2247
 4194W        W20668   1.489   6.693   3.668  0.0227  0.0436  0.3771
 4195W        W20669   1.487   5.919  13.204  0.2097 -0.2916  0.1558
 4196W        W20670  17.354   6.686   2.699 -0.1825  0.2227 -0.1483
 4197W        W20671  13.445   0.141   3.297  0.2642  0.1732  0.0218
 4198W        W20672   3.624  17.049   3.930  0.0199 -0.1404 -0.2150
 4199W        W20673   3.338   1.190   5.122  0.0212  0.4028 -0.3814
 4200W        W20674   5.539  16.482   3.652 -0.1359  0.0056  0.0693
 4201W        W20675  15.060   0.763  12.817 -0.2320 -0.0533 -0.2930
 4202W        W20676  12.990  18.369   1.546  0.1238 -0.3201 -0.2638
 4203W        W20677  12.963   6.542  13.677 -0.3137  0.3392  0.2463
 4204W        W20678  15.392  14.726   2.001  0.0358 -0.0821  0.0459
 4205W        W20679   3.633   5.064  10.731  0.1246  0.1110  0.0323
 4206W        W20680  18.243  13.456   1.381  0.2399  0.1101  0.1685
 4207W        W20681  17.667  12.097   1.000  0.0860  0.3343 -0.0600
 4208W        W20682   8.131   0.032  12.990 -0.2019  0.0635 -0.0254
 4209W        W20683   2.079  15.703  13.552  0.1661  0.1968 -0.3849
 4210W        W20684  17.333   4.171  12.314  0.0159 -0.1486 -0.2506
 4211W        W20685  14.843  15.709   1.528  0.0390  0.1175 -0.1005
 4212W        W20686  17.822   9.718   2.255  0.1954  0.3042  0.1167
 4213W        W20687   2.738   3.358   1.424 -0.4376  0.4613  0.1478
 4214W        W20688  13.456  12.695   3.552 -0.4009 -0.0423 -0.0303
 4215W        W20689  15.964  13.590   4.734  0.1507 -0.4275 -0.1945
 4216W        W20690  13.527  18.875  12.336 -0.0341  0.3178  0.2204
 4217W        W20691  17.707   9.499  12.853 -0.6100 -0.1156 -0.0216
 4218W        W20692  18.530  11.401   2.585  0.1005 -0.2454 -0.2273
 4219W        W20693   5.379  11.888   4.047  0.1004 -0.1362  0.2663
 4220W        W20694   3.754   4.104   4.527 -0.0189  0.1120  0.2562
 4221W        W20695  15.670   9.025   4.003  0.1627 -0.0629  0.1483
 4222W        W20696  14.061  19.003  13.124  0.1756  0.1227 -0.1642
 4223W        W20697   9.507   2.469   4.903  0.0764 -0.1626  0.3304
 4224W        W20698  13.360  12.023   5.239  0.0906 -0.2048 -0.1795
 4225W        W20699   8.027   0.771   0.000  0.4722 -0.1754 -0.2233
 4226W        W20700   1.034  17.100   1.105 -0.1862  0.0993 -0.0379
 4227W        W20701  18.468   6.883  13.498  0.1384 -0.1353 -0.0676
 4228W        W20702   3.704   5.400   5.551  0.0874  0.3179 -0.4135
 4229W        W20703  12.009   0.504  13.421  0.1536  0.3061  0.1724
 4230W        W20704   1.417   4.294  12.651  0.0927 -0.0225  0.0553
 4231W        W20705   8.530   8.958   0.139  0.1068  0.1827 -0.0368
 4232W        W20706   3.895  13.287  14.434 -0.3258  0.3014  0.1472
 4233W        W20707  10.624  17.293  10.986  0.1798  0.0412  0.0724
 4234W        W20708   3.456   4.525   3.736  0.0659  0.3058 -0.2032
 4235W        W20709   7.442  14.309   3.932  0.2440 -0.1708  0.2381
 4236W        W20710   3.250   9.159   4.602  0.0758  0.0152 -0.2179
 4237W        W20711   3.477   4.461   1.768  0.1293  0.0383  0.6187
 4238W        W20712   5.591   4.765  11.011 -0.0762 -0.1278 -0.1093
 4239W        W20713  15.072  12.201  14.789 -0.0171  0.0739  0.2715
 4240W        W20714  15.301   6.830   1.650  0.0390  0.1742  0.3174
 4241W        W20715  11.613   0.849   2.723 -0.1460 -0.0692  0.0901
 4242W        W20716   1.296  18.547  11.265 -0.1808  0.3095 -0.1349
 4243W        W20717  13.176   8.367   0.822 -0.1131  0.2016  0.0554
 4244W        W20718  11.185  15.819  10.224 -0.0125  0.0161 -0.1352
 4245W        W20719  17.692   0.119   3.685 -0.4528  0.2548 -0.1107
 4246W        W20720  14.083  10.289  11.075 -0.0497  0.1032 -0.3710
 4247W        W20721  10.073   8.972   1.850  0.1985  0.0451 -0.0827
 4248W        W20722  13.901  13.501   0.277 -0.0041 -0.1596  0.4007
 4249W        W20723  12.229   6.282   2.582  0.2101  0.0624  0.1160
 4250W        W20724  18.003   8.187  12.908  0.0944  0.1433 -0.3217
 4251W        W20725  13.196   9.122  13.836  0.0120 -0.1633 -0.1708
 4252W        W20726  14.505   8.169  12.997 -0.0914  0.1111 -0.0693
 4253W        W20727  13.109  12.596  14.480  0.0886 -0.0274  0.0749
 4254W        W20728  16.738   4.178   4.158  0.0330  0.1136  0.0296
 4255W        W20729  10.954   9.034  11.071  0.0581 -0.0716 -0.2587
 4256W        W20730  18.209   8.716   0.371  0.4424 -0.2902  0.0945
 4257W        W20731  11.726   2.762  14.898 -0.0559  0.0529 -0.1836
 4258W        W20732  10.703  18.868   2.395 -0.2805 -0.1277 -0.0536
 4259W        W20733  10.752  11.660  12.595  0.3646  0.1058 -0.6658
 4260W        W20734   1.590  10.215  10.473  0.0782 -0.2428  0.0864
 4261W        W20735  14.790  13.995  11.215  0.0780  0.1354  0.1766
 4262W        W20736   9.902  15.027  14.157 -0.1227 -0.2258  0.2397
 4263W        W20737  10.743  15.599   4.861 -0.0229 -0.0766 -0.0271
 4264W        W20738   5.914   1.932   2.976  0.0712 -0.0572 -0.1294
 4265W        W20739  11.683   5.486  12.336  0.1153  0.0780 -0.1406
 4266W        W20740   7.940   1.534  12.927  0.0052  0.0712 -0.3280
 4267W        W20741  14.765  11.167   1.742  0.0968  0.3133  0.1154
 4268W        W20742   6.308  12.719   0.644  0.2596 -0.0712  0.1275
 4269W        W20743  11.409  17.508  10.334 -0.0454 -0.3711 -0.0498
 4270W        W20744   4.445   2.183   4.388  0.0356 -0.0456  0.1361
 4271W        W20745   2.502   1.196  13.393 -0.1123 -0.1936  0.2853
 4272W        W20746  15.857   7.995  14.374  0.1254  0.2123  0.4086
 4273W        W20747   8.515   1.185   3.988  0.1962  0.0820  0.1891
 4274W        W20748   4.726   9.742   1.090  0.0758  0.1735  0.0181
 4275W        W20749   9.373   0.129  13.534  0.2228 -0.0651 -0.2366
 4276W        W20750  18.503  17.112  14.076 -0.0972 -0.0685  0.1936
 4277W        W20751   4.347   8.890   1.199  0.0164  0.0321  0.0411
 4278W        W20752   8.336   1.125   1.464 -0.0322 -0.0984  0.2482
 4279W        W20753  12.778   1.907  11.762  0.0451 -0.0176 -0.0986
 4280W        W20754  15.066   0.630  14.939  0.0695 -0.0465 -0.2783
 4281W        W20755  15.588  14.427   1.676  0.0607  0.0218  0.2283
 4282W        W20756  11.682   8.930  12.603 -0.0180  0.2926  0.2524
 4283W        W20757  15.344  18.656   1.532  0.1130 -0.1197 -0.0579
 4284W        W20758  17.101  17.258   2.338  0.2895 -0.1429 -0.1191
 4285W        W20759   1.062   4.930  14.035  0.3569 -0.2658 -0.1108
 4286W        W20760  18.665   8.850  10.808 -0.1035  0.1422 -0.0784
 4287W        W20761   3.722  15.385   4.662 -0.4139  0.1380 -0.3361
 4288W        W20762   5.274   6.468  14.225 -0.1617 -0.0405  0.1586
 4289W        W20763  11.413   6.066   2.762  0.0743  0.0334 -0.1915
 4290W        W20764   1.534   0.356   1.783 -0.0623  0.0552 -0.2314
 4291W        W20765  16.111  19.090   4.377 -0.0458  0.0168 -0.0148
 4292W        W20766   0.606  14.987   2.571  0.0978 -0.0338  0.1568
 4293W        W20767  14.336  10.956  15.068  0.0164  0.4597  0.1093
 4294W        W20768  14.003   5.675   3.300 -0.0091 -0.1216 -0.2456
 4295W        W20769  10.124   4.659   4.484  0.1848  0.0056  0.1085
 4296W        W20770  18.874   0.338  15.050  0.1385 -0.1076 -0.2134
 4297W        W20771   5.526   6.519   0.921 -0.1627 -0.0902  0.2052
 4298W        W20772   8.038  16.872   2.837  0.1359 -0.2172  0.1371
 4299W        W20773  15.239  13.128   3.789  0.1866 -0.0960 -0.1617
 4300W        W20774  17.791   5.779   4.696 -0.2016 -0.1160  0.0263
 4301W        W20775   8.670   2.081  14.235  0.2805  0.0963  0.0369
 4302W        W20776  14.733   4.896  11.858 -0.1185  0.0890  0.1553
 4303W        W20777  18.131  16.594   3.084  0.4519  0.2644  0.1619
 4304W        W20778   6.127  19.148   5.335 -0.1189  0.3192 -0.1123
 4305W        W20779   7.036  18.064   4.476 -0.1585 -0.0654  0.1772
 4306W        W20780   7.124  17.205  15.055  0.1324 -0.0554 -0.2592
 4307W        W20781   7.731   6.015   0.276  0.0756 -0.2638  0.3508
 4308W        W20782  12.744   9.530   1.354 -0.1445  0.3015  0.1229
 4309W        W20783  18.693  10.886  12.420  0.1423  0.0826 -0.0696
 4310W        W20784  12.482   7.687  13.583  0.2030  0.0999  0.0318
 4311W        W20785   0.949  15.049  13.533  0.0257 -0.0394  0.6616
 4312W        W20786  12.720   8.628   1.661 -0.1951  0.0359  0.0120
 4313W        W20787  10.316  11.078   4.442  0.0220 -0.1108 -0.0688
 4314W        W20788   7.613  12.037  11.275  0.0010  0.1868  0.2923
 4315W        W20789   8.777  11.171   3.739 -0.0766  0.0782 -0.2622
 4316W        W20790   7.731  14.130  14.062  0.1526  0.0246  0.2133
 4317W        W20791   8.971  10.129  14.372  0.3677  0.2372  0.1521
 4318W        W20792   8.644   0.164   3.628 -0.1047 -0.1293 -0.1584
 4319W        W20793  12.012  18.368   0.518 -0.0405  0.2620 -0.0835
 4320W        W20794  10.367  14.780   1.089  0.2693  0.0735  0.1450
 4321W        W20795  11.332  13.305   1.085  0.0783 -0.1626 -0.1590
 4322W        W20796   9.235   2.181  12.373 -0.2582 -0.2720  0.0220
 4323W        W20797   7.907  15.576   3.578 -0.1621  0.4852 -0.1084
 4324W        W20798   4.293  12.027  12.172  0.2303 -0.3144  0.1184
 4325W        W20799   5.358   8.027  13.414 -0.1016 -0.0774  0.2460
 4326W        W20800   5.978   1.442   0.807  0.3080 -0.0965  0.2974
 4327W        W20801  14.393  16.759  14.410  0.3289  0.1593  0.0895
 4328W        W20802  17.182  17.722  14.397  0.1441  0.4139  0.1365
 4329W        W20803   7.767  11.229  11.289  0.0697  0.1220  0.1742
 4330W        W20804   4.789   4.053  14.392 -0.0459  0.0052  0.0318
 4331W        W20805   6.674  15.643   3.129 -0.3015  0.1621  0.2470
 4332W        W20806  18.709  18.868  11.856  0.2333  0.2324 -0.1572
 4333W        W20807   2.150  10.246   3.506  0.1259 -0.5069  0.4287
 4334W        W20808  17.199  17.433  13.522  0.2805  0.3070 -0.0199
 4335W        W20809   9.530   8.281  14.863  0.1973 -0.4021  0.1878
 4336W        W20810   1.695  15.354   1.905 -0.0696 -0.0239  0.4069
 4337W        W20811  11.832  18.407   4.484  0.1560 -0.1427 -0.3032
 4338W        W20812  12.815  18.277  12.741 -0.2464  0.1638 -0.1136
 4339W        W20813   6.177  14.316  11.458  0.2814 -0.2721  0.0759
 4340W        W20814  13.946   1.215   3.020 -0.1847  0.3000 -0.0289
 4341W        W20815   3.259   3.621   4.032 -0.1743 -0.0522  0.0305
 4342W        W20816  10.376   0.152  14.624  0.1796  0.0099  0.3233
 4343W        W20817   1.093   6.832  13.223  0.3714 -0.3220  0.1117
 4344W        W20818  13.613  18.473   1.930  0.2089 -0.0035 -0.0359
 4345W        W20819   5.611  11.141  14.564 -0.3626 -0.0385  0.2817
 4346W        W20820  12.358  16.492   0.121  0.0621 -0.4270  0.2329
 4347W        W20821  18.689   2.232   4.172 -0.1502 -0.2514 -0.0514
 4348W        W20822  11.627   1.373   2.675 -0.3466  0.0217 -0.0120
 4349W        W20823   3.427  16.764  14.273 -0.2529  0.2143 -0.1293
 4350W        W20824   1.640  12.564   0.867  0.2693  0.0049  0.3223
 4351W        W20825  16.645  11.534   2.111  0.2661 -0.0556 -0.1537
 4352W        W20826   7.902  10.649  14.069 -0.1914 -0.0999  0.2279
 4353W        W20827   8.895   8.062  13.353  0.2615  0.0456 -0.1339
 4354W        W20828   1.109   2.739  14.348  0.0644  0.1240 -0.0619
 4355W        W20829   0.606   1.664   2.501  0.2406  0.1303 -0.0984
 4356W        W20830   1.950  13.758  14.434  0.0568  0.1462  0.1019
 4357W        W20831   6.002   0.561   9.774  0.0627 -0.3951  0.3145
 4358W        W20832  17.585   3.259  15.075  0.0362  0.0675  0.0409
 4359W        W20833  13.456  18.483   2.394 -0.2560 -0.1276 -0.0772
 4360W        W20834  13.203   7.203  12.392 -0.0002 -0.0726  0.5223
 4361W        W20835   8.878   1.396  15.093  0.0782 -0.3651 -0.2785
 4362W        W20836  16.616  12.161   1.703  0.0275 -0.1943 -0.2354
 4363W        W20837   9.306  16.649  12.451 -0.3553  0.2966 -0.0913
 4364W        W20838   7.372  17.054  13.205 -0.1738 -0.0347  0.0163
 4365W        W20839   9.779  18.107   9.339 -0.0453  0.0266 -0.0076
 4366W        W20840   5.662   3.505   3.455 -0.0409  0.2165  0.1159
 4367W        W20841  13.995   1.319   4.275 -0.2205  0.1764 -0.3478
 4368W        W20842   0.291   8.879  14.455 -0.0709 -0.1348 -0.0162
 4369W        W20843   7.441   9.068   3.083 -0.4112 -0.0939  0.1416
 4370W        W20844   5.060   0.869  12.462  0.0302 -0.0628  0.0583
 4371W        W20845   4.728   5.710  15.106 -0.3077  0.0711  0.0201
 4372W        W20846   3.596  12.672   2.017 -0.1044 -0.3553  0.0074
 4373W        W20847  17.890  13.162  14.115 -0.1285 -0.0812  0.0401
 4374W        W20848  16.405  13.046   0.024  0.3219  0.4223 -0.0556
 4375W        W20849   1.227   4.782   0.180  0.4010 -0.0270  0.0786
 4376W        W20850   2.909  13.501  11.201  0.1094  0.2034  0.0772
 4377W        W20851   6.801  17.752  13.742  0.0293  0.3600 -0.0546
 4378W        W20852  18.568   9.458  10.275  0.0096 -0.1437  0.0038
 4379W        W20853   6.486   9.770   2.105  0.1291 -0.4701  0.1677
 4380W        W20854   1.641  18.912  12.627  0.0472 -0.0236  0.1634
 4381W        W20855   0.151   5.668  12.447  0.2883  0.1478 -0.0175
 4382W        W20856  13.437   3.960  10.580 -0.0595 -0.0276 -0.1183
 4383W        W20857  12.650  15.061   1.439  0.3099  0.1573  0.2447
 4384W        W20858   2.296   7.905  13.919  0.1738 -0.1325  0.2785
 4385W        W20859   8.030  18.100   5.129  0.2137 -0.2053 -0.1227
 4386W        W20860  10.271  13.982   0.134 -0.2370 -0.0622 -0.0264
 4387W        W20861   0.990   7.791  10.974  0.2347  0.0212  0.1594
 4388W        W20862  12.143  12.050  13.570 -0.2044  0.0420 -0.0271
 4389W        W20863   0.444  15.762   2.545  0.1029  0.0249 -0.2538
 4390W        W20864   2.559  14.666   2.290 -0.0556  0.4640  0.0912
 4391W        W20865   5.076  12.039  11.684  0.0667 -0.1731 -0.2500
 4392W        W20866   8.933   3.944   0.794 -0.2580  0.2056  0.0232
 4393W        W20867  14.883   6.117  12.870 -0.2893  0.3032 -0.2495
 4394W        W20868  17.975   3.776  10.911 -0.0889 -0.1973 -0.0057
 4395W        W20869  18.947  15.848  13.335 -0.2300  0.0453  0.2258
 4396W        W20870   1.861   5.146   0.251  0.2622 -0.1145  0.0619
 4397W        W20871  10.501   8.152  10.150 -0.1667 -0.0031  0.0841
 4398W        W20872   9.863   5.441   4.979  0.0102 -0.0005 -0.0921
 4399W        W20873   6.496  17.070   2.175 -0.1431 -0.1818  0.2276
 4400W        W20874  12.541   4.535   1.267 -0.0502 -0.0521 -0.2463
 4401W        W20875   6.639   1.176  11.758  0.2972 -0.2063 -0.0462
 4402W        W20876   2.912   5.006   5.863 -0.3689  0.4993 -0.0350
 4403W        W20877   5.770  17.488   2.094 -0.0890  0.2002  0.3360
 4404W        W20878  18.235   9.268   4.059 -0.1452 -0.4270  0.0455
 4405W        W20879   6.728   6.180   1.615  0.2302 -0.2069  0.0568
 4406W        W20880   7.298  12.756  11.238  0.1729  0.2077 -0.1695
 4407W        W20881  17.776   2.217   2.863  0.1862 -0.0532 -0.2655
 4408W        W20882   4.531   0.510  13.757 -0.0334  0.1718  0.2252
 4409W        W20883   8.240   7.241   9.634 -0.0813  0.2846  0.0672
 4410W        W20884  15.525  16.527  14.844  0.4688 -0.1510 -0.0913
 4411W        W20885  17.868   3.146  10.026  0.0929 -0.0163 -0.0406
 4412W        W20886   8.129   9.547  13.104  0.1220 -0.4195 -0.1235
 4413W        W20887   8.044   7.332   3.885 -0.1274  0.1871  0.1291
 4414W        W20888   0.931   6.030  13.955  0.0129 -0.3329  0.0141
 4415W        W20889   0.980  13.304   3.605  0.0066 -0.3202  0.1243
 4416W        W20890  16.960  10.562   3.105 -0.3310 -0.0237 -0.1162
 4417W        W20891  12.431   0.575  13.642 -0.0329  0.0682 -0.0061
 4418W        W20892  19.027   8.006  12.001 -0.2345 -0.0783 -0.2894
 4419W        W20893  14.594  10.036   0.407 -0.0582 -0.0166  0.1239
 4420W        W20894   3.051   3.895  12.132 -0.3827 -0.2045 -0.0654
 4421W        W20895  11.648  16.786  14.480 -0.0341 -0.0179 -0.0609
 4422W        W20896   6.723   1.643   5.587 -0.0696 -0.0405  0.0331
 4423W        W20897  14.501  16.379   3.477 -0.0837 -0.1616 -0.0819
 4424W        W20898  15.907   6.628  12.225 -0.1316 -0.1745  0.1790
 4425W        W20899  13.664  17.494  14.171  0.2584 -0.1939 -0.0132
 4426W        W20900   3.645   0.583  11.614 -0.1246 -0.2911 -0.0765
 4427W        W20901  13.893  10.812   3.140 -0.3012  0.3380 -0.1845
 4428W        W20902  17.413  18.975   9.865 -0.0965 -0.0058 -0.4161
 4429W        W20903   4.683   4.785   5.260  0.0684  0.2582  0.1025
 4430W        W20904   3.121   2.355  14.298 -0.0886  0.0690  0.0224
 4431W        W20905   9.144   3.950   9.833 -0.1007  0.0265 -0.1387
 4432W        W20906   5.129  15.943  12.565 -0.0699  0.1075  0.0709
 4433W        W20907  11.421   0.010   3.298  0.1229 -0.0798  0.1775
 4434W        W20908   3.317   2.561   1.070 -0.0292 -0.0822  0.0852
 4435W        W20909  11.720  12.465   2.527  0.1668  0.0838  0.0637
 4436W        W20910  15.357  18.911   2.493  0.1224 -0.2019  0.0152
 4437W        W20911   6.822   3.755  12.104  0.0254 -0.2012  0.3739
 4438W        W20912  17.746  11.377   1.750 -0.1558 -0.4259  0.0576
 4439W        W20913  13.206   1.766  13.900 -0.2576 -0.2789 -0.1120
 4440W        W20914   1.293   6.153  11.986 -0.0884  0.4144  0.0026
 4441W        W20915   8.221  14.991   0.185  0.3197 -0.2284 -0.4387
 4442W        W20916  12.114  11.019   2.453  0.2084 -0.0401 -0.2177
 4443W        W20917   4.865   2.799  14.343 -0.0639  0.0777  0.1769
 4444W        W20918   8.978  17.728  13.466 -0.1388  0.2695  0.2612
 4445W        W20919   8.008   8.864  12.749  0.3546  0.1089  0.0746
 4446W        W20920   7.294   0.045  14.743 -0.0278 -0.0154 -0.0148
 4447W        W20921   9.192   6.271   2.067 -0.2381  0.1244  0.1048
 4448W        W20922  13.886  19.016   3.105 -0.3311  0.0732  0.0974
 4449W        W20923   0.328  10.896   2.352  0.0656 -0.2300 -0.0336
 4450W        W20924   1.426  16.158   4.532  0.2635 -0.2875 -0.3663
 4451W        W20925  13.591  12.930   0.077 -0.2307  0.1174  0.0563
 4452W        W20926  12.784   3.809   4.435 -0.1817 -0.0694 -0.2244
 4453W        W20927   8.493   3.343  10.940 -0.3839  0.0742  0.0318
 4454W        W20928   9.493   3.814   2.124  0.0072 -0.2972  0.0268
 4455W        W20929  15.111  17.120   3.535  0.2298 -0.2563  0.2267
 4456W        W20930  11.050  11.261  11.544  0.1999 -0.1509 -0.2566
 4457W        W20931   3.156   4.457  13.626 -0.1311 -0.1389 -0.3204
 4458W        W20932   2.784   3.366   4.157 -0.0768 -0.0678  0.2988
 4459W        W20933   9.235   7.087  14.365 -0.0803  0.4135  0.3556
 4460W        W20934  18.695   4.609  10.960  0.0079  0.0024  0.2164
 4461W        W20935   6.048  11.364  12.216  0.0442 -0.3232  0.0511
 4462W        W20936   9.414  10.297   5.093 -0.1294 -0.3182 -0.3105
 4463W        W20937  14.855   9.667  13.019  0.3181  0.0267 -0.3458
 4464W        W20938  19.064   5.136  11.650 -0.1738 -0.1498 -0.0841
 4465W        W20939   5.602  12.845  12.696 -0.0977 -0.2915 -0.0971
 4466W        W20940  14.174  16.159   5.352  0.0482 -0.1288  0.2014
 4467W        W20941   4.863  17.910   1.427 -0.1756 -0.0264 -0.0369
 4468W        W20942   3.668   3.254   0.242 -0.2037 -0.0717  0.3960
 4469W        W20943  17.274  12.930   0.520  0.3711  0.0773  0.2466
 4470W        W20944  17.634   5.024   0.274 -0.3281  0.3867 -0.0741
 4471W        W20945  15.967  10.565  10.938 -0.3201  0.0131 -0.1237
 4472W        W20946  18.594  17.694  10.707  0.1828  0.2962 -0.1608
 4473W        W20947   3.809  13.585  12.599 -0.1086  0.1185 -0.0071
 4474W        W20948  13.839   2.221   0.915  0.1109  0.2682  0.1238
 4475W        W20949   2.915   1.581   5.288  0.2308  0.0720  0.1663
 4476W        W20950   9.911  18.004   1.616 -0.0444 -0.0488  0.0460
 4477W        W20951  15.051   4.345   0.310  0.1368  0.1059 -0.0484
 4478W        W20952  16.936  13.386   4.067 -0.0193 -0.0131  0.3410
 4479W        W20953   4.456   3.424  13.365  0.1172  0.1902 -0.1114
 4480W        W20954  15.258   2.878   3.635 -0.3087 -0.1083 -0.0333
 4481W        W20955   8.130   5.281   5.143  0.1541  0.3758 -0.1188
 4482W        W20956  12.879   4.604  12.270 -0.3630  0.0416 -0.0433
 4483W        W20957  16.302  13.483  14.864  0.2792 -0.0481  0.1807
 4484W        W20958   6.820   3.125   2.596  0.1716  0.1872 -0.1141
 4485W        W20959   9.216  11.665   1.924  0.1967  0.1114 -0.0297
 4486W        W20960   9.531   0.609  13.704  0.2063  0.1581 -0.2531
 4487W        W20961   4.992   4.375   2.040 -0.0673  0.0566 -0.0069
 4488W        W20962  16.331  15.992   1.708  0.0084 -0.1718 -0.4467
 4489W        W20963   4.473   4.420   3.492  0.4266  0.2638 -0.1801
 4490W        W20964  15.367   3.565  14.918 -0.0710 -0.4792  0.0853
 4491W        W20965   1.252   5.976  11.463  0.0805 -0.2543 -0.1172
 4492W        W20966   0.939  14.230   4.264  0.0577  0.1150 -0.1520
 4493W        W20967  14.258  16.144   3.003  0.3395  0.0412 -0.0483
 4494W        W20968  18.641  16.238   1.409  0.1601 -0.0545  0.3095
 4495W        W20969   8.111  13.521   0.077  0.1240 -0.0106  0.2278
 4496W        W20970   0.233   3.996  11.718  0.1844 -0.0518  0.1332
 4497W        W20971  18.555  14.062  14.297  0.2624  0.1026  0.2271
 4498W        W20972   9.488   3.534   1.730  0.1981  0.2553  0.1478
 4499W        W20973   0.928   9.744  11.200 -0.1046  0.1971  0.0302
 4500W        W20974   2.202   8.726   3.363 -0.0239 -0.2114  0.0299
 4501W        W20975  15.397   0.830  11.949  0.0598 -0.0577  0.1242
 4502W        W20976  16.166   5.942   1.968  0.1685 -0.1867 -0.1756
 4503W        W20977  16.814   5.334  12.519  0.1615 -0.0125 -0.1397
 4504W        W20978  18.645  15.141  14.976 -0.1620  0.3218  0.2248
 4505W        W20979  17.864  10.270  14.510  0.0425 -0.2471  0.0419
 4506W        W20980   4.993  14.118  11.887 -0.0824  0.0506  0.0632
 4507W        W20981  16.446  17.072   4.303 -0.2008 -0.0171  0.0733
 4508W        W20982  10.011  14.904  12.816 -0.2211 -0.2750 -0.1518
 4509W        W20983  11.396   5.037  13.186  0.1519 -0.6083  0.0771
 4510W        W20984   2.361   6.529  13.637 -0.0514  0.0970  0.0890
 4511W        W20985  15.294  16.753  10.160  0.0124 -0.0309  0.0143
 4512W        W20986   2.306   2.086   4.568 -0.0514  0.0770 -0.0777
 4513W        W20987   2.360   1.501  14.917  0.0450 -0.2951 -0.1448
 4514W        W20988   1.212  10.502  10.360  0.1287 -0.0950  0.1306
 4515W        W20989   5.663  18.288   0.377  0.4316  0.2149 -0.0590
 4516W        W20990   3.020   1.006   2.973 -0.0422 -0.0492  0.0112
 4517W        W20991  17.364   0.712   4.849 -0.1048 -0.2852  0.3007
 4518W        W20992   3.718  16.233  10.638  0.1470 -0.2265 -0.1505
 4519W        W20993   8.361  14.321  11.053  0.0456  0.2129 -0.0799
 4520W        W20994   1.015   0.383  11.714  0.1704 -0.1753 -0.1888
 4521W        W20995  16.461  17.788   4.874  0.0546 -0.1120  0.0127
 4522W        W20996   5.588  10.651  10.437 -0.0454 -0.1564  0.0599
 4523W        W20997   4.218   0.135   5.187 -0.1712  0.2494 -0.2994
 4524W        W20998   9.399  14.753  10.658  0.0016  0.1747 -0.1487
 4525W        W20999   0.435   0.932  11.019 -0.1347  0.2637  0.0109
 4526W        W21000   0.622  19.034  11.413  0.2168  0.3402  0.1094
 4527W        W21001   2.691   2.266  15.076 -0.2099 -0.1299 -0.2754
 4528W        W21002  17.411   1.132   1.797  0.1278 -0.0918 -0.1890
 4529W        W21003  11.388  13.564  12.318  0.1429 -0.2165 -0.1046
 4530W        W21004  14.025   4.336  13.419 -0.3811 -0.2679 -0.1511
 4531W        W21005  16.480  13.749  14.448  0.1121  0.0974  0.2949
 4532W        W21006  15.287   2.272  13.735 -0.1436 -0.1534  0.0856
 4533W        W21007   1.171  12.463   0.633  0.3414  0.0659  0.0829
 4534W        W21008  14.783  15.022  12.034 -0.1566  0.1920 -0.0039
 4535W        W21009  15.269  13.603  13.420 -0.1645 -0.0392  0.2351
 4536W        W21010  10.207  15.272  14.466  0.2975 -0.1485 -0.0706
 4537W        W21011  18.450  13.027   4.455 -0.1731 -0.0794 -0.0988
 4538W        W21012  18.648  15.152  11.191 -0.0522 -0.0695  0.0305
 4539W        W21013   9.188   1.959   1.971  0.0110 -0.1855  0.0186
 4540W        W21014   2.394   3.553   4.482  0.2069 -0.0878 -0.2528
 4541W        W21015  17.734   2.639  11.416 -0.2284  0.4276 -0.1299
 4542W        W21016  16.567   3.883  14.325  0.1947 -0.0086  0.2250
 4543W        W21017  14.780  11.118  12.527 -0.3345 -0.1342 -0.1210
 4544W        W21018  12.414   4.379   4.856 -0.3964  0.0648  0.0492
 4545W        W21019   1.560   7.111  13.930  0.3220 -0.2152  0.0255
 4546W        W21020  17.430  18.236  14.318  0.0470 -0.2203 -0.1976
 4547W        W21021  13.857   8.935   1.179 -0.0402  0.0508  0.1018
 4548W        W21022   8.616  18.111   2.216  0.3501  0.0202  0.0402
 4549W        W21023   2.827  12.584  10.237  0.1598 -0.2280 -0.4289
 4550W        W21024  10.457  11.226  12.712  0.0081  0.1277  0.3208
 4551W        W21025   0.389  15.740   0.118  0.0353 -0.0866  0.6284
 4552W        W21026   8.052   4.308   1.423  0.0702  0.5151  0.0565
 4553W        W21027   6.810   5.386  12.082  0.1135 -0.2331  0.1906
 4554W        W21028  12.122  13.562  11.904 -0.1475  0.0677 -0.1209
 4555W        W21029  14.701  12.055  11.264  0.1710 -0.1082 -0.1991
 4556W        W21030  19.098  12.865  10.708  0.2705  0.1855 -0.1542
 4557W        W21031  14.016   9.778   5.325  0.0324  0.2964  0.1140
 4558W        W21032   3.261   2.807  13.078  0.2349  0.0366 -0.0005
 4559W        W21033   0.599  12.599   1.563  0.0788  0.2030  0.0539
 4560W        W21034  18.376   3.848  12.113 -0.2014  0.1076 -0.1488
 4561W        W21035   5.194   9.622   3.229  0.0363  0.0194  0.1240
 4562W        W21036   1.788  11.370  14.454 -0.1167 -0.1033 -0.0662
 4563W        W21037   4.002   0.526   4.417  0.0414  0.1256  0.3356
 4564W        W21038  16.487  15.378   3.148 -0.0177 -0.0098  0.2838
 4565W        W21039   8.495   8.311   0.345 -0.0959  0.0207 -0.1065
 4566W        W21040  13.215  13.963   4.631 -0.0195  0.0495 -0.1131
 4567W        W21041  12.660   2.602   5.086 -0.2928  0.0527  0.1155
 4568W        W21042  10.300  15.522  12.141 -0.0737 -0.1557 -0.1539
 4569W        W21043   9.798   3.939   1.655  0.2801 -0.1073 -0.0278
 4570W        W21044  14.415   7.146   3.631 -0.4446  0.1349  0.1154
 4571W        W21045   0.371  10.527   1.768  0.1540  0.2054  0.0097
 4572W        W21046   4.703   7.445  11.035 -0.0800 -0.1433  0.1000
 4573W        W21047   2.828  15.391  13.442 -0.0742  0.0041  0.1756
 4574W        W21048   3.263  15.395   5.680 -0.0701  0.2298 -0.3148
 4575W        W21049  11.727  18.711   0.108 -0.0138 -0.1337  0.1829
 4576W        W21050   9.318   4.047   1.577  0.0963 -0.2393  0.4766
 4577W        W21051  18.887  17.026   1.207 -0.0165  0.0127  0.0141
 4578W        W21052  16.438   6.227  11.886  0.0750  0.2936 -0.1148
 4579W        W21053   1.479  15.289   1.421  0.0024 -0.1800  0.2247
 4580W        W21054   7.217   8.161   5.523  0.1516 -0.0089  0.0625
 4581W        W21055  17.590   7.972   2.304  0.2698 -0.1932  0.1921
 4582W        W21056   0.023   6.831  13.989  0.1019  0.3758  0.2666
 4583W        W21057  16.828  16.068   4.206 -0.3243 -0.0963 -0.0950
 4584W        W21058   3.456  18.605  14.763 -0.0133  0.0727  0.3240
 4585W        W21059   0.983   0.476   4.842  0.2098  0.2307 -0.0450
 4586W        W21060   6.713   0.845   4.418 -0.3634 -0.1788  0.2656
 4587W        W21061  15.793  11.381  14.626 -0.1846  0.0076 -0.0508
 4588W        W21062  15.167   9.123  11.586 -0.1251 -0.2115  0.1158
 4589W        W21063   2.308  11.913   9.265 -0.1893 -0.2317 -0.0258
 4590W        W21064   7.603   4.296   4.318 -0.1269  0.0781 -0.1106
 4591W        W21065   2.250   0.897   4.282  0.2178 -0.0851  0.1818
 4592W        W21066  10.798  13.453   2.091 -0.3950  0.1767 -0.0599
 4593W        W21067  15.586   5.583   0.822 -0.0429 -0.1439 -0.3043
 4594W        W21068  17.841   2.992   0.862  0.0926  0.0981  0.0797
 4595W        W21069   9.292   5.673  14.417  0.0843 -0.0600  0.0646
 4596W        W21070   8.177  18.267  14.549 -0.2769  0.1106 -0.0994
 4597W        W21071   7.769   9.425   2.600 -0.1115  0.0482  0.2153
 4598W        W21072  18.762   4.149  13.412  0.0385  0.0632 -0.1204
 4599W        W21073  12.016  17.421   1.296 -0.1862  0.3201  0.0858
 4600W        W21074  14.240   4.017   0.338  0.0050 -0.4468 -0.1516
 4601W        W21075  18.487   7.668   2.668  0.1353 -0.2890  0.1623
 4602W        W21076  13.255   3.662  10.990 -0.0053  0.0895  0.1897
 4603W        W21077  10.075   0.107   5.132  0.0337 -0.3398  0.2626
 4604W        W21078   5.181   2.643  13.159 -0.0411 -0.2067 -0.0811
 4605W        W21079  12.491   9.751   2.020 -0.1767 -0.1368 -0.1863
 4606W        W21080   7.363   5.073   3.095  0.4544  0.1695  0.2280
 4607W        W21081   0.828   6.607  10.793 -0.1121 -0.0240  0.0829
 4608W        W21082   7.692  11.208  10.722  0.2358 -0.0764 -0.1728
 4609W        W21083  16.639   3.630   2.568  0.0365 -0.0663  0.0530
 4610W        W21084  10.306   9.686   3.316 -0.2867 -0.4550  0.0720
 4611W        W21085  13.619  16.025  14.256  0.1720  0.0852  0.1021
 4612W        W21086  14.315  18.782   2.852 -0.0865 -0.0432  0.2443
 4613W        W21087  10.577  16.281   4.082  0.3610  0.1404  0.0757
 4614W        W21088   1.391   8.928   0.991 -0.0143 -0.0649  0.1397
 4615W        W21089  14.502  16.204   2.554  0.4694 -0.0650  0.1866
 4616W        W21090  17.335   3.973   4.467 -0.2018 -0.1861 -0.1295
 4617W        W21091   0.894  16.686   2.552 -0.2110 -0.0643 -0.3969
 4618W        W21092   5.288   3.267   0.386 -0.3468  0.0098  0.0311
 4619W        W21093  10.435  11.949  11.152 -0.1592 -0.1498 -0.2858
 4620W        W21094  12.813   5.887   3.732  0.0264  0.0003 -0.1371
 4621W        W21095  16.746   1.390  11.200 -0.4096  0.2150 -0.1632
 4622W        W21096  14.768  10.689   2.817  0.3699 -0.2620  0.1809
 4623W        W21097  11.311   0.580  11.735 -0.1742 -0.0612 -0.0903
 4624W        W21098   7.817   9.160  12.213 -0.3179 -0.0225 -0.2058
 4625W        W21099  17.561   1.308  11.307 -0.2712  0.2469  0.1187
 4626W        W21100  17.907   3.104   0.354 -0.0728 -0.2331  0.1146
 4627W        W21101  13.880  12.426  11.533  0.0020  0.1234  0.5404
 4628W        W21102   7.017  17.228  12.026  0.0996 -0.0808  0.0615
 4629W        W21103   6.961  14.900  13.615  0.3151 -0.0029  0.0970
 4630W        W21104  11.272   1.569   2.326  0.0360 -0.0334 -0.0211
 4631W        W21105  17.471   2.469   3.511  0.0074 -0.0305 -0.3155
 4632W        W21106  18.760   2.477  14.076  0.3065  0.1260  0.1177
 4633W        W21107   3.632   4.326  14.440  0.2504  0.1392  0.0628
 4634W        W21108  10.764  18.098  12.940  0.0364  0.1192  0.2659
 4635W        W21109  14.465   8.536  13.404 -0.0550  0.0688 -0.0670
 4636W        W21110   1.961  13.620   5.475  0.1069  0.0109 -0.0304
 4637W        W21111  10.110   8.116  13.881  0.0359  0.0432  0.1068
 4638W        W21112  14.457  13.785   1.675 -0.0591  0.1187 -0.1204
 4639W        W21113   2.138   1.624   1.477  0.1420  0.3978 -0.0908
 4640W        W21114   8.051   0.687   5.301 -0.2926 -0.4789 -0.0819
 4641W        W21115  16.617   8.600  10.428  0.0056 -0.1534 -0.1350
 4642W        W21116  18.959  10.264   1.413 -0.1694 -0.1162  0.0672
 4643W        W21117   8.449   7.744  13.428 -0.1270 -0.0594  0.0446
 4644W        W21118  17.838   0.572  12.407 -0.0728 -0.3257 -0.0429
 4645W        W21119  12.374   9.516  10.904 -0.4136  0.0263 -0.0576
 4646W        W21120   9.087   8.328  10.978  0.0184  0.0169  0.0946
 4647W        W21121  16.085  16.325   0.680 -0.3108  0.1685  0.1139
 4648W        W21122  15.656  18.370   5.426 -0.1006 -0.0880  0.0766
 4649W        W21123   7.881  10.191   0.708  0.1193  0.0336 -0.2802
 4650W        W21124  13.395   5.778   2.306 -0.0029  0.0168 -0.0385
 4651W        W21125   6.149   2.778   4.999  0.1915 -0.0804 -0.3375
 4652W        W21126   7.165   3.487   3.902 -0.0106  0.0913 -0.1370
 4653W        W21127  14.391   9.361  10.984 -0.0381  0.0519 -0.2004
 4654W        W21128   2.473   9.877  13.190  0.1645 -0.0795  0.0563
 4655W        W21129   6.859  10.109  11.129  0.3233  0.1342 -0.3864
 4656W        W21130  15.086   5.470   0.909  0.0174 -0.1075 -0.3225
 4657W        W21131  18.114   3.298  13.434 -0.1611  0.1420  0.0686
 4658W        W21132  18.517  17.031   0.868  0.2165  0.1220  0.1003
 4659W        W21133  14.912   5.305  12.187 -0.0510  0.0350  0.1310
 4660W        W21134   1.194   7.668  10.351  0.2170 -0.2718  0.0505
 4661W        W21135  10.521   2.163   0.775  0.0572 -0.3089 -0.0182
 4662W        W21136   3.061   1.263  13.694 -0.0624 -0.2060 -0.1246
 4663W        W21137   1.902   8.192  12.995 -0.0169  0.3554 -0.1830
 4664W        W21138   8.443   5.086  13.296 -0.0120  0.1620  0.2476
 4665W        W21139   7.920  16.486  14.882 -0.0440  0.2704  0.1869
 4666W        W21140   9.078  13.821   2.058 -0.1045 -0.0709 -0.0867
 4667W        W21141  16.107   3.719  10.500  0.1611  0.0088 -0.2190
 4668W        W21142   1.226   3.545  15.033 -0.1836  0.0064 -0.2861
 4669W        W21143  14.333  10.416  14.503 -0.0150 -0.1029  0.0633
 4670W        W21144   2.945   1.391  11.359  0.2209 -0.1189  0.0367
 4671W        W21145   6.533   3.336   0.924 -0.3577  0.3754 -0.1710
 4672W        W21146   4.089   6.427  14.729  0.0211 -0.4381  0.0736
 4673W        W21147  13.030   4.360  11.853  0.1523  0.0811 -0.0255
 4674W        W21148   4.122  11.177   1.457  0.1665  0.1695  0.1937
 4675W        W21149  17.065   8.627   5.096 -0.0881 -0.0090  0.3519
 4676W        W21150   2.223  17.271   3.285  0.0682  0.0571  0.1040
 4677W        W21151  11.600  10.530   3.620  0.1844 -0.2982  0.2855
 4678W        W21152  16.694   7.679  10.661 -0.0391 -0.0267  0.0272
 4679W        W21153  13.913   4.905   1.054  0.2902  0.1697 -0.0035
 4680W        W21154   8.932   1.004   1.635  0.1989 -0.1697 -0.0553
 4681W        W21155   7.044  11.415  14.534 -0.2313  0.1993 -0.3934
 4682W        W21156  10.229   4.842   2.045 -0.1049 -0.3433 -0.0156
 4683W        W21157   5.891  15.989   5.210  0.0102 -0.2745  0.2771
 4684W        W21158  18.290  11.498   0.966  0.0109 -0.2365  0.1154
 4685W        W21159  15.888  12.468   3.709  0.0724 -0.2035 -0.0787
 4686W        W21160  18.806  15.573   0.999 -0.0058 -0.1540 -0.0298
 4687W        W21161  11.037  14.858  12.591  0.0937 -0.0242  0.0471
 4688W        W21162   0.203   3.738   0.947 -0.0652 -0.3018 -0.0661
 4689W        W21163   8.855  11.531  12.858  0.1372 -0.2540 -0.2573
 4690W        W21164   6.229   8.695  14.609 -0.1914 -0.0638  0.2408
 4691W        W21165   8.153  13.738   4.740  0.0509  0.2566  0.1819
 4692W        W21166  16.033   7.937   0.720  0.2895  0.0724  0.0549
 4693W        W21167   9.589   2.271   0.355 -0.1309  0.1442 -0.0224
 4694W        W21168  10.863  10.255  11.566  0.0685 -0.0520  0.1239
 4695W        W21169   4.347   6.739   2.672 -0.0118  0.1090 -0.1552
 4696W        W21170  17.569  14.880   1.971 -0.0907  0.1358 -0.2991
 4697W        W21171  12.059   7.826   1.284  0.3045  0.2500  0.0170
 4698W        W21172   5.497   8.617   2.617  0.1310  0.0119 -0.2678
 4699W        W21173  15.532  12.456  11.481 -0.1717 -0.1096 -0.4059
 4700W        W21174  12.806  17.037   1.246 -0.1055  0.0176 -0.0168
 4701W        W21175   4.624  16.712   3.796  0.2235 -0.0419 -0.0557
 4702W        W21176  17.970  17.001  11.715  0.0141 -0.0178 -0.1200
 4703W        W21177  15.452   3.478  11.909  0.3336 -0.1547 -0.0916
 4704W        W21178  10.572  18.951  10.974 -0.0759 -0.0626  0.2632
 4705W        W21179   8.789  10.851  12.511  0.0738 -0.0049  0.0504
 4706W        W21180   9.007   9.381   0.809  0.1591  0.4969  0.2925
 4707W        W21181   1.360   9.473   1.087  0.1215  0.2760 -0.0406
 4708W        W21182  18.980  19.130  12.204 -0.4228 -0.0542 -0.1810
 4709W        W21183  10.230  12.439   9.966 -0.1753 -0.0844 -0.3045
 4710W        W21184  15.395  15.558   2.350  0.0060 -0.1586  0.0621
 4711W        W21185  15.856   0.844   3.144  0.2483  0.3116  0.3934
 4712W        W21186  15.738   6.680   4.337 -0.0603  0.0026 -0.1883
 4713W        W21187  18.380   9.185   0.387  0.2506 -0.0403 -0.1160
 4714W        W21188   1.909  18.639   3.547  0.1249  0.0999 -0.0825
 4715W        W21189  15.669   8.698  13.828 -0.2905 -0.0339  0.1820
 4716W        W21190   1.377   0.286   2.854 -0.1971  0.3045 -0.0042
 4717W        W21191  13.299   0.485   2.739  0.0201 -0.0422  0.0372
 4718W        W21192  14.323  11.639   3.748  0.3680 -0.2630 -0.1200
 4719W        W21193   5.188   6.475   2.124  0.0523 -0.1503 -0.1127
 4720W        W21194   6.863   2.593  12.993  0.0351 -0.2483  0.1617
 4721W        W21195   4.964   5.695  11.605 -0.2924  0.2369  0.3085
 4722W        W21196  17.667   1.490   0.777 -0.3062  0.0299  0.2033
 4723W        W21197  12.807   4.689   1.866  0.1766 -0.2652 -0.1755
 4724W        W21198  15.257   6.561  11.508 -0.5210 -0.1632 -0.4212
 4725W        W21199   9.898  10.279  14.823 -0.0498  0.2283  0.1302
 4726W        W21200  12.556   3.522   4.062  0.1432 -0.0607 -0.3228
 4727W        W21201  10.920  17.085   1.044  0.1795 -0.3380  0.2196
 4728W        W21202  13.894  17.482   0.368 -0.1242 -0.0683 -0.2206
 4729W        W21203  14.586   3.161   1.637 -0.1856  0.0058  0.0877
 4730W        W21204   5.062   8.727   5.425  0.0167  0.0991 -0.0194
 4731W        W21205   7.822  18.723   5.646 -0.1127 -0.1583  0.3446
 4732W        W21206   8.107   9.571  10.907 -0.0110 -0.0337 -0.1687
 4733W        W21207  14.475   0.712  14.356  0.2447  0.0480 -0.1264
 4734W        W21208  15.715  16.461  10.957 -0.2088 -0.1145 -0.3899
 4735W        W21209   0.072  18.603  14.965 -0.0371  0.0150  0.3224
 4736W        W21210  16.611  10.731   2.059 -0.0675  0.1125  0.2716
 4737W        W21211  14.981   9.709  14.354 -0.1753  0.0175  0.2126
 4738W        W21212   0.753   6.157   2.764 -0.1008 -0.0451 -0.1537
 4739W        W21213   9.261   3.733   1.212  0.2266  0.1123  0.1776
 4740W        W21214   2.113  17.796  12.552  0.0815 -0.0619 -0.1710
 4741W        W21215  11.606  14.191   1.663 -0.1462 -0.4670  0.1860
 4742W        W21216  17.358   9.718   3.461  0.0629  0.3138  0.0252
 4743W        W21217   9.686  15.475   5.550  0.2922 -0.2163 -0.2298
 4744W        W21218  11.709   9.381   2.685 -0.1052  0.0484  0.0683
 4745W        W21219  19.022   3.381   1.277 -0.0389 -0.0018 -0.0129
 4746W        W21220  17.060  16.374  12.584  0.1892  0.1239 -0.0650
 4747W        W21221   0.413  13.882  14.665 -0.3041 -0.1162 -0.0955
 4748W        W21222   1.843   5.675   0.379  0.0754 -0.1061  0.0611
 4749W        W21223   3.491   0.848  14.479  0.1413  0.0652  0.0478
 4750W        W21224  13.888  16.115   4.387 -0.3637 -0.0229 -0.3467
 4751W        W21225   3.355  14.299  14.244 -0.0304 -0.0273  0.1186
 4752W        W21226   8.010  15.174  10.719  0.1277 -0.1009  0.0038
 4753W        W21227  12.148   8.607   4.715 -0.0706 -0.1633 -0.1511
 4754W        W21228   8.296   1.397  14.065  0.0748  0.1280  0.1605
 4755W        W21229   6.481   1.147   5.729 -0.0164 -0.0731  0.0374
 4756W        W21230  16.801   2.130   5.774 -0.1507 -0.1212  0.0058
 4757W        W21231   7.499  15.680   4.607  0.2118  0.0290 -0.0114
 4758W        W21232  13.812   6.257  14.186  0.0946 -0.1737  0.0707
 4759W        W21233  16.871  17.584   0.242 -0.2347  0.0228  0.1374
 4760W        W21234  11.237  14.892   3.791 -0.0512 -0.1406 -0.1222
 4761W        W21235  13.226   0.184   0.871 -0.1245 -0.0061 -0.3191
 4762W        W21236  13.511  15.779   2.551 -0.1605 -0.0989 -0.0574
 4763W        W21237   9.130   0.971  13.778  0.0920  0.1736 -0.0701
 4764W        W21238   4.300   3.508   1.952  0.1223 -0.0912 -0.0783
 4765W        W21239  13.796  18.962  14.796  0.0485  0.0932 -0.0772
 4766W        W21240   9.779   8.627  12.513 -0.0043  0.6455 -0.3058
 4767W        W21241   9.277  17.465  15.102  0.0856 -0.0397  0.3072
 4768W        W21242  13.231   6.735   0.524 -0.0296 -0.1299 -0.0869
 4769W        W21243  14.761  16.806   3.631 -0.0370 -0.3637 -0.0420
 4770W        W21244  15.508  13.934   0.707 -0.1524 -0.4818 -0.2289
 4771W        W21245  13.386   9.136   1.219 -0.1548  0.3592  0.1088
 4772W        W21246   5.652  15.512   2.905  0.0277 -0.0209 -0.3546
 4773W        W21247  18.293  10.952   0.306 -0.0344  0.1320  0.2060
 4774W        W21248  13.516  10.222  13.099  0.0243  0.1349  0.1302
 4775W        W21249  14.115  17.610  13.556  0.1607  0.1867  0.0266
 4776W        W21250   8.283   3.065   0.553  0.1214  0.2987  0.0998
 4777W        W21251  15.263  15.785   3.467 -0.0112 -0.1881  0.0384
 4778W        W21252  11.970   4.150  14.609 -0.1852  0.0906 -0.0144
 4779W        W21253  16.862  10.086  11.405 -0.0448 -0.1054  0.1070
 4780W        W21254  12.296  16.693  12.844 -0.0177 -0.1269  0.2485
 4781W        W21255  10.218  13.695   1.057 -0.1974  0.1482  0.1637
 4782W        W21256   1.691   5.516   0.955  0.3499 -0.2093 -0.2868
 4783W        W21257   5.204  10.907   3.799 -0.0603  0.3389  0.0964
 4784W        W21258  18.547   7.520   1.358  0.1401 -0.2050  0.1312
 4785W        W21259   6.451   5.571  14.128 -0.0374 -0.0866  0.1214
 4786W        W21260  17.639  11.914  15.100  0.1613  0.2939 -0.1374
 4787W        W21261  12.311   8.940   0.489  0.1173  0.1103  0.0065
 4788W        W21262  11.136   7.111  11.356 -0.2195 -0.1546  0.1608
 4789W        W21263   4.005   1.207  13.726  0.1021  0.1607 -0.1689
 4790W        W21264  18.299  10.482   0.921  0.0766  0.0072  0.1639
 4791W        W21265  15.999  17.926   1.497  0.1954 -0.0580 -0.1251
 4792W        W21266  15.839   8.215  11.022 -0.0864  0.0339  0.0472
 4793W        W21267  17.716  18.614   0.204 -0.1506  0.0959 -0.3513
 4794W        W21268   2.472  12.699  11.233  0.2450 -0.0518  0.1619
 4795W        W21269   4.950  10.666   4.512  0.0936 -0.2616  0.0464
 4796W        W21270  16.786  16.904   2.188 -0.1565 -0.2263 -0.0679
 4797W        W21271   2.325   1.595   1.043 -0.0120  0.0849 -0.0610
 4798W        W21272   3.404   5.516  10.604  0.2494 -0.2000  0.2912
 4799W        W21273   7.197   5.305  13.698 -0.1660  0.0715  0.2784
 4800W        W21274   2.841  16.662   5.525 -0.0815 -0.1118 -0.2788
 4801W        W21275  17.996  15.602   4.344  0.3462 -0.5593  0.2948
 4802W        W21276  13.045   6.202  13.008  0.0546  0.1163  0.2627
 4803W        W21277   8.190   9.683   5.809 -0.0518 -0.0085  0.1135
 4804W        W21278  14.084   8.493   3.477  0.0696 -0.0498  0.1008
 4805W        W21279  13.775  16.113  11.784  0.0181 -0.0196 -0.1837
 4806W        W21280   8.868  13.397  13.377  0.0650  0.2358  0.2376
 4807W        W21281  15.511  16.966   3.151 -0.1135 -0.0727  0.0971
 4808W        W21282   6.889   7.345  14.277  0.1049  0.1745  0.0493
 4809W        W21283   7.867  14.880  11.520 -0.1601  0.1761  0.3011
 4810W        W21284   7.272  14.934  14.716 -0.0584 -0.0627  0.0153
 4811W        W21285  18.767  14.066  10.815 -0.2062  0.0743 -0.0821
 4812W        W21286   5.594   5.362  12.958  0.2120  0.1473 -0.2302
 4813W        W21287   5.989  12.438   2.686  0.1984 -0.1240  0.0888
 4814W        W21288   6.655   3.585   0.041  0.0522  0.0030 -0.1684
 4815W        W21289   0.486   8.151  11.582 -0.0499 -0.0387  0.3444
 4816W        W21290  14.122   9.559   4.793  0.0356  0.2211 -0.0473
 4817W        W21291   9.729   1.879   3.728 -0.0567  0.3266 -0.3922
 4818W        W21292  14.062  10.487  10.592 -0.0846  0.0116  0.1664
 4819W        W21293  13.926  16.270  13.826 -0.2949  0.0437 -0.2441
 4820W        W21294   1.388  16.919   0.510  0.1987  0.1402  0.1233
 4821W        W21295   8.553  15.641  15.006  0.1625 -0.0788 -0.0422
 4822W        W21296  16.905   6.597   3.048  0.3224 -0.2515  0.4542
 4823W        W21297  10.574   1.717  11.850  0.3044 -0.0267  0.0633
 4824W        W21298   6.759   2.020   1.520 -0.0409  0.1007 -0.0745
 4825W        W21299  18.405   3.159  11.516 -0.0608  0.1350 -0.2828
 4826W        W21300   4.609   0.093  13.520  0.0591 -0.0126 -0.3136
 4827W        W21301  16.937  16.803  10.968  0.6473  0.1315 -0.2074
 4828W        W21302   5.778   0.509   2.847  0.6408  0.1993 -0.0592
 4829W        W21303   8.001  11.082  12.235 -0.0991  0.3871 -0.0642
 4830W        W21304  18.987   7.427   1.525  0.1558  0.0569  0.4609
 4831W        W21305  17.951  15.737   1.684 -0.0266  0.0797  0.1906
 4832W        W21306  18.405  15.316   4.264 -0.0069 -0.0896 -0.6090
 4833W        W21307  10.024  14.563   2.466  0.0272 -0.0442  0.0786
 4834W        W21308   6.436   2.686   0.967  0.0792  0.0950 -0.0223
 4835W        W21309   2.026   7.113  14.391  0.1106  0.3466 -0.0865
 4836W        W21310  10.101   9.811  14.138  0.0422  0.1484  0.3301
 4837W        W21311   3.845  15.546   3.026 -0.3063 -0.1232  0.1760
 4838W        W21312  14.298  14.656   0.214 -0.0712  0.2936 -0.1461
 4839W        W21313   8.266  15.551  14.413  0.0929  0.0279  0.1099
 4840W        W21314  18.217  11.713   1.871  0.0888 -0.1554  0.1210
 4841W        W21315   8.871  17.709  15.071  0.1182 -0.0053  0.3906
 4842W        W21316   4.658   2.841  12.293 -0.1503 -0.2028 -0.0790
 4843W        W21317  11.083  16.876   3.329 -0.3245 -0.0838  0.0314
 4844W        W21318  17.156   8.824   0.807 -0.2232  0.0538 -0.0448
 4845W        W21319   3.563  15.196  12.422 -0.2328  0.0958 -0.0276
 4846W        W21320  18.351   4.043  11.402  0.0016  0.3372  0.1131
 4847W        W21321  15.689  12.671  12.992 -0.3050  0.3056 -0.2530
 4848W        W21322  10.514  15.167   0.338 -0.2065  0.1061  0.0094
 4849W        W21323  11.637   0.708   0.052 -0.2304  0.0443 -0.4492
 4850W        W21324   6.090   1.549  10.927  0.0384  0.1296 -0.1084
 4851W        W21325   9.625   5.045   3.485 -0.0615  0.1476 -0.3954
 4852W        W21326   8.942   8.610  12.891 -0.1083 -0.2666 -0.0641
 4853W        W21327  12.168  15.673   1.391 -0.2426  0.0597 -0.0215
 4854W        W21328   3.211   4.069   4.301 -0.0640 -0.1297  0.1587
 4855W        W21329  14.241  11.661   4.819 -0.0305 -0.0819  0.2887
 4856W        W21330  14.121  15.672   9.744  0.0989  0.1494 -0.0518
 4857W        W21331   2.947  15.678  10.795 -0.2114 -0.3338 -0.0827
 4858W        W21332  17.902   7.121  12.518 -0.3866 -0.1949 -0.0085
 4859W        W21333  18.371  14.845   3.777  0.1196 -0.3277  0.1835
 4860W        W21334   2.787   6.332  13.833 -0.1371  0.1515 -0.0448
 4861W        W21335   6.166   9.187  13.826 -0.2972  0.1241 -0.3310
 4862W        W21336  18.078  18.139   4.278  0.0779  0.0683  0.0960
 4863W        W21337   5.938   3.881  11.716  0.1666 -0.2182  0.0340
 4864W        W21338  12.726   0.209   3.621 -0.1660 -0.5228  0.3415
 4865W        W21339   9.508  10.995  14.111  0.2228  0.1276  0.2569
 4866W        W21340  18.197   7.045   3.748 -0.2860  0.0055  0.0980
 4867W        W21341   1.098  15.753  12.939  0.1059 -0.3748 -0.2414
 4868W        W21342  12.095   1.215  14.136  0.1866 -0.2107  0.1509
 4869W        W21343  14.407   6.142  11.999 -0.0237  0.1188 -0.0654
 4870W        W21344  16.038  16.157   3.075  0.2284 -0.0327 -0.0797
 4871W        W21345   5.420   4.198   1.495  0.1184  0.0765 -0.0591
 4872W        W21346  19.091  15.338   3.628  0.1362  0.0024 -0.0219
 4873W        W21347   6.181   7.613   4.257  0.0358  0.2312  0.2328
 4874W        W21348  12.212   4.697  13.000 -0.2645 -0.0796 -0.2463
 4875W        W21349  13.570  11.729   1.027  0.1010 -0.0796  0.0253
 4876W        W21350  15.376   8.592  13.422  0.0365  0.0371  0.0620
 4877W        W21351   8.013  15.276   4.034 -0.2317 -0.2005 -0.3195
 4878W        W21352  10.012   3.027   3.289  0.1611  0.0617  0.0763
 4879W        W21353  16.979   6.108  13.690 -0.1285 -0.1057  0.0738
 4880W        W21354   2.647  17.306  11.269 -0.2280 -0.0526  0.1765
 4881W        W21355   3.555  17.211   1.666 -0.2561 -0.3834  0.2866
 4882W        W21356   7.076  12.613   0.912 -0.1326  0.1541 -0.1211
 4883W        W21357  15.594   4.049  13.309  0.4186 -0.0110  0.2615
 4884W        W21358   7.772  18.958   0.935  0.1127  0.1038  0.2320
 4885W        W21359   8.155  10.249   2.658  0.0129 -0.3732  0.3397
 4886W        W21360   8.505   4.262   0.613  0.0594 -0.2426 -0.1834
 4887W        W21361  15.647  13.307  10.403 -0.0088 -0.3784 -0.0683
 4888W        W21362   9.697   6.205  14.891  0.1925 -0.0155  0.1477
 4889W        W21363  15.088  12.984   5.054 -0.0578 -0.3365  0.2224
 4890W        W21364   4.819   2.376   4.772  0.1658 -0.1486 -0.0217
 4891W        W21365  18.470   6.848   4.787  0.0004  0.1076  0.0992
 4892W        W21366  16.035  11.956   3.661  0.1573 -0.3208  0.1670
 4893W        W21367   5.115  17.527  12.026  0.1225  0.1567 -0.0395
 4894W        W21368  17.254  14.925  13.827 -0.1819  0.0132  0.2405
 4895W        W21369  12.159  18.075  10.716  0.2320 -0.2777 -0.1903
 4896W        W21370   2.036  12.154   0.877 -0.3254 -0.4837  0.1295
 4897W        W21371   3.646   3.336   5.117  0.2078 -0.0961  0.1032
 4898W        W21372   4.315  14.661  11.942 -0.0221 -0.1136 -0.2252
 4899W        W21373  17.214  13.848   2.768 -0.2851  0.1175  0.1784
 4900W        W21374  15.610  17.616   2.353 -0.1104 -0.2734 -0.1147
 4901W        W21375   8.788   2.939   1.962 -0.0205 -0.1647 -0.0617
 4902W        W21376   2.845  17.052   0.469 -0.2182  0.0617  0.0218
 4903W        W21377   7.233   0.571   4.425 -0.4333  0.0590  0.1375
 4904W        W21378   6.402   9.211  14.307  0.0796 -0.1088 -0.2344
 4905W        W21379  17.499   6.899  14.621  0.0135 -0.0330 -0.2351
 4906W        W21380   9.886   4.946   4.860  0.1297 -0.1420  0.0658
 4907W        W21381  17.367   2.803  10.522 -0.3149  0.1840  0.1599
 4908W        W21382  12.125   0.873  15.113 -0.4437  0.0700 -0.3882
 4909W        W21383  16.582  16.794   3.401  0.2307  0.1723  0.0358
 4910W        W21384   7.869  10.943   1.654  0.0966 -0.2179  0.1105
 4911W        W21385   9.323   8.215   2.731  0.2718 -0.3443  0.0048
 4912W        W21386   7.014   4.668  10.449  0.3373  0.2933  0.2450
 4913W        W21387  16.068   9.093   1.456 -0.0300 -0.0457 -0.2339
 4914W        W21388   6.404  12.681   1.490 -0.0058 -0.1298  0.3889
 4915W        W21389   0.689  18.512   2.362  0.2207  0.1079 -0.1870
 4916W        W21390   1.279  11.382   4.897  0.2461  0.2335  0.1786
 4917W        W21391  12.046   4.797  14.530  0.1458 -0.1349  0.1291
 4918W        W21392   6.308  15.914   3.299 -0.3099  0.1974 -0.2530
 4919W        W21393  10.040   4.984   4.122 -0.0512 -0.0912 -0.3655
 4920W        W21394   4.032   4.622  14.248 -0.2081  0.1340  0.1379
 4921W        W21395   1.740   5.074   1.096  0.1731  0.2428 -0.0997
 4922W        W21396   4.243   6.381  11.632 -0.0392  0.1326 -0.0954
 4923W        W21397   9.783  12.527   3.625  0.0283  0.0990 -0.1061
 4924W        W21398   7.417  13.487  13.252  0.0363  0.0183  0.1382
 4925W        W21399  15.475   4.304  10.484 -0.0193  0.2847 -0.2560
 4926W        W21400   5.241  14.011   2.432 -0.2951 -0.1348  0.4145
 4927W        W21401  15.404   4.882  13.516 -0.1969 -0.2324 -0.2249
 4928W        W21402   1.670  18.626   3.119  0.1819 -0.1176  0.3214
 4929W        W21403  18.316  16.537   0.793 -0.1519 -0.0417  0.1305
 4930W        W21404  11.293   5.005   1.661 -0.1657  0.0722  0.1408
 4931W        W21405   5.590  18.083   0.861 -0.0398 -0.0697  0.0904
 4932W        W21406   1.825   4.117   1.333  0.2058 -0.0971  0.2324
 4933W        W21407   9.608  18.011   4.067 -0.0533  0.1401 -0.0371
 4934W        W21408  18.888   1.714  11.931  0.0036  0.1732  0.1156
 4935W        W21409   3.806   8.943  13.737  0.1194 -0.0771  0.0990
 4936W        W21410   0.758  10.598   0.674 -0.0821  0.4620  0.0690
 4937W        W21411  13.900  14.515   1.794 -0.1876  0.1396  0.2371
 4938W        W21412  11.625  13.717   2.970 -0.1387 -0.0854 -0.2836
 4939W        W21413  18.877  10.111  10.810 -0.1146  0.2522 -0.2781
 4940W        W21414   2.494  18.656   1.906 -0.3232  0.4639  0.0130
 4941W        W21415   8.253   2.401   2.171  0.0614  0.2095 -0.2478
 4942W        W21416   2.095  19.020   1.918  0.1592 -0.3537  0.5634
 4943W        W21417   2.760   0.621   0.015 -0.2633  0.2235 -0.0889
 4944W        W21418   1.381  16.956   4.412 -0.2518 -0.0052 -0.1668
 4945W        W21419  14.541   5.760  13.230  0.1055  0.4409 -0.3021
 4946W        W21420   0.304   2.552   0.738  0.2027  0.3186  0.0609
 4947W        W21421   7.728   3.850  10.609  0.4499 -0.1123 -0.1114
 4948W        W21422   3.088  15.888   0.964  0.4444 -0.0457 -0.0678
 4949W        W21423  18.061   2.130   4.718 -0.0970 -0.1259 -0.0337
 4950W        W21424   7.241   2.813  12.716  0.1496 -0.2174  0.1603
 4951W        W21425  10.097  11.095  13.046  0.4981  0.2250 -0.0353
 4952W        W21426  12.418   4.043  10.554  0.0753  0.1215 -0.2687
 4953W        W21427  10.910  15.763   2.740  0.1697 -0.1371 -0.1102
 4954W        W21428   6.731  13.699  11.411  0.2298  0.2200 -0.0481
 4955W        W21429   9.852   9.532   3.479 -0.3560  0.0314  0.2213
 4956W        W21430  18.864   8.344  15.012  0.0135 -0.2792  0.0159
 4957W        W21431   5.509  10.830   3.295 -0.1485 -0.1232  0.1380
 4958W        W21432  14.387   5.903  11.077  0.0606  0.1914  0.3710
 4959W        W21433  12.099   1.973  12.927 -0.1664  0.0528 -0.1870
 4960W        W21434   7.807  14.038  12.735  0.0123 -0.4143  0.0660
 4961W        W21435  14.546   1.726   2.858  0.3859  0.0449 -0.0571
 4962W        W21436   5.335  16.597   1.541  0.1715  0.0077  0.0722
 4963W        W21437   4.201  12.743   5.104 -0.1719  0.0464 -0.2153
 4964W        W21438   7.603   4.794   0.759  0.1020 -0.3383 -0.0318
 4965W        W21439  16.264   3.321   0.026 -0.0451  0.1914 -0.1719
 4966W        W21440   0.326   7.912  10.211  0.0605 -0.0823 -0.1480
 4967W        W21441  17.453   7.335  13.438  0.0558 -0.1794  0.0265
 4968W        W21442   6.398  18.495  10.863 -0.0095  0.0178  0.1121
 4969W        W21443   3.171   3.173   2.703  0.0801 -0.3245  0.0265
 4970W        W21444   3.027   9.613   0.569  0.4656  0.4276 -0.1586
 4971W        W21445   0.290   5.980   1.779 -0.0396 -0.0001 -0.0462
 4972W        W21446   3.179  15.839  11.786  0.0900  0.2116  0.0750
 4973W        W21447  10.334   3.505   0.294 -0.1225  0.1701  0.3998
 4974W        W21448  15.645   2.620  13.801  0.0063 -0.1127  0.1252
 4975W        W21449  18.744   1.891  10.950  0.1841 -0.0513 -0.1551
 4976W        W21450  16.897   7.254   2.178 -0.3810  0.1767 -0.2453
 4977W        W21451  18.818  16.750  14.270  0.4732 -0.1695  0.2660
 4978W        W21452  13.801   3.131   3.674 -0.0328 -0.0943 -0.0694
 4979W        W21453  17.488   3.663  13.813  0.1459  0.3685 -0.1101
 4980W        W21454   7.998  13.632   1.998 -0.1002 -0.0745 -0.0859
 4981W        W21455   9.447  12.638   1.732  0.1562  0.1383 -0.1678
 4982W        W21456   1.787   5.846  12.827  0.1118  0.1474  0.1688
 4983W        W21457  11.279   3.009  14.900  0.0095 -0.0050 -0.0264
 4984W        W21458  10.891   2.424  15.003  0.2127 -0.3209  0.1731
 4985W        W21459   1.785   3.053  11.817  0.0893  0.1360  0.1783
 4986W        W21460  13.853  16.134   1.257 -0.0638  0.1089  0.0623
 4987W        W21461   5.664  11.522  14.944 -0.3047 -0.2380 -0.1915
 4988W        W21462   7.983   2.423  11.589  0.0806  0.2071 -0.1750
 4989W        W21463   0.889  10.281  14.391 -0.2799  0.2614 -0.0724
 4990W        W21464  12.268  15.949  10.320 -0.2060  0.1544 -0.0130
 4991W        W21465  12.949   1.768  10.754 -0.0866 -0.0516  0.1179
 4992W        W21466  10.862   8.997   4.455  0.3348 -0.1827  0.1268
 4993W        W21467  10.410  13.919  10.988 -0.0805 -0.1035  0.2423
 4994W        W21468  13.944  14.116   0.115 -0.0991  0.3583  0.1466
 4995W        W21469  13.760   4.721   2.474  0.1318 -0.0080 -0.2512
 4996W        W21470  17.174  14.527   0.258  0.3139 -0.0150  0.0060
 4997W        W21471  16.869  12.363   2.474  0.1079  0.1364  0.1153
 4998W        W21472   3.398   1.758  13.209  0.0749  0.1429 -0.0537
 4999W        W21473   3.371  10.131   4.509  0.3072 -0.0390  0.0419
 5000W        W21474  19.095   0.159  12.658 -0.1491 -0.2328  0.0762
 5001W        W21475  15.041  11.907   2.391  0.2833 -0.0868  0.3143
 5002W        W21476   5.269   1.748   4.796  0.0005  0.2171  0.0183
 5003W        W21477   7.138   2.134  12.089  0.2451 -0.0563  0.2788
 5004W        W21478   2.080  12.140   3.885  0.1043  0.0566  0.1278
 5005W        W21479   5.436  10.430  15.043 -0.4082  0.2252  0.3739
 5006W        W21480  12.229   6.617  12.858  0.0554  0.1869  0.1070
 5007W        W21481   5.025   8.428   2.411 -0.1907 -0.2335  0.1953
 5008W        W21482   4.820   7.329   3.340 -0.0434  0.0404 -0.3380
 5009W        W21483  11.223   5.481   0.823  0.0616 -0.1004  0.0050
 5010W        W21484   8.330   5.945  10.221 -0.0807 -0.1766 -0.1017
 5011W        W21485  14.119   5.240   1.909 -0.0053 -0.1512  0.0127
 5012W        W21486   2.215  19.038  13.356 -0.1100 -0.3722  0.2574
 5013W        W21487  17.155  12.848  13.364  0.0446  0.0040  0.4009
 5014W        W21488   9.496   7.101   5.821 -0.2947 -0.0900  0.0855
 5015W        W21489   7.685   6.776  14.889  0.2071 -0.1357  0.1833
 5016W        W21490   8.066  14.635   3.580  0.1435  0.0556 -0.0400
 5017W        W21491   7.608  10.441  12.918 -0.0056  0.4562 -0.1510
 5018W        W21492  15.782  11.164   5.135  0.0390  0.1248 -0.2710
 5019W        W21493   7.439  18.810   1.833 -0.2832 -0.1711 -0.0933
 5020W        W21494   4.893  15.562   0.206 -0.2281 -0.1926  0.1991
 5021W        W21495   1.788   7.040   0.200  0.2901  0.1700 -0.3079
 5022W        W21496   2.713  15.288   1.819 -0.1594 -0.1127  0.0603
 5023W        W21497   5.100   0.290  12.821  0.0650  0.1193 -0.0404
 5024W        W21498  14.874  10.896   3.432  0.4694  0.0500 -0.1610
 5025W        W21499  17.584  13.472   3.999 -0.1071 -0.0337 -0.1368
 5026W        W21500   1.009   4.151  10.762  0.1982  0.1026 -0.2430
 5027W        W21501   3.513  14.102   4.748 -0.0876 -0.3863  0.0113
 5028W        W21502   1.693  14.101   1.695  0.0305 -0.1897 -0.0227
 5029W        W21503   9.217  17.272  11.447  0.0686 -0.1060 -0.0774
 5030W        W21504   5.283  10.880  14.898 -0.3680 -0.0117 -0.1813
 5031W        W21505   1.055   0.124   4.454  0.5025 -0.2692  0.0519
 5032W        W21506   5.746   4.724  13.493  0.0165  0.5232  0.4154
 5033W        W21507   3.286  13.117  13.076  0.2043  0.0686  0.0092
 5034W        W21508   9.863  13.440   3.115 -0.1617 -0.0283 -0.1242
 5035W        W21509   2.710   5.085   1.841 -0.2888 -0.2699  0.0648
 5036W        W21510  14.578   7.778   0.707 -0.1499 -0.0063 -0.1530
 5037W        W21511  16.759   4.409   2.961 -0.1109  0.0187  0.1242
 5038W        W21512  14.453   7.402  12.396 -0.0068 -0.1225 -0.0539
 5039W        W21513  12.094   6.125   1.549 -0.0955 -0.1986 -0.0888
 5040W        W21514   6.982  16.495   1.140 -0.3510  0.0572 -0.4824
 5041W        W21515  15.509  10.896   1.628 -0.0057 -0.2220 -0.0361
 5042W        W21516   6.270  17.748  13.594  0.2790  0.0038 -0.0050
 5043W        W21517   3.309  15.010  13.329 -0.0613  0.1090  0.1799
 5044W        W21518   5.395  18.747  13.434  0.0028 -0.1296  0.0360
 5045W        W21519  16.139  16.953  15.138  0.4529  0.2206  0.0771
 5046W        W21520   8.417   4.426  12.785 -0.0384  0.0457  0.1543
 5047W        W21521   9.228   3.669   4.330 -0.0650  0.1179 -0.0575
 5048W        W21522  16.740   8.424   0.949 -0.0171  0.1900 -0.1034
 5049W        W21523  17.006  10.211   4.600 -0.0235 -0.0281 -0.1467
 5050W        W21524   7.823  16.585  12.025 -0.0115 -0.3422  0.0291
 5051W        W21525   5.492  18.388   5.112  0.2800 -0.2927 -0.2381
 5052W        W21526   5.503   4.046  14.901  0.1760 -0.2689  0.1850
 5053W        W21527  17.823  13.173   1.259 -0.0470  0.0999  0.0173
 5054W        W21528   2.904   5.636  13.136  0.0935 -0.1132  0.2324
 5055W        W21529   6.375  16.952  11.990 -0.0240  0.2095 -0.2590
 5056W        W21530   2.519  11.952  13.811 -0.0526 -0.2545 -0.2485
 5057W        W21531   7.230  14.180  13.995  0.2233 -0.1385  0.0933
 5058W        W21532  13.351   2.805   3.585  0.0646  0.0034  0.2739
 5059W        W21533   2.852  11.791   2.601 -0.0468  0.1135 -0.2093
 5060W        W21534  16.981   2.996  11.639 -0.0769 -0.1164 -0.2917
 5061W        W21535   5.032  14.965   0.212 -0.1800  0.0357 -0.4279
 5062W        W21536  13.788   8.910   9.947 -0.1746  0.1949 -0.0447
 5063W        W21537  12.570   7.697  10.809  0.1623 -0.0381 -0.3938
 5064W        W21538   0.545  18.442  14.226 -0.3318  0.0755  0.2769
 5065W        W21539  16.427  16.560  14.982 -0.0542 -0.1890  0.2388
 5066W        W21540   5.891  17.835   4.249  0.1581  0.0429 -0.2146
 5067W        W21541   6.009   9.673  11.303  0.1483 -0.0932  0.0880
 5068W        W21542  14.706  13.012  14.106  0.1648 -0.0930 -0.4074
 5069W        W21543   1.416   7.579   1.119 -0.0287 -0.0809 -0.2136
 5070W        W21544   7.096   6.893   1.757 -0.0241  0.2838 -0.1771
 5071W        W21545   6.429  13.505   1.901  0.3993 -0.2114 -0.1296
 5072W        W21546  15.519   1.811   3.680  0.2710  0.1811 -0.0521
 5073W        W21547  15.680   8.250   5.920 -0.2531 -0.1020 -0.0772
 5074W        W21548  12.682  11.957  15.013 -0.3383 -0.3068 -0.1266
 5075W        W21549  18.410   1.444   1.951  0.0976  0.1648 -0.2298
 5076W        W21550  14.299  14.940  11.883  0.0662  0.0977  0.1819
 5077W        W21551  16.258  17.893   5.765  0.0747 -0.2624  0.2721
 5078W        W21552   3.099   8.539  14.697  0.2087  0.2932  0.0601
 5079W        W21553  18.136  12.319   0.843 -0.0413 -0.3137  0.2345
 5080W        W21554  15.764  18.959   4.836 -0.0770 -0.1423 -0.0291
 5081W        W21555   1.732   6.821   2.175 -0.0027 -0.0532 -0.2434
 5082W        W21556  16.371   7.124  14.452 -0.0418 -0.0381 -0.0732
 5083W        W21557   8.001  17.340   3.926 -0.0380 -0.0639 -0.0550
 5084W        W21558   9.146   0.047  14.015  0.4073  0.1443 -0.1856
 5085W        W21559   8.176   5.961  10.713 -0.1829 -0.0541 -0.2204
 5086W        W21560  11.842   6.683  11.345  0.1421 -0.0574 -0.0509
 5087W        W21561  11.609  17.768   2.366 -0.0251  0.3338  0.1192
 5088W        W21562   1.904   3.735  13.796  0.2462  0.1864 -0.1695
 5089W        W21563   8.352  17.457  14.311  0.4224 -0.0179  0.1696
 5090W        W21564   6.879   9.299  15.001  0.0464  0.0909  0.0745
 5091W        W21565   6.052  15.153  14.087 -0.1856 -0.2125  0.1089
 5092W        W21566  18.382  17.353   5.835 -0.2705  0.1499 -0.2045
 5093W        W21567   7.549  14.065   2.668  0.2332  0.2028  0.0348
 5094W        W21568  17.615   7.356  10.112 -0.0298 -0.0605 -0.2636
 5095W        W21569  15.694  13.200  12.030  0.1144 -0.0604 -0.0815
 5096W        W21570   4.120   7.234   3.955  0.1726  0.2656  0.0054
 5097W        W21571  14.443  13.951  12.108 -0.3319  0.0272 -0.1365
 5098W        W21572  11.646   3.276   4.268  0.0218  0.3334  0.0388
 5099W        W21573   0.245   8.618  13.713  0.0440  0.2382  0.1368
 5100W        W21574   5.770  17.688  11.005  0.0337 -0.1455  0.6353
 5101W        W21575   3.669   8.539  13.369 -0.3030 -0.0762 -0.2168
 5102W        W21576   7.889   5.007   2.996 -0.1538  0.1912 -0.2190
 5103W        W21577  14.916  16.116   3.279  0.1208 -0.2250  0.1510
 5104W        W21578   9.143  10.769   4.214 -0.2158 -0.5898  0.2196
 5105W        W21579  14.840  10.488  14.591  0.2591  0.3449  0.0152
 5106W        W21580  11.918  19.114   0.470  0.0849  0.0681 -0.0391
 5107W        W21581  16.962  13.508  10.807  0.1530 -0.3028  0.1570
 5108W        W21582   2.109   9.302  11.093 -0.0024  0.1607 -0.2563
 5109W        W21583   5.593  12.329  10.840  0.2981  0.1529 -0.1286
 5110W        W21584   1.246   5.846   3.908 -0.2436 -0.0650  0.0616
 5111W        W21585   5.119   6.716  12.915  0.1190 -0.2253  0.0795
 5112W        W21586  10.827   1.585   2.554 -0.2374  0.2449  0.3048
 5113W        W21587   7.584   2.953  13.791  0.2297  0.0900  0.3177
 5114W        W21588  15.111   5.053   1.569 -0.0519  0.3460  0.0729
 5115W        W21589   2.914   1.211  11.870  0.4174 -0.3258  0.0295
 5116W        W21590  10.375  10.596   4.147  0.5093 -0.1365 -0.1608
 5117W        W21591  11.577  17.613   2.936 -0.1196  0.1670 -0.1797
 5118W        W21592  10.165  18.639   0.611  0.0448 -0.2159  0.1024
 5119W        W21593   9.643  15.481   2.647 -0.0724 -0.1145 -0.1097
 5120W        W21594   4.139  18.834  14.094 -0.1824  0.0234 -0.0983
 5121W        W21595  10.119   6.389   0.930  0.0775  0.0565  0.1454
 5122W        W21596   8.666   3.408  15.090  0.0831 -0.2867  0.0026
 5123W        W21597  10.849   6.356  13.079  0.2539 -0.1288  0.1130
 5124W        W21598   6.736   2.243   2.772 -0.1340  0.0025 -0.1434
 5125W        W21599   8.664  18.753   1.322  0.2920  0.2244  0.0914
 5126W        W21600  11.395   9.058   1.804 -0.2108 -0.0220 -0.0031
 5127W        W21601  13.076  10.097   3.765 -0.2534 -0.1729  0.3346
 5128W        W21602   5.627   5.285  13.595 -0.1035 -0.1460 -0.1919
 5129W        W21603  17.785   3.456   2.412 -0.2062 -0.2995  0.2849
 5130W        W21604   3.932  12.347   9.952  0.0427 -0.2166  0.0958
 5131W        W21605  16.441   3.315   1.595  0.1063 -0.1386 -0.0102
 5132W        W21606   5.837   5.555  12.257 -0.3315  0.1873  0.0511
 5133W        W21607  12.917  13.492   3.256  0.0353  0.1082  0.2778
 5134W        W21608  18.786   5.854   0.639 -0.0322  0.1791  0.0768
 5135W        W21609   7.257   8.921  13.847 -0.0087  0.0364 -0.1317
 5136W        W21610  11.449   5.825   2.167  0.0894 -0.1275  0.1462
 5137W        W21611  15.442   8.541   1.099 -0.1226 -0.1275 -0.2564
 5138W        W21612   2.969   5.529   3.181  0.0201  0.0149  0.1548
 5139W        W21613   7.075   6.866   4.758 -0.0017 -0.0116 -0.0800
 5140W        W21614  18.920  17.407   0.962 -0.1129  0.0726  0.0814
 5141W        W21615   4.985   0.849   2.683  0.1459  0.0478 -0.1970
 5142W        W21616  17.919  16.701  14.116  0.0310 -0.0578 -0.2971
 5143W        W21617   8.790  13.868   5.888 -0.0640  0.1859  0.0296
 5144W        W21618   8.934   2.034  12.968 -0.1405 -0.1365  0.2816
 5145W        W21619   4.836   9.111   0.493  0.0193  0.0168  0.3218
 5146W        W21620   7.662  10.300   3.100 -0.0297  0.0651  0.2859
 5147W        W21621   2.827  17.107  10.863 -0.1645  0.1932  0.0793
 5148W        W21622   1.760   9.145   4.874  0.2268 -0.2990  0.1182
 5149W        W21623   4.839  18.797   1.123  0.2090 -0.0290 -0.0754
 5150W        W21624   9.013   1.910  10.134 -0.0507  0.0571  0.0170
 5151W        W21625  18.770  17.369  11.380 -0.0298 -0.1028 -0.2287
 5152W        W21626   2.992  11.298  13.951  0.1347 -0.1256  0.1701
 5153W        W21627  11.911   8.095   3.766 -0.1620 -0.0225 -0.0226
 5154W        W21628   8.374   3.864  12.962 -0.0577  0.2028 -0.3178
 5155W        W21629   4.733   5.489   3.746 -0.0298  0.0454 -0.0433
 5156W        W21630   3.531  10.893   0.706  0.0402  0.4594  0.0964
 5157W        W21631   6.121   2.562  13.915 -0.1622  0.2421  0.0607
 5158W        W21632  14.417   0.476   3.344  0.4508  0.0447 -0.3376
 5159W        W21633   1.300   6.132  13.672 -0.1814 -0.0341  0.0289
 5160W        W21634   3.362   5.079  13.977  0.1948 -0.1329 -0.2797
 5161W        W21635  11.637   5.792  13.949 -0.1062  0.3314 -0.3036
 5162W        W21636   5.015  18.413   0.151 -0.1615  0.0615 -0.1552
 5163W        W21637  12.870  13.767  13.001  0.1966 -0.3225 -0.1575
 5164W        W21638  10.480   7.108   1.403 -0.1449  0.2100  0.1100
 5165W        W21639  12.352   8.353  12.648 -0.0536 -0.3967  0.0698
 5166W        W21640  10.701  10.369   4.901  0.0776 -0.0974 -0.1404
 5167W        W21641   0.892   9.044  10.671 -0.0528 -0.2409 -0.1957
 5168W        W21642  12.731   8.372  13.586  0.2984 -0.2821  0.0742
 5169W        W21643  17.508   3.430   3.427  0.0186  0.0487 -0.1801
 5170W        W21644   6.479  16.158   0.561  0.0233 -0.1029 -0.0405
 5171W        W21645   1.764   4.809   0.621  0.0012 -0.1712 -0.0854
 5172W        W21646  11.290   3.102  12.068 -0.1630 -0.2177 -0.0523
 5173W        W21647  17.299  13.388   2.556 -0.1505  0.0070 -0.2609
 5174W        W21648  18.977   9.084  10.475  0.0343  0.3082 -0.2398
 5175W        W21649   0.813   1.239   2.631 -0.0465  0.4116 -0.3773
 5176W        W21650   7.974   4.295   2.796 -0.3186 -0.0476  0.1496
 5177W        W21651  15.287  16.429   0.884  0.1204 -0.1441  0.0795
 5178W        W21652   0.324  13.832   0.860 -0.1971  0.0212  0.1284
 5179W        W21653   6.857   6.042   2.160  0.0248  0.0619  0.1559
 5180W        W21654  15.676   7.740  12.366  0.1268  0.0810 -0.4093
 5181W        W21655   5.570   3.351   4.290  0.2261  0.0654 -0.2331
 5182W        W21656   0.684   6.611  14.303  0.0088 -0.1130 -0.2868
 5183W        W21657   3.489  16.769  12.908  0.0914  0.2494 -0.0522
 5184W        W21658   3.844   9.947  12.974  0.0860  0.0997  0.0062
 5185W        W21659   7.730   1.205   4.379 -0.1055 -0.0127  0.0425
 5186W        W21660  15.892   2.619   4.263  0.0585  0.0962 -0.0156
 5187W        W21661   2.319   9.911   2.477 -0.0658 -0.3807 -0.0815
 5188W        W21662   4.559   1.002   2.849  0.2838 -0.1286 -0.1855
 5189W        W21663  18.185   3.728   1.512 -0.2671 -0.0691  0.2129
 5190W        W21664   6.844   8.979   3.729 -0.0517 -0.3580 -0.3474
 5191W        W21665  10.810   8.304   4.976  0.0459 -0.1093  0.1697
 5192W        W21666   9.476   4.779   1.047  0.3765 -0.0553 -0.0599
 5193W        W21667  10.428   3.398  14.737  0.1600  0.2862  0.1320
 5194W        W21668   5.871  15.174  11.881 -0.0275 -0.3123 -0.1496
 5195W        W21669  19.160   8.671  12.851 -0.0016 -0.0877 -0.1894
 5196W        W21670   9.858   9.843   2.562 -0.2751  0.1284 -0.1355
 5197W        W21671   2.456   1.453   0.247 -0.1021 -0.1936  0.0055
 5198W        W21672   1.921  11.090  10.085 -0.0401  0.0881  0.0636
 5199W        W21673  16.183   0.909  13.765  0.0185  0.0079 -0.1027
 5200W        W21674  11.743  14.939   1.303  0.0403 -0.0548  0.0135
 5201W        W21675   7.697   6.610  12.579  0.0791 -0.3839  0.0890
 5202W        W21676  13.304   3.152   2.268 -0.0194 -0.3171 -0.0164
 5203W        W21677   4.888   3.474   4.943 -0.1844  0.4198 -0.1007
 5204W        W21678  12.777   7.957  13.885  0.1509  0.1866  0.3723
 5205W        W21679   4.569   5.146   4.767 -0.1421 -0.2441  0.1233
 5206W        W21680   0.272   4.131   1.355 -0.3396 -0.4274 -0.1086
 5207W        W21681  13.008   8.760  14.210  0.0223 -0.0213 -0.2402
 5208W        W21682   9.629  14.463  14.035 -0.0105 -0.3944  0.0488
 5209W        W21683  12.208   8.205   4.994 -0.0838  0.0524 -0.0460
 5210W        W21684  15.230   2.322   2.852  0.0462 -0.4430 -0.0772
 5211W        W21685  14.539  15.578   1.909 -0.1789 -0.0905 -0.0037
 5212W        W21686   6.762   3.342   4.210  0.1814 -0.1041 -0.2292
 5213W        W21687  13.375  14.274   0.073  0.2698  0.0113 -0.2671
 5214W        W21688   5.084   6.712  15.149  0.0947 -0.2714 -0.0038
 5215W        W21689  15.113  12.181  12.638 -0.1749 -0.1502  0.3334
 5216W        W21690  15.594   6.811  12.841 -0.3808  0.1555  0.1114
 5217W        W21691  11.548   6.271  13.850  0.0269 -0.1251 -0.0009
 5218W        W21692  15.050  10.160   2.873  0.0109 -0.0383 -0.1737
 5219W        W21693  15.344  18.044  15.025 -0.1120  0.5128  0.0951
 5220W        W21694  14.430  14.922  10.344  0.2559 -0.0717  0.0406
 5221W        W21695   8.126  14.042  13.609  0.0234 -0.5144 -0.0298
 5222W        W21696  13.967   3.890   1.147 -0.0627 -0.1823 -0.1451
 5223W        W21697  11.508   9.176   0.916  0.0215 -0.1572 -0.1492
 5224W        W21698   7.087  15.524   3.479 -0.1412  0.0023 -0.2727
 5225W        W21699   1.930   7.355  13.142 -0.1635  0.0553  0.1272
 5226W        W21700   8.146  12.548   5.191 -0.0491 -0.2843  0.0998
 5227W        W21701   8.639   5.208   2.590 -0.2757  0.2108 -0.0481
 5228W        W21702   4.502   9.011  14.864  0.1156  0.2112 -0.0375
 5229W        W21703   6.941  16.666  11.469  0.1249  0.4320 -0.2346
 5230W        W21704   8.256  13.435   1.030  0.3579  0.1423 -0.2043
 5231W        W21705  18.421  16.731   1.308 -0.1289  0.1928  0.0940
 5232W        W21706  17.373  10.918  14.275  0.2622  0.0898  0.1356
 5233W        W21707   9.648  16.873   3.665  0.1758 -0.1597  0.1154
 5234W        W21708   9.362   2.347  10.318  0.4140 -0.0051 -0.2712
 5235W        W21709   3.358  16.175   2.901 -0.0470  0.0466  0.0383
 5236W        W21710  13.254   3.543  10.452  0.1980  0.1895 -0.0774
 5237W        W21711  12.682   5.265   2.003 -0.1560  0.2066  0.1439
 5238W        W21712  14.539   0.838  13.851 -0.2075 -0.1813  0.1388
 5239W        W21713  16.390   6.203   1.573  0.4727 -0.0832  0.2293
 5240W        W21714   4.099   5.101   5.909 -0.2374 -0.0113  0.0748
 5241W        W21715   3.863   2.214  13.868 -0.2032  0.0141  0.0258
 5242W        W21716   4.991  14.393  14.704 -0.0063  0.1026  0.2378
 5243W        W21717   1.605  12.680  13.858  0.1102 -0.0503 -0.1485
 5244W        W21718  18.297   8.218   2.846  0.0004  0.0546  0.1438
 5245W        W21719  17.358  15.270  11.662 -0.0047  0.1476  0.2297
 5246W        W21720  10.243  16.650   0.579  0.1729 -0.0836 -0.1672
 5247W        W21721  14.906  18.566  11.559 -0.3872  0.1630  0.1525
 5248W        W21722  14.214   0.934   3.382  0.0579 -0.0261 -0.0446
 5249W        W21723   8.388  12.379   4.325 -0.4460 -0.0194 -0.0639
 5250W        W21724   7.176  15.767   3.036  0.2164 -0.2007 -0.0482
 5251W        W21725  17.655  17.138   2.571 -0.2459  0.0080  0.0932
 5252W        W21726  18.252   2.722  12.769  0.0025 -0.0051  0.0895
 5253W        W21727  12.498   4.045   2.762  0.2205  0.1280 -0.3889
 5254W        W21728   5.326  16.371  12.711  0.0011  0.0994  0.2168
 5255W        W21729   9.188  19.060   4.976 -0.2482 -0.0522 -0.0977
 5256W        W21730  14.943   7.129  13.611  0.1844  0.0069  0.0127
 5257W        W21731  15.603   5.676   9.842  0.0668 -0.0972  0.2718
 5258W        W21732  18.991   2.235  14.550 -0.1880 -0.1364 -0.2570
 5259W        W21733   3.841  13.282  12.217 -0.0442 -0.2386 -0.0160
 5260W        W21734  14.910   4.889   5.114 -0.2371 -0.0009  0.0422
 5261W        W21735   7.747   7.840   2.669  0.0339  0.1328  0.0007
 5262W        W21736  14.786   7.035   3.195 -0.0200 -0.2821 -0.3931
 5263W        W21737  18.087  11.559  14.192 -0.1752  0.4311  0.1918
 5264W        W21738   2.550   7.041  12.022 -0.1988  0.0161 -0.1304
 5265W        W21739   5.096  18.697  11.102  0.0961  0.0017 -0.0829
 5266W        W21740  15.465   3.738   0.566 -0.0561  0.1380 -0.0676
 5267W        W21741  12.177  12.274  11.850 -0.2662 -0.2904  0.1807
 5268W        W21742  16.907  17.189   2.844  0.1586 -0.2662 -0.1257
 5269W        W21743  17.890  16.173   5.692  0.2662 -0.0970  0.0062
 5270W        W21744  13.629   2.817   2.582  0.2578 -0.1444  0.0222
 5271W        W21745   9.049   9.727  11.854  0.1434 -0.1257  0.3501
 5272W        W21746   0.671   1.674  11.604 -0.2274 -0.1933  0.3089
 5273W        W21747   5.842   9.398  13.378  0.2305  0.0957 -0.1927
 5274W        W21748  15.377   0.603   1.850 -0.0253  0.1201 -0.0850
 5275W        W21749   5.880  14.681   0.815  0.1725  0.0415 -0.0453
 5276W        W21750  18.088   4.491   1.335 -0.4056 -0.0204  0.0583
 5277W        W21751  13.238   4.288   0.164  0.4721 -0.0978 -0.0800
 5278W        W21752   5.907  17.410   4.521  0.0231  0.2084  0.1213
 5279W        W21753  10.483  12.541   4.312 -0.2436 -0.4865  0.0274
 5280W        W21754  11.578  11.942   5.857  0.3608 -0.0082  0.2134
 5281W        W21755  18.949  12.357   4.728 -0.3172  0.5675  0.1573
 5282W        W21756  12.358   7.604   0.995  0.0772 -0.0049 -0.0205
 5283W        W21757   9.155   4.922   4.496 -0.1951  0.2009 -0.2186
 5284W        W21758  15.510  18.973  14.713  0.0798  0.0833 -0.2400
 5285W        W21759   9.410  14.257   5.305  0.0249 -0.1544  0.3149
 5286W        W21760   4.071  16.798  12.487 -0.1160 -0.1930  0.2787
 5287W        W21761   7.916   1.651  10.570  0.0784 -0.1936  0.0388
 5288W        W21762   6.353  10.298   1.561 -0.1181 -0.0019 -0.1881
 5289W        W21763   2.518   2.028  10.928 -0.2176 -0.0790  0.0257
 5290W        W21764  12.359  11.951   0.339  0.3130  0.2706  0.3807
 5291W        W21765   0.837  13.983   0.941  0.0476  0.4306 -0.1069
 5292W        W21766  13.254   3.898   4.546 -0.2356 -0.3033  0.1593
 5293W        W21767  14.347   8.192   1.481  0.2308 -0.2109 -0.1775
 5294W        W21768   3.519  16.609   4.187 -0.3050 -0.2299  0.1171
 5295W        W21769   0.910   2.314   4.872  0.2214 -0.1369 -0.0240
 5296W        W21770  17.140   6.780  14.920 -0.2143  0.0592 -0.1381
 5297W        W21771   7.166  11.197  12.599  0.0973 -0.1552  0.1717
 5298W        W21772   4.719  15.642  10.331 -0.1737 -0.0001  0.0016
 5299W        W21773  16.549  14.484   2.763  0.1097 -0.0444 -0.0234
 5300W        W21774   5.368   6.155  14.602 -0.1146 -0.0196  0.0000
 5301W        W21775  11.906   5.688   5.136 -0.2043  0.1558 -0.3067
 5302W        W21776   7.948   0.535  12.179 -0.3208  0.1019 -0.1842
 5303W        W21777   0.983   8.521  12.524 -0.1478 -0.1234 -0.1595
 5304W        W21778   0.277  10.026   3.496 -0.2461 -0.3008  0.1674
 5305W        W21779   1.935  14.379  12.162  0.0446 -0.3737  0.1966
 5306W        W21780   2.848   7.991  13.566 -0.2079 -0.2664  0.3241
 5307W        W21781   2.845   8.165  14.888 -0.2725  0.1883 -0.0947
 5308W        W21782   2.221  14.956   4.096 -0.3078  0.1807 -0.0801
 5309W        W21783   0.492   4.500   2.941 -0.0723  0.0066  0.1681
 5310W        W21784  16.700  13.428   0.200  0.0924 -0.0416  0.1594
 5311W        W21785  14.607   3.639   1.854 -0.0374  0.0808  0.3537
 5312W        W21786   4.855  18.017  13.212  0.0363 -0.1266 -0.1198
 5313W        W21787  16.013  17.705   4.735  0.2310 -0.0988 -0.1802
 5314W        W21788   8.972   1.525   0.875  0.1356 -0.0064  0.5034
 5315W        W21789   2.703   5.054   0.888  0.1476 -0.4909 -0.0122
 5316W        W21790  10.127  12.875  11.608 -0.2272 -0.2256 -0.2311
 5317W        W21791  13.250   9.642   4.056 -0.0873  0.1110  0.3828
 5318W        W21792  16.743  12.942   2.612  0.0099  0.2602  0.0962
 5319W        W21793   8.654  18.799   0.004  0.1943 -0.2123 -0.2372
 5320W        W21794   1.763   8.819  11.825  0.2005 -0.0279 -0.2904
 5321W        W21795  16.007   2.316  14.009  0.0254 -0.0028  0.3017
 5322W        W21796   4.858  10.320   2.555  0.0421 -0.1310  0.1267
 5323W        W21797  16.508   8.713  14.009 -0.1762 -0.4337  0.1650
 5324W        W21798  11.022   7.358  10.039  0.0282 -0.0378  0.1479
 5325W        W21799   2.411   4.691   1.827 -0.1153 -0.0999 -0.2109
 5326W        W21800   3.985  14.874  13.161  0.0452  0.0192 -0.0031
 5327W        W21801  12.406  15.498  11.193 -0.1386  0.1797  0.1440
 5328W        W21802  15.545   9.239  14.927 -0.0915  0.1099 -0.3231
 5329W        W21803   4.065   5.303  13.203 -0.0438  0.0499 -0.1683
 5330W        W21804  15.820   1.480   0.363 -0.0484  0.0867 -0.1151
 5331W        W21805   5.225  13.614   3.721 -0.2247 -0.4563  0.1448
 5332W        W21806  10.677   1.886   2.949 -0.2805  0.2688 -0.0749
 5333W        W21807   3.804   8.103  15.087  0.2212 -0.1522 -0.0519
 5334W        W21808   0.802   4.453  11.288 -0.0845  0.1684  0.0454
 5335W        W21809  10.736   9.341   2.740  0.1473 -0.2694  0.1310
 5336W        W21810  16.850  13.179  14.840  0.0156  0.3863  0.1457
 5337W        W21811   9.128   7.929   3.961 -0.0841 -0.0996  0.0231
 5338W        W21812  10.736   7.449   5.099  0.0927 -0.0358  0.1044
 5339W        W21813  17.738   6.235  12.412 -0.0293  0.1988 -0.0607
 5340W        W21814  19.101   7.647  10.687  0.1533 -0.1901  0.0290
 5341W        W21815  18.852   9.174   9.983 -0.1020 -0.1387 -0.2286
 5342W        W21816  14.601   8.693   1.630  0.2512 -0.0166 -0.1723
 5343W        W21817  15.571  12.453  11.002  0.0522 -0.1006 -0.0192
 5344W        W21818  17.757   8.516   4.208 -0.2492 -0.0912  0.0723
 5345W        W21819  16.618   4.464   3.738 -0.0834  0.1408  0.3176
 5346W        W21820   3.077   4.849   3.705  0.1236 -0.1376 -0.0950
 5347W        W21821  19.147   7.592  14.838  0.0335  0.1941  0.1679
 5348W        W21822  10.571  16.911  14.932  0.1514 -0.0658  0.0655
 5349W        W21823   9.506  17.737  14.012 -0.1183 -0.3304 -0.2885
 5350W        W21824  15.930  12.962  12.455 -0.0977 -0.1797 -0.2210
 5351W        W21825   1.885   0.533   2.165 -0.0026  0.0109  0.2010
 5352W        W21826   0.614  18.659   3.852  0.0598  0.0296 -0.0415
 5353W        W21827   1.491  12.805  14.646  0.2549 -0.0078  0.1053
 5354W        W21828  18.478   4.131   2.228  0.1975 -0.1548 -0.0835
 5355W        W21829   3.326   6.192   0.957  0.0186  0.2400 -0.0393
 5356W        W21830  10.369   3.672  12.675  0.0823 -0.0302 -0.0385
 5357W        W21831   9.641   0.476   5.511  0.1448 -0.1367 -0.0486
 5358W        W21832  13.344   5.552  14.512 -0.1310  0.1843  0.1421
 5359W        W21833   3.597   6.953   2.837 -0.0637  0.1117 -0.1571
 5360W        W21834   9.121  17.160   1.753 -0.2665 -0.3429 -0.2182
 5361W        W21835  18.652  15.534  10.774  0.2536 -0.0908 -0.1405
 5362W        W21836  13.216   2.855   4.451 -0.0554  0.1977  0.0983
 5363W        W21837  14.853   1.592   1.276 -0.2918  0.3611 -0.0464
 5364W        W21838  15.461  10.697   1.188  0.1336  0.1314  0.1550
 5365W        W21839  11.021   3.034  10.711 -0.2269  0.1595 -0.0447
 5366W        W21840  16.128   4.904  10.667  0.1499 -0.1736  0.0635
 5367W        W21841   6.373  18.785   4.841  0.0382 -0.0361  0.2239
 5368W        W21842  15.156  14.583   0.064  0.1736  0.2146  0.0695
 5369W        W21843  18.931  11.472   0.286 -0.3192  0.0209  0.3299
 5370W        W21844   9.269  15.545  12.544  0.2045 -0.4339  0.0251
 5371W        W21845  12.100   8.964   1.019  0.0785  0.4919 -0.0935
 5372W        W21846  15.340   8.275   4.721 -0.0682  0.1084 -0.3680
 5373W        W21847  18.557   5.161   5.313  0.4500  0.2209 -0.2313
 5374W        W21848  18.110   0.195  12.108 -0.1614  0.0367  0.1220
 5375W        W21849   9.949   2.035  11.319 -0.0847 -0.3260  0.2639
 5376W        W21850   3.227  13.374   0.446  0.0255 -0.0227 -0.1694
 5377W        W21851   7.026  15.964  14.268 -0.1316  0.2222 -0.0628
 5378W        W21852   2.981   8.397  12.858  0.1214 -0.1032  0.2039
 5379W        W21853   5.029  12.534  11.584  0.0543  0.0104 -0.0444
 5380W        W21854   8.568  18.010   3.940 -0.5389 -0.0357 -0.0206
 5381W        W21855   6.265  13.520  12.453 -0.1488  0.0652  0.0835
 5382W        W21856   0.781   8.564  11.654 -0.0219 -0.1901 -0.1185
 5383W        W21857  14.939   7.990  10.836 -0.2673  0.2124 -0.1980
 5384W        W21858   9.065  16.865   4.659  0.1734  0.1229 -0.1024
 5385W        W21859  13.776  14.433   5.032  0.0138 -0.1500 -0.0284
 5386W        W21860   5.317   7.482  13.868  0.0653 -0.0177  0.3269
 5387W        W21861  13.116   8.141   4.670  0.1365 -0.1022 -0.2476
 5388W        W21862   9.927  15.110   1.023 -0.3944  0.0633 -0.0232
 5389W        W21863   8.156  14.220   2.804  0.1174 -0.0569  0.0768
 5390W        W21864  11.346  13.667   2.373 -0.1460 -0.0123  0.0105
 5391W        W21865  12.904   7.310   1.785  0.1876 -0.0535 -0.1679
 5392W        W21866  14.409  11.670   1.103  0.2789 -0.3437  0.0156
 5393W        W21867   3.988  17.095  12.940 -0.1874 -0.1193  0.0617
 5394W        W21868   9.109  10.535   0.527  0.3255  0.0355  0.2746
 5395W        W21869   7.430   3.819  12.547  0.0599  0.3265  0.1870
 5396W        W21870   2.018  14.445  11.394 -0.1363  0.0588 -0.1970
 5397W        W21871   5.037   9.282   3.835 -0.0805  0.2813 -0.1955
 5398W        W21872  19.108   1.294   0.283 -0.0664  0.1922  0.1701
 5399W        W21873   3.549   1.369   5.572 -0.0775 -0.3170  0.0848
 5400W        W21874   9.093  16.218  13.332  0.1079  0.3340 -0.1269
 5401W        W21875  16.412  12.398   4.658  0.0366  0.0419 -0.0067
 5402W        W21876  12.205  14.254   0.477 -0.3309  0.0694 -0.0589
 5403W        W21877   8.796   2.365  13.325 -0.0237 -0.0402  0.0887
 5404W        W21878  11.212   4.624   0.758 -0.3763 -0.0828  0.1246
 5405W        W21879   2.311  10.365   9.893  0.3728 -0.1639  0.1670
 5406W        W21880  10.766  12.576  13.173  0.2960 -0.2070  0.2936
 5407W        W21881   8.577   0.680   5.422 -0.2323 -0.1797 -0.0734
 5408W        W21882  14.403  14.581  13.395 -0.2062 -0.1977  0.1489
 5409W        W21883   4.627   8.804  13.825  0.1161  0.0626  0.4378
 5410W        W21884   7.117  10.243  13.545 -0.2664 -0.0857  0.1115
 5411W        W21885  15.578   9.775  11.980 -0.0577  0.2236 -0.1730
 5412W        W21886  12.133   9.810   3.395  0.3086 -0.0948  0.0367
 5413W        W21887  17.045  10.409  11.718 -0.0162 -0.1770  0.0134
 5414W        W21888   1.766   4.550   1.806 -0.3967 -0.0143  0.0895
 5415W        W21889  15.920  13.098  12.970  0.0276  0.0430 -0.0697
 5416W        W21890  12.953  12.139  13.664 -0.0294 -0.1304  0.1009
 5417W        W21891  17.526   5.298  11.059 -0.1650  0.1489  0.0632
 5418W        W21892  11.969   4.174  11.452 -0.1991 -0.0855  0.0808
 5419W        W21893  13.859   4.400  12.065 -0.0390 -0.1396 -0.3313
 5420W        W21894  17.412   1.342  15.042  0.0920 -0.0089  0.0220
 5421W        W21895   8.212   3.069   2.756 -0.1989 -0.1008  0.1211
 5422W        W21896  17.601  13.751  14.569  0.0781 -0.0445 -0.1118
 5423W        W21897   0.754  13.453   0.673 -0.2205  0.0303 -0.0693
 5424W        W21898   7.085  14.165   1.736  0.0465  0.0295  0.1887
 5425W        W21899  17.263   9.557   2.964 -0.1720  0.0319 -0.1303
 5426W        W21900   5.915  15.451   2.478  0.0461 -0.2383 -0.0706
 5427W        W21901  10.677  15.319   4.262 -0.0424  0.1483  0.1438
 5428W        W21902   4.320  14.126  14.440 -0.2119  0.0635  0.1704
 5429W        W21903   4.068  18.021   1.877 -0.1227 -0.0138 -0.3113
 5430W        W21904   4.468   6.236  11.133 -0.1641  0.1274 -0.1277
 5431W        W21905  14.441   9.886  11.072  0.0913 -0.4019 -0.2446
 5432W        W21906   4.603   4.700   0.821 -0.1021 -0.1139 -0.1033
 5433W        W21907   1.494  16.337  10.490  0.0802  0.0618 -0.0645
 5434W        W21908  10.450  17.240  12.110  0.2727 -0.0122  0.1039
 5435W        W21909   1.436   2.021  13.159 -0.2164 -0.2030 -0.2859
 5436W        W21910  10.984  12.298   1.942 -0.3142  0.1428  0.0806
 5437W        W21911  16.967  12.031   2.907 -0.1726  0.1063 -0.0497
 5438W        W21912   4.997   1.686  12.263  0.0100 -0.0460 -0.3642
 5439W        W21913   4.689   0.763   0.980 -0.0954  0.5055  0.3290
 5440W        W21914  10.575  13.237  13.379  0.1499  0.2037  0.3167
 5441W        W21915   2.073   5.191  14.116 -0.0331 -0.3446  0.4253
 5442W        W21916  17.198   2.516   4.465 -0.3804  0.0773  0.1394
 5443W        W21917  14.465   7.662   4.922  0.2711 -0.0625 -0.3291
 5444W        W21918  17.546  11.429   0.214 -0.0060  0.0371  0.3044
 5445W        W21919   6.657  13.867  10.552  0.0003 -0.0180 -0.4080
 5446W        W21920  11.906   2.011   3.628 -0.0078 -0.1633  0.1207
 5447W        W21921   2.477   2.543  12.846  0.0374  0.2140 -0.0422
 5448W        W21922   9.222  16.921   1.237 -0.0461  0.0368  0.0345
 5449W        W21923   8.627  12.391  11.150 -0.2208  0.1711  0.2134
 5450W        W21924  16.126  13.355  14.281  0.2683 -0.0528  0.1461
 5451W        W21925   9.416  18.603  11.425  0.3344  0.1827 -0.2535
 5452W        W21926  16.594  16.014  15.063 -0.2631  0.1145  0.0215
 5453W        W21927  16.822   4.061  12.476 -0.3709  0.2001  0.0877
 5454W        W21928   2.263   4.152   3.217 -0.2915  0.0514  0.0871
 5455W        W21929   7.451   0.119   0.510 -0.5217 -0.0749  0.0440
 5456W        W21930   0.659   2.932   4.114 -0.0737  0.2745  0.2419
 5457W        W21931   7.148   1.195   2.716 -0.0510  0.3719  0.2069
 5458W        W21932   6.954   9.055   3.152 -0.0234 -0.0396 -0.1112
 5459W        W21933   7.735   3.014   2.884 -0.1667 -0.1706  0.0763
 5460W        W21934   1.651  14.614  13.770  0.0419 -0.0065  0.0971
 5461W        W21935   0.042   1.002  11.245 -0.0455 -0.0230  0.4110
 5462W        W21936   1.426   4.394  10.984 -0.0905  0.0522  0.2621
 5463W        W21937   9.084  15.674  13.036 -0.0128 -0.1582 -0.2504
 5464W        W21938  14.596   9.434   1.143 -0.1263  0.2132  0.3582
 5465W        W21939   5.611  12.724   2.847  0.0721 -0.1241  0.2104
 5466W        W21940  10.836  18.784  11.551  0.0831  0.2517  0.2549
 5467W        W21941   1.070   4.201  13.684  0.2683 -0.1905 -0.0571
 5468W        W21942   2.448   8.401   2.580 -0.1856  0.1840  0.0053
 5469W        W21943  18.203   3.424   4.261  0.3151  0.2162 -0.1511
 5470W        W21944  18.690   2.491   2.995  0.0583  0.0498  0.1053
 5471W        W21945   7.780  12.654   0.934  0.1958 -0.0729 -0.1451
 5472W        W21946  18.984   3.637   4.666  0.2671  0.0469 -0.1555
 5473W        W21947   5.052  13.199  12.860 -0.1207  0.4160 -0.0661
 5474W        W21948   2.258  14.150   1.051  0.0517  0.0430 -0.2442
 5475W        W21949   2.830   5.265   4.069  0.1411  0.0338  0.0197
 5476W        W21950   0.681  10.825   3.083  0.0269  0.1194 -0.1903
 5477W        W21951   2.913  14.490  10.199  0.3683  0.2815  0.0076
 5478W        W21952  18.631  17.723  11.783  0.2483  0.0013  0.1099
 5479W        W21953  12.347   3.936   4.630  0.0733 -0.2287 -0.0941
 5480W        W21954   1.759  13.117   0.753  0.0240  0.0820  0.0881
 5481W        W21955  13.289   5.423   9.628  0.6960 -0.2229 -0.0023
 5482W        W21956  18.113  14.295   0.509  0.1897 -0.0397 -0.0258
 5483W        W21957   1.069   9.169   0.735  0.0511  0.2446 -0.0040
 5484W        W21958   7.781  14.308  13.118 -0.1255  0.1753 -0.0751
 5485W        W21959   3.935   1.909  14.417 -0.0796 -0.1405 -0.0170
 5486W        W21960   0.979   5.633  10.643 -0.2899  0.2025  0.3192
 5487W        W21961   1.190   5.707   5.753 -0.2308  0.2790  0.0034
 5488W        W21962  12.455  18.217   3.754  0.0791 -0.2175  0.1020
 5489W        W21963   5.182   2.331   3.520  0.0842 -0.2705 -0.1237
 5490W        W21964   2.458  10.619  13.909 -0.0139 -0.1576  0.2861
 5491W        W21965   6.783  17.527   0.127 -0.0443 -0.0671 -0.1501
 5492W        W21966   9.170   0.051  12.182  0.2519 -0.0561  0.1732
 5493W        W21967   5.835  10.230   1.127  0.1901 -0.0300 -0.1633
 5494W        W21968  11.871   5.771   1.889 -0.0125  0.1606 -0.2587
 5495W        W21969  10.941   1.348   3.862 -0.0022  0.2816  0.5001
 5496W        W21970  11.519  18.244   2.943 -0.0409  0.3669 -0.0520
 5497W        W21971   8.634   5.257  14.780 -0.1741  0.2020  0.4184
 5498W        W21972   6.107  18.349  11.324 -0.1827 -0.4683  0.0153
 5499W        W21973   4.651  10.484   3.659 -0.0667 -0.1638 -0.0130
 5500W        W21974  13.513  14.182   1.972 -0.0409  0.1161 -0.2230
 5501W        W21975   1.426   2.596   2.354 -0.0810 -0.1666  0.2678
 5502W        W21976  11.309  18.836  11.814 -0.1284  0.2113 -0.1650
 5503W        W21977  15.510  11.485   4.607  0.0348 -0.0152 -0.1304
 5504W        W21978  11.268   8.442  13.779 -0.1357 -0.0039  0.1360
 5505W        W21979   5.410  14.638   0.426 -0.1847 -0.0803  0.0038
 5506W        W21980   7.028   6.689  11.265 -0.0305 -0.0737 -0.2073
 5507W        W21981   9.950   1.801  12.769  0.1759  0.0592  0.1762
 5508W        W21982  14.188   2.542   2.927 -0.2041 -0.0249 -0.0495
 5509W        W21983  18.174   1.054  10.649 -0.0121  0.5517 -0.1235
 5510W        W21984   3.131   2.552  13.480  0.0659  0.0471  0.0975
 5511W        W21985  11.299   9.523   1.929  0.1450  0.0048  0.1811
 5512W        W21986  15.561  10.499   3.584 -0.0337 -0.0012  0.2180
 5513W        W21987  10.950  16.515   4.290 -0.0754  0.0802 -0.1474
 5514W        W21988  16.421   1.951   2.011  0.0006  0.2033 -0.2321
 5515W        W21989   3.492   7.705  10.930  0.3822  0.3257  0.2086
 5516W        W21990   5.074   1.997   4.393 -0.0193 -0.0000  0.2307
 5517W        W21991  14.616  18.072   3.017  0.2689 -0.4092  0.1582
 5518W        W21992  14.447  13.742  13.163  0.2540 -0.0480 -0.5256
 5519W        W21993   5.654   2.483   4.270 -0.1361  0.1385  0.3269
 5520W        W21994  15.103   8.657   3.587 -0.1288 -0.0088 -0.0147
 5521W        W21995   3.772   3.878   5.586 -0.2498  0.0344 -0.0167
 5522W        W21996   0.807   8.598  14.664  0.0793  0.0346  0.2209
 5523W        W21997   8.339   9.369   5.441  0.2183 -0.3471  0.0940
 5524W        W21998  13.890  15.785   5.057 -0.0274 -0.1447 -0.4699
 5525W        W21999  18.739  14.992   5.304 -0.1316 -0.0160  0.1654
 5526W        W22000  17.886   8.877  14.151  0.2923 -0.1834  0.0818
 5527W        W22001  11.401   4.194   0.567 -0.1139 -0.2507 -0.1011
 5528W        W22002   3.472   1.691  12.430 -0.0574  0.0425 -0.1165
 5529W        W22003  17.417  11.242  12.384  0.0668  0.1277  0.0758
 5530W        W22004   1.451   3.429  12.593 -0.0189 -0.1200  0.0221
 5531W        W22005  16.817   0.835  11.120 -0.4059 -0.4463  0.0193
 5532W        W22006   5.409  17.960   1.373  0.1538 -0.3324 -0.0911
 5533W        W22007   1.194  15.476   4.912  0.1639  0.0281 -0.0225
 5534W        W22008  16.876   8.916   0.168 -0.4762 -0.1022 -0.5570
 5535W        W22009   0.787   6.293   1.393 -0.0816 -0.1668 -0.4469
 5536W        W22010   3.260  17.358   5.167 -0.2389 -0.1136 -0.2085
 5537W        W22011  11.578   7.429   3.907 -0.1539 -0.0634  0.1712
 5538W        W22012   0.548  15.571  13.997 -0.2320 -0.3224  0.1233
 5539W        W22013  16.376   4.369  11.777 -0.4112 -0.1562 -0.2977
 5540W        W22014   3.436   9.216  15.109 -0.0516 -0.2603 -0.3484
 5541W        W22015  17.885   8.035   1.028 -0.3174 -0.3688  0.0267
 5542W        W22016  10.715   6.862   3.876 -0.3135  0.0635  0.0823
 5543W        W22017   9.496   6.847  12.651  0.3726  0.1031 -0.0795
 5544W        W22018   0.331  14.117  13.197 -0.1010 -0.0606 -0.0295
 5545W        W22019   8.075  17.928  13.306  0.2443 -0.2565  0.3617
 5546W        W22020  10.965   6.836  14.674  0.1834  0.1872  0.0743
 5547W        W22021   1.307   4.524   0.667 -0.1015  0.2229  0.1332
 5548W        W22022   7.828   1.638  12.385 -0.1800  0.2322 -0.3222
 5549W        W22023  14.322   6.609  11.897 -0.2154 -0.2746 -0.1445
 5550W        W22024   5.866  11.893   4.831  0.2261  0.0333  0.0349
 5551W        W22025  17.534  15.808   4.240 -0.4987 -0.2895  0.4721
 5552W        W22026  12.594  15.771  11.606 -0.0611  0.4302  0.0546
 5553W        W22027   9.111   5.199   3.636  0.0185  0.2446 -0.0969
 5554W        W22028   3.588  18.124   5.679 -0.0285 -0.0580  0.0184
 5555W        W22029   6.430   0.355   5.442  0.3218 -0.2140  0.2062
 5556W        W22030  14.665   9.816  11.498 -0.1674  0.1828 -0.0022
 5557W        W22031  17.387   2.894   1.588  0.0793  0.1971 -0.1861
 5558W        W22032   7.870  10.564  12.377 -0.1676 -0.2423 -0.3562
 5559W        W22033  12.703  14.310   0.323  0.3576  0.1386  0.3017
 5560W        W22034  16.443  12.889  13.578  0.0963 -0.3033  0.2027
 5561W        W22035   7.713   6.939   0.715 -0.1035  0.1864  0.4596
 5562W        W22036   0.782  17.633  14.360 -0.0589  0.1678 -0.2228
 5563W        W22037   8.515   7.675   9.806 -0.1833  0.0616 -0.0046
 5564W        W22038   8.869  11.493  15.044 -0.1934 -0.1031 -0.5764
 5565W        W22039  17.653   7.813  15.141  0.0763 -0.3779  0.1240
 5566W        W22040  11.036   0.195   2.313  0.0603  0.1286 -0.0499
 5567W        W22041   9.642   8.839   0.884  0.0594 -0.2520 -0.0845
 5568W        W22042   4.512  15.335   1.690  0.3340 -0.3043  0.0580
 5569W        W22043  17.249   1.127  12.492 -0.1123  0.0418 -0.1253
 5570W        W22044  18.203  18.842   4.849 -0.0241 -0.0251 -0.1591
 5571W        W22045   7.399   3.310  13.376  0.1674 -0.1847  0.0483
 5572W        W22046  14.105  11.693  14.731 -0.2463  0.0217  0.4324
 5573W        W22047  17.080   1.955  14.055 -0.1900 -0.0040 -0.0064
 5574W        W22048   6.426   9.608   3.998  0.0382 -0.0907  0.3345
 5575W        W22049   3.934  18.058   5.282 -0.0409 -0.2266 -0.2846
 5576W        W22050   6.191   2.323   3.575  0.3802 -0.2903  0.2743
 5577W        W22051   5.414   0.994   9.898  0.0652 -0.0576 -0.1188
 5578W        W22052   8.428  13.734   3.275 -0.1702 -0.3765 -0.3381
 5579W        W22053  12.519   6.314  10.906  0.0265 -0.0615 -0.1858
 5580W        W22054  11.396  10.530  14.830  0.1745  0.0608 -0.0033
 5581W        W22055  14.420  17.280  10.871  0.1077 -0.0642 -0.4634
 5582W        W22056   3.111   3.309   1.694  0.4456 -0.0488 -0.0948
 5583W        W22057   6.817  19.156  14.781  0.2703  0.0669  0.2105
 5584W        W22058   4.779  13.693   4.075  0.0052  0.3439 -0.1079
 5585W        W22059   0.999   1.085   3.532  0.1317  0.1857 -0.2016
 5586W        W22060   3.042   5.840   4.947  0.0706  0.0623  0.1871
 5587W        W22061  17.027   8.701  13.345  0.3926  0.0520  0.3000
 5588W        W22062   1.446   7.985  13.662  0.1974  0.0218  0.0965
 5589W        W22063  10.731   3.200  11.896  0.1078 -0.1528 -0.1838
 5590W        W22064  10.455   8.000   0.184  0.0730 -0.0414 -0.0246
 5591W        W22065  18.692  14.101   0.822 -0.0710  0.2037 -0.0079
 5592W        W22066  15.151   4.910   2.676 -0.0075  0.1546  0.0101
 5593W        W22067   5.718  10.085   0.198  0.1358 -0.2919 -0.0952
 5594W        W22068   7.635   8.577   3.253 -0.0616  0.2657 -0.0662
 5595W        W22069   9.375   1.015   4.852 -0.0638  0.2280 -0.4235
 5596W        W22070  15.319   2.797  11.476 -0.2583  0.0025  0.3517
 5597W        W22071   7.576  13.147   1.620 -0.1236 -0.2705  0.0289
 5598W        W22072   5.374   7.686  11.774 -0.1903 -0.0498  0.3640
 5599W        W22073  14.468  16.271   0.430 -0.0167 -0.0689 -0.0606
 5600W        W22074  13.975   6.832  14.178  0.1996 -0.2871 -0.1481
 5601W        W22075  18.606  10.067   1.075 -0.0737  0.1885 -0.0626
 5602W        W22076   3.753   3.150  14.000 -0.2028 -0.2591  0.1409
 5603W        W22077   3.979  17.826  12.528  0.0291 -0.0011  0.2368
 5604W        W22078  16.782   7.230  13.447  0.1571  0.3445  0.5899
 5605W        W22079   0.059   8.148  10.593  0.0023  0.0074 -0.4789
 5606W        W22080   8.644   3.032   2.933 -0.2787 -0.1326 -0.0654
 5607W        W22081   1.761  11.362  10.787  0.2635  0.2907 -0.1327
 5608W        W22082  16.457  17.109  10.796  0.0152 -0.0378 -0.0082
 5609W        W22083   3.222  15.090   4.223  0.0473  0.1369  0.0218
 5610W        W22084   6.581  15.758   0.830 -0.3530  0.0665  0.1144
 5611W        W22085  16.033  10.672  13.147  0.2064 -0.1125  0.0819
 5612W        W22086   8.736  18.815  11.915 -0.1903  0.1302  0.1975
 5613W        W22087  17.817  12.967  14.609 -0.0831  0.3202  0.0542
 5614W        W22088   5.807   4.636   2.217  0.2484  0.1820  0.0672
 5615W        W22089   0.886   0.544  13.722 -0.3218 -0.0933  0.1924
 5616W        W22090   5.095  10.651  13.211 -0.1523  0.0186 -0.1459
 5617W        W22091   2.977   4.727   2.656 -0.4501 -0.0900 -0.3919
 5618W        W22092   3.765  14.976  14.127  0.0968 -0.1447  0.2180
 5619W        W22093   2.230   4.201   2.593 -0.2216 -0.1720 -0.0255
 5620W        W22094   4.247   2.418  12.121 -0.1339 -0.1991  0.0003
 5621W        W22095  18.294   9.346   1.622  0.1955 -0.1330  0.2461
 5622W        W22096  17.568  16.615   2.885 -0.0676  0.1255  0.0955
 5623W        W22097  10.172   8.683   3.813  0.2541  0.0806  0.0281
 5624W        W22098   7.669   6.963  12.160  0.3419 -0.1817  0.1911
 5625W        W22099   8.709   9.712  13.378 -0.1444  0.1319 -0.4636
 5626W        W22100  17.446  11.826   3.744  0.2260  0.2524  0.1041
 5627W        W22101  11.064   9.364  14.170 -0.3268  0.2321  0.1306
 5628W        W22102   1.407   4.321   1.458  0.0664  0.1787 -0.0150
 5629W        W22103   9.950   6.201  14.106  0.3881 -0.2578 -0.0586
 5630W        W22104  14.447   3.918   5.078  0.1942 -0.3124 -0.3072
 5631W        W22105  11.732   6.816   4.440  0.1776  0.0021  0.3926
 5632W        W22106   3.037   6.048   3.318  0.2936  0.1843  0.2963
 5633W        W22107   2.823   8.768  13.730  0.4772  0.0202  0.3012
 5634W        W22108   8.954   0.433  10.918 -0.2047 -0.2012  0.2294
 5635W        W22109   2.273  18.148  12.896 -0.1640  0.2263 -0.2322
 5636W        W22110   9.423   9.958   3.256  0.0081 -0.1787  0.2151
 5637W        W22111   7.459  15.372  14.889  0.2006 -0.0176  0.4393
 5638W        W22112  15.523   4.287   0.386 -0.0499 -0.1094  0.0777
 5639W        W22113  18.208   8.773   3.425 -0.1003 -0.0415  0.1244
 5640W        W22114   8.929  16.863  11.202 -0.1546 -0.0083 -0.0710
 5641W        W22115  14.301   7.473  10.520 -0.0420 -0.2059 -0.0846
 5642W        W22116   8.927  18.585  11.331  0.2115  0.3301  0.2336
 5643W        W22117  12.750   9.309  14.698 -0.2012  0.0178  0.2930
 5644W        W22118   5.588   5.881  12.700  0.1402 -0.3117 -0.0882
 5645W        W22119   4.571   4.834   0.236  0.2650  0.1355 -0.4129
 5646W        W22120  16.727   3.384   4.876 -0.1409  0.0262 -0.2441
 5647W        W22121  10.941   3.637  14.370 -0.2417 -0.0048 -0.0019
 5648W        W22122  15.215  16.999   4.045  0.3336 -0.1782  0.0906
 5649W        W22123   4.815   0.522  14.755  0.1719 -0.0403  0.3583
 5650W        W22124   7.735   5.437   2.817  0.0066  0.0398 -0.1019
 5651W        W22125   3.114   3.702   1.304  0.2431 -0.1034 -0.0324
 5652W        W22126  14.775   5.941   2.677  0.1630  0.0134  0.3783
 5653W        W22127  18.198  14.589  13.912  0.0467  0.0207 -0.0393
 5654W        W22128   1.776   6.913  12.912 -0.1770 -0.0128  0.2557
 5655W        W22129  13.207   7.309  15.063  0.0672 -0.1860  0.0854
 5656W        W22130  18.907  18.148   1.589 -0.0467 -0.1982 -0.0383
 5657W        W22131  10.463   9.987  13.228 -0.2073  0.1009  0.0372
 5658W        W22132  14.024   7.272  11.583  0.1893  0.1025  0.1416
 5659W        W22133   6.183   3.198  12.491 -0.0213  0.1249 -0.3916
 5660W        W22134   8.897  15.289   5.409 -0.2270 -0.2074 -0.0256
 5661W        W22135   6.013  16.473   3.962  0.0544  0.2910  0.2251
 5662W        W22136   9.175   9.468   3.268 -0.0124  0.3200 -0.1994
 5663W        W22137   2.274  16.996   5.013  0.0159  0.1955  0.0387
 5664W        W22138  13.017  15.672  10.956 -0.0788  0.0071  0.0544
 5665W        W22139   6.669  13.135  11.066  0.1674 -0.1493 -0.2159
 5666W        W22140   1.970   9.524  13.246 -0.0477  0.0346 -0.1742
 5667W        W22141  16.384  18.067  10.340  0.0946 -0.0814  0.1090
 5668W        W22142   8.265   5.135   3.549  0.0286 -0.5050  0.2683
 5669W        W22143  13.145  18.667  11.942  0.2403  0.5362  0.0187
 5670W        W22144  13.465   5.003  14.814 -0.0100  0.1299 -0.0857
 5671W        W22145  15.983  12.982   2.321  0.2662  0.1295  0.1707
 5672W        W22146   6.075  16.057  11.746  0.1331  0.1631  0.0430
 5673W        W22147  11.693   0.431   1.573 -0.3204  0.2412 -0.1857
 5674W        W22148  15.754   9.014  12.293  0.0040 -0.1633  0.1420
 5675W        W22149   9.235   9.766   3.814 -0.0478 -0.2081  0.1642
 5676W        W22150   0.921  16.114   0.532 -0.1686 -0.1097  0.0093
 5677W        W22151  18.697  11.342  10.936 -0.1244  0.1170 -0.0656
 5678W        W22152  12.924  10.759  14.413 -0.0271 -0.0880  0.1854
 5679W        W22153  12.246   5.001  11.301 -0.1706 -0.1255 -0.2060
 5680W        W22154  16.606  17.257   0.614  0.2338 -0.0163  0.0872
 5681W        W22155  10.466   3.915   0.659  0.0674  0.0256 -0.1080
 5682W        W22156  16.526  15.072  11.372  0.1444 -0.0294  0.2968
 5683W        W22157   2.288  17.838   4.750 -0.3318 -0.0356 -0.2970
 5684W        W22158  11.934  15.498  13.514 -0.1394  0.1773 -0.2467
 5685W        W22159  18.581   5.601   1.040  0.2308 -0.2808 -0.3186
 5686W        W22160   0.133   5.728  14.395  0.0682  0.1432 -0.1226
 5687W        W22161   7.648   4.884  13.040 -0.3723 -0.0033 -0.2613
 5688W        W22162  12.841   0.196   5.044 -0.0254  0.0892  0.0171
 5689W        W22163   0.689   2.481  13.088 -0.0003 -0.0103 -0.2426
 5690W        W22164  17.485  19.119   4.993  0.0742  0.0271  0.0080
 5691W        W22165  17.701  13.538   4.894  0.0825 -0.0530 -0.1386
 5692W        W22166   0.051   1.482   1.456 -0.1109  0.2850 -0.0088
 5693W        W22167   4.165   9.218  14.445 -0.2384 -0.0262  0.0126
 5694W        W22168  12.866   9.649  11.832 -0.0820 -0.1495  0.0117
 5695W        W22169  18.694  12.122   3.033  0.2307 -0.1927  0.0146
 5696W        W22170   8.023   1.165  10.514 -0.1698 -0.1127 -0.0527
 5697W        W22171  15.399   9.033  13.184 -0.2736  0.3257 -0.1709
 5698W        W22172  17.624   3.484   9.684 -0.1776 -0.2899  0.3093
 5699W        W22173  13.720   6.149  14.986 -0.0364  0.2436 -0.1487
 5700W        W22174  16.906   8.825   4.228 -0.0200 -0.0722  0.2127
 5701W        W22175   2.254   7.203  12.798  0.2373  0.2243 -0.1196
 5702W        W22176   7.690  16.554  12.557  0.0074  0.1388 -0.0137
 5703W        W22177  11.605  15.253   2.750  0.1920  0.0000  0.2357
 5704W        W22178  16.200  10.272   2.027 -0.1025  0.1501 -0.0683
 5705W        W22179   1.965   7.945  11.325 -0.1053  0.1464  0.0141
 5706W        W22180   5.654   7.933  12.555  0.0055  0.0446  0.2746
 5707W        W22181   0.680   0.487  12.038 -0.2005  0.1409  0.0137
 5708W        W22182  12.142   1.454  12.135 -0.1893 -0.0053 -0.4334
 5709W        W22183  17.489  12.355  13.658 -0.0375 -0.1749 -0.0177
 5710W        W22184   4.844   8.769  13.267  0.1049 -0.1269  0.2408
 5711W        W22185   5.921  18.739  13.218  0.2255  0.0883  0.0751
 5712W        W22186   5.768  14.165  11.735 -0.0396 -0.1470  0.2708
 5713W        W22187   4.647  15.857   1.698 -0.3000 -0.2099  0.0970
 5714W        W22188  15.533  15.874   9.098 -0.2532 -0.1031  0.0849
 5715W        W22189   9.783   9.349  12.875  0.0147 -0.0302 -0.4669
 5716W        W22190   5.064  11.667   2.228  0.2533 -0.2503 -0.2890
 5717W        W22191   9.682  14.312   3.264  0.2510  0.4273 -0.0247
 5718W        W22192   4.394   9.607  11.744 -0.0710  0.1271  0.2299
 5719W        W22193  10.976   8.402  12.735  0.0165  0.1305 -0.0475
 5720W        W22194  14.475  14.293  11.623  0.1766  0.1046  0.2142
 5721W        W22195  15.896   3.516  12.736  0.1789 -0.0473 -0.2606
 5722W        W22196  13.295  12.290  14.844  0.4326  0.0809 -0.0231
 5723W        W22197  18.990  14.862   4.863  0.0583  0.0141  0.0401
 5724W        W22198  13.325   2.963   1.338 -0.0592  0.0753  0.0631
 5725W        W22199   4.819   3.097   0.345 -0.1615  0.1206 -0.0652
 5726W        W22200   7.362   6.890  11.597  0.0347  0.2820  0.1445
 5727W        W22201  12.662   4.715   2.932  0.0154  0.0146 -0.2687
 5728W        W22202   5.533  18.783   3.634  0.0704  0.0845 -0.0134
 5729W        W22203  14.976  17.413   2.943 -0.4493  0.3345  0.0681
 5730W        W22204   1.415  15.617  10.462  0.1575  0.1130  0.0880
 5731W        W22205   1.221  15.374   0.506 -0.1321 -0.0040  0.1654
 5732W        W22206   0.663  17.421   0.839 -0.0748 -0.1933 -0.1966
 5733W        W22207  12.449   9.921   2.483 -0.1531  0.0979  0.1691
 5734W        W22208   7.620   9.324  10.161  0.1054  0.0666 -0.3007
 5735W        W22209  12.301   8.558   2.493  0.0959 -0.3169 -0.1251
 5736W        W22210   7.897  13.360  11.776 -0.3539 -0.1255  0.0286
 5737W        W22211   0.846   8.620   3.213 -0.1693 -0.0556  0.0270
 5738W        W22212  17.642  17.621   3.082 -0.2434  0.0221 -0.0614
 5739W        W22213  14.860   6.241  13.976 -0.0920 -0.0315  0.1351
 5740W        W22214   6.941   1.784   0.655 -0.0880  0.1578 -0.1693
 5741W        W22215   7.957   5.724   0.568 -0.0245  0.0019 -0.1726
 5742W        W22216   0.454   5.797   0.109 -0.0808  0.1360 -0.1098
 5743W        W22217   1.716   9.531  12.404  0.1059 -0.1510  0.1542
 5744W        W22218  14.368   9.665   2.627 -0.2142  0.0704  0.0259
 5745W        W22219  18.890  14.445   3.844 -0.5408  0.0852  0.1097
 5746W        W22220  17.068   4.443  12.703  0.4725  0.1406  0.0675
 5747W        W22221  12.387   6.453   0.498 -0.1548  0.1014 -0.2262
 5748W        W22222  13.267   9.936  11.570 -0.3423  0.1242 -0.0320
 5749W        W22223  12.181   1.523   3.773  0.2795  0.1057  0.4539
 5750W        W22224  13.362   8.741  11.562  0.0069  0.0345 -0.0891
 5751W        W22225   9.943   6.596  14.716  0.0256  0.1093  0.0365
 5752W        W22226   8.078   4.359   4.088 -0.2187 -0.0113  0.0688
 5753W        W22227   3.373   0.156  11.498  0.3864  0.2970  0.2803
 5754W        W22228   1.823  13.588  11.961  0.1722 -0.1897  0.0441
 5755W        W22229  16.929  14.021   4.506 -0.1659  0.2549  0.0072
 5756W        W22230   2.432   6.039   0.032  0.0736  0.0752 -0.3152
 5757W        W22231  16.736   1.561  14.243 -0.1339 -0.1472 -0.2231
 5758W        W22232  16.269  18.205  11.656 -0.0295 -0.1253  0.4309
 5759W        W22233   7.655  13.828   3.771  0.2033  0.1957  0.1213
 5760W        W22234   7.077   1.844   4.909  0.2376 -0.0289  0.2473
 5761W        W22235   5.010  15.849   2.182 -0.1471  0.0150 -0.2529
 5762W        W22236  12.525  16.934  10.580 -0.3035 -0.1818  0.0123
 5763W        W22237  16.019  16.391   4.726 -0.1165  0.2986  0.0963
 5764W        W22238   2.260   2.913  13.433 -0.1553 -0.1270 -0.0393
 5765W        W22239  17.112  13.464  11.301  0.2023  0.1862  0.2597
 5766W        W22240  17.314   1.145   1.176  0.0454  0.0630  0.1762
 5767W        W22241  15.321   1.053   4.286 -0.5400  0.0256 -0.2642
 5768W        W22242  10.646   6.386   0.922  0.3752 -0.0985  0.0339
 5769W        W22243   2.032   6.155  12.032 -0.0314  0.2136 -0.1542
 5770W        W22244   9.108   4.464   3.383 -0.1282 -0.0221 -0.3048
 5771W        W22245  16.182  14.630   9.777  0.3749  0.0562  0.3076
 5772W        W22246   3.913   1.468  14.127  0.3087  0.0304  0.2265
 5773W        W22247   3.024   6.535  11.448  0.0082 -0.2211 -0.2217
 5774W        W22248   2.297  12.914  13.934  0.1884 -0.0952 -0.2631
 5775W        W22249   3.035   1.611   6.030  0.1027  0.0836  0.1729
 5776W        W22250   0.357   7.202   3.343  0.2355 -0.0851 -0.1487
 5777W        W22251  17.118   8.809   1.997 -0.1206 -0.0108 -0.0196
 5778W        W22252   3.693  13.906   3.452  0.2198  0.0100  0.0204
 5779W        W22253  14.888  18.479  14.246  0.2751 -0.0738 -0.0059
 5780W        W22254  10.575  10.735   2.779 -0.3311 -0.1579 -0.1539
 5781W        W22255   1.145   2.522   5.766 -0.2224 -0.2325  0.1029
 5782W        W22256  15.427  15.288  10.544 -0.0435  0.0636  0.0108
 5783W        W22257  14.806  16.374   0.029  0.1796 -0.1169  0.2477
 5784W        W22258   9.870  12.812   1.028  0.2092  0.0593  0.2760
 5785W        W22259   6.255  17.612  10.948 -0.3827 -0.2600 -0.4175
 5786W        W22260   7.653  12.801  12.489  0.2306  0.1975  0.2904
 5787W        W22261  17.807   0.464  12.881 -0.1110 -0.1815 -0.1613
 5788W        W22262  10.656  13.851   5.149  0.1669  0.2989 -0.0768
 5789W        W22263   9.813  17.649   2.911 -0.1871  0.0246  0.1883
 5790W        W22264   9.671   0.993  12.541  0.1499 -0.1585  0.0705
 5791W        W22265   1.053  16.672   4.064 -0.0874  0.0562 -0.4448
 5792W        W22266  11.786   4.270   1.495 -0.1441  0.2883 -0.5514
 5793W        W22267   6.352  17.350   3.714  0.0630  0.1640  0.1558
 5794W        W22268  17.406  14.982  12.906  0.1847 -0.2462  0.0305
 5795W        W22269  11.335   7.747   4.419 -0.1679  0.0656  0.1604
 5796W        W22270   6.741   7.996   2.446 -0.0160  0.2487 -0.1505
 5797W        W22271   3.025  18.972   2.083 -0.2169  0.3143  0.1518
 5798W        W22272   6.596   3.257  12.250 -0.3290 -0.1683  0.5074
 5799W        W22273  11.993   5.860  12.142  0.2512  0.0043 -0.3690
 5800W        W22274  10.658   5.608   4.596 -0.1342  0.1998 -0.3924
 5801W        W22275  12.301   7.968  14.052  0.2968  0.0303  0.1572
 5802W        W22276  13.126   7.135   0.800  0.0274  0.1070 -0.0290
 5803W        W22277   2.804  17.684   1.325  0.0637  0.0218 -0.4538
 5804W        W22278   6.621   8.995   2.307  0.2434  0.2227  0.2038
 5805W        W22279  18.258  15.294   2.535 -0.1049  0.3922 -0.2170
 5806W        W22280   7.586  14.558   4.397  0.0803  0.2006 -0.1319
 5807W        W22281   7.164  16.833  14.679  0.2793  0.1080 -0.0369
 5808W        W22282  15.708  10.400   2.211  0.0905 -0.3114  0.0003
 5809W        W22283   8.534   5.147  12.340  0.0197 -0.1501 -0.1925
 5810W        W22284  15.085   2.518  11.077  0.1449 -0.0321 -0.1606
 5811W        W22285  18.182   4.147   1.817 -0.1708 -0.0755  0.1824
 5812W        W22286   6.456   1.649   0.486  0.2592  0.1197  0.0095
 5813W        W22287   9.879  17.102   4.547 -0.1407  0.0303 -0.0520
 5814W        W22288   7.809  12.453  12.989  0.0529  0.0205  0.2947
 5815W        W22289  13.903  18.722   2.245  0.3435  0.0141 -0.0804
 5816W        W22290   9.591  14.277  12.024  0.0376 -0.0214  0.4869
 5817W        W22291  11.737  17.257  14.883 -0.0658 -0.3435 -0.0623
 5818W        W22292   5.872  18.820  14.777  0.3316  0.2568 -0.0528
 5819W        W22293  12.009   4.522   3.473 -0.1828 -0.2108 -0.0540
 5820W        W22294   1.774  18.365   5.300  0.0230  0.1072  0.0909
 5821W        W22295  14.978   2.505  10.198  0.0665 -0.0983 -0.0137
 5822W        W22296   6.844  10.855   3.516 -0.1190  0.1803 -0.2699
 5823W        W22297  17.733   2.483   1.977  0.1499  0.1321  0.0731
 5824W        W22298   4.112   9.340  13.592 -0.1509 -0.0020 -0.2624
 5825W        W22299  10.152   4.898  11.903  0.0562 -0.3141 -0.1422
 5826W        W22300   1.493   8.249   3.851 -0.1958 -0.0461  0.0604
 5827W        W22301   2.127   9.807  11.117  0.2049  0.1467  0.1311
 5828W        W22302  11.554   5.831   0.736  0.2721  0.3825 -0.1204
 5829W        W22303  11.179  17.964  13.784  0.2428  0.0728 -0.0092
 5830W        W22304   7.718   9.858   1.479  0.0556  0.1737  0.2929
 5831W        W22305   8.019  12.312   4.776  0.2315  0.0494  0.5623
 5832W        W22306   0.769  16.457   2.034 -0.0532 -0.3363  0.0590
 5833W        W22307   6.083  13.189  11.962 -0.2374  0.0009 -0.2392
 5834W        W22308  11.455   1.852   0.526 -0.0584 -0.0348  0.1469
 5835W        W22309  10.942  13.874  13.925 -0.2633  0.0923  0.1749
 5836W        W22310   1.315   0.990   2.714 -0.0624 -0.0667 -0.1682
 5837W        W22311  19.048   2.185   5.596 -0.1304 -0.1235 -0.2064
 5838W        W22312  13.133  10.925   2.147 -0.0219 -0.0163 -0.0756
 5839W        W22313  18.187  12.615   0.407 -0.3311 -0.0057  0.2606
 5840W        W22314  11.381   1.902  11.307  0.1869  0.1109 -0.4149
 5841W        W22315   2.886   6.168  12.157 -0.0718  0.0756 -0.6192
 5842W        W22316   3.883   5.053   1.870  0.0006 -0.1316 -0.0718
 5843W        W22317   1.495  18.073  14.319 -0.2524  0.2683 -0.1872
 5844W        W22318   7.211  17.713   3.546  0.0239 -0.1439 -0.1530
 5845W        W22319   0.336   1.116   2.732 -0.2117  0.0738 -0.0743
 5846W        W22320   2.464  14.553  12.954  0.1350 -0.1928 -0.0039
 5847W        W22321  16.711   3.116  13.462  0.1223 -0.2316  0.0622
 5848W        W22322   5.946   5.351   0.103 -0.1534 -0.3550  0.1763
 5849W        W22323   8.299   1.697   2.506 -0.0714  0.1106  0.2014
 5850W        W22324   6.176  15.348   4.420  0.1142 -0.0706  0.0635
 5851W        W22325   6.807  10.158   1.405  0.1740  0.4018 -0.1093
 5852W        W22326  14.536   5.351   2.178 -0.2519  0.0805  0.1032
 5853W        W22327   2.308   8.551   0.436  0.2805  0.1030  0.4649
 5854W        W22328  18.369  16.807  13.369 -0.4495  0.0781 -0.1855
 5855W        W22329  15.709  12.461   2.363 -0.2396 -0.1579  0.2087
 5856W        W22330   1.378   1.577  10.587 -0.0468 -0.1574  0.2598
 5857W        W22331   1.108   6.015  12.891  0.1660  0.1419  0.2829
 5858W        W22332  13.587   1.624   0.033  0.0169  0.2328 -0.1496
 5859W        W22333  14.752   1.218   5.234 -0.0062  0.1776 -0.0055
 5860W        W22334  15.702  13.270  10.919  0.1855 -0.3142  0.2501
 5861W        W22335   0.354   5.393   3.338 -0.1640  0.1179  0.2742
 5862W        W22336   2.657   4.313   1.939  0.2785  0.2387 -0.4354
 5863W        W22337  14.507  15.452   4.281  0.1663  0.3412  0.0590
 5864W        W22338  11.289  18.148  12.955 -0.0979  0.0112  0.2786
 5865W        W22339  15.766   5.272   0.202  0.1361  0.2537 -0.0521
 5866W        W22340  11.980  16.534  14.845 -0.2765  0.1289 -0.1228
 5867W        W22341  10.129   5.557  13.084 -0.1911 -0.0784  0.0090
 5868W        W22342  16.446  10.236  11.034 -0.0949 -0.4744  0.0967
 5869W        W22343   6.339   4.303  12.890  0.0388  0.0094 -0.1809
 5870W        W22344   2.399  18.207   4.328  0.4825  0.1286 -0.0040
 5871W        W22345  16.611   6.466   1.233  0.0944 -0.1374  0.3092
 5872W        W22346   0.368  13.507  10.556 -0.5417 -0.1718  0.1848
 5873W        W22347   5.554   3.121   0.832  0.0253 -0.0330 -0.0158
 5874W        W22348   8.111   3.308   3.167 -0.3579 -0.0152 -0.3007
 5875W        W22349   2.744   9.555   1.156  0.1067 -0.0696  0.2538
 5876W        W22350  18.052  17.483  12.578 -0.1233 -0.0176 -0.0365
 5877W        W22351  12.898  15.179  13.931  0.4790  0.1545 -0.1049
 5878W        W22352  13.101  10.331  14.976 -0.3494 -0.0670 -0.3063
 5879W        W22353   8.529  15.272  10.794 -0.2582 -0.2015 -0.4207
 5880W        W22354   7.868   4.507  10.694 -0.1665 -0.2321 -0.3827
 5881W        W22355   5.832   7.109   1.900 -0.0225  0.2261 -0.0162
 5882W        W22356  16.939  12.662  14.943  0.4571 -0.1444  0.1648
 5883W        W22357   0.912  10.191  13.419 -0.0984  0.1222 -0.0444
 5884W        W22358   1.364   5.345   1.313 -0.0557  0.1960 -0.1697
 5885W        W22359  19.027   3.440   3.753  0.0937 -0.0055  0.1268
 5886W        W22360   2.497   0.083   2.862 -0.1689  0.2113 -0.3696
 5887W        W22361   4.353  11.571   5.214  0.0581 -0.0185 -0.3590
 5888W        W22362  16.296  10.604   4.002  0.0852 -0.2583 -0.0654
 5889W        W22363  16.798  12.294   3.394 -0.3389  0.1053  0.2570
 5890W        W22364   5.393   4.106  14.396  0.2246  0.0503  0.2871
 5891W        W22365   1.424   7.444  11.097 -0.1410 -0.1676 -0.1194
 5892W        W22366   3.872   7.553   1.660 -0.1547  0.0785 -0.1670
 5893W        W22367   6.015  12.382  14.654 -0.0371 -0.0755  0.1728
 5894W        W22368   6.537   5.449   0.029  0.1325  0.4190 -0.0234
 5895W        W22369   5.252   7.394   1.274  0.0547  0.0373  0.2167
 5896W        W22370  14.779   0.968  13.380  0.2145 -0.0646  0.2128
 5897W        W22371   8.498  16.980  12.542  0.0451 -0.1992  0.1628
 5898W        W22372   0.558   9.575   3.455  0.2500  0.1616 -0.0058
 5899W        W22373  17.128   7.482  14.393 -0.1641 -0.1157  0.0716
 5900W        W22374  11.001  10.144  14.703  0.0662  0.0149  0.0669
 5901W        W22375  15.861  18.092   0.035 -0.0281  0.2535  0.0213
 5902W        W22376   8.152   0.713   2.025  0.2173 -0.2703  0.0387
 5903W        W22377   0.158   5.407  13.979 -0.1476 -0.1189 -0.3168
 5904W        W22378   1.312   9.992  10.089 -0.2935  0.1549 -0.1699
 5905W        W22379  13.977   6.112   0.360  0.2984 -0.1360 -0.0373
 5906W        W22380   7.506  11.831   0.534 -0.3435 -0.0623  0.1538
 5907W        W22381   9.374   8.459   0.598 -0.2181  0.3159 -0.0201
 5908W        W22382   0.968   0.192   3.987  0.2638 -0.2067  0.5499
 5909W        W22383   7.186   6.559  13.570  0.2801 -0.0714  0.3641
 5910W        W22384   1.026  11.407   3.105 -0.2788 -0.3314 -0.2180
 5911W        W22385   0.699   9.210   4.690  0.2854  0.1932  0.0655
 5912W        W22386  17.754  12.325   4.074 -0.5308  0.4531  0.5769
 5913W        W22387   1.452  13.525   4.394 -0.2467  0.1429  0.0157
 5914W        W22388  15.161   5.908  13.291  0.1790 -0.0200 -0.0674
 5915W        W22389   7.482  17.561  11.707  0.1561  0.4016  0.1032
 5916W        W22390  10.064  12.067  14.126  0.0203  0.3187  0.0565
 5917W        W22391   4.392  14.824   3.455 -0.1960 -0.0529 -0.0468
 5918W        W22392   0.363   5.823   4.024 -0.1152  0.2481 -0.0004
 5919W        W22393  15.038   9.191   0.447 -0.0010  0.0340  0.0232
 5920W        W22394   7.190  18.301   4.042 -0.0886  0.1085 -0.3028
 5921W        W22395   6.329  17.587   2.101  0.0347 -0.2295 -0.0209
 5922W        W22396   1.489  14.333   2.083  0.0331 -0.1252 -0.0147
 5923W        W22397   8.127   5.233  13.663 -0.2065 -0.2521 -0.0754
 5924W        W22398   8.010   0.144   3.287  0.0433 -0.0378 -0.2838
 5925W        W22399  12.214   1.244   1.451 -0.1870 -0.0437 -0.2158
 5926W        W22400   2.664   8.881   2.425  0.0820  0.0394  0.3735
 5927W        W22401  13.837  12.441  13.133 -0.0195 -0.0555 -0.2182
 5928W        W22402   4.422  18.627   4.248  0.0997  0.2493  0.0420
 5929W        W22403  10.975   4.298  12.724  0.2203  0.0609 -0.1392
 5930W        W22404   4.776   2.699  10.890  0.0472 -0.1125 -0.0133
 5931W        W22405  14.613  15.826  11.754 -0.0235 -0.1530  0.0824
 5932W        W22406  14.585  10.555   2.385  0.1565  0.1112  0.4934
 5933W        W22407  14.720  15.378  14.056 -0.0824 -0.1888  0.1326
 5934W        W22408   9.771   1.009  10.908 -0.0152 -0.1378  0.1283
 5935W        W22409  16.026   8.279  11.775  0.1345 -0.0616  0.0086
 5936W        W22410   8.968   5.121  13.118  0.0662  0.0437  0.0661
 5937W        W22411  10.624  11.251  10.536  0.2003  0.0910  0.1786
 5938W        W22412  15.657  11.604   1.718 -0.1527  0.1651 -0.1764
 5939W        W22413   4.212  11.307  13.073 -0.0875  0.1230 -0.2001
 5940W        W22414  17.416   9.116  14.134 -0.0914  0.0851 -0.2290
 5941W        W22415   6.419   6.321   0.973  0.1000  0.2102 -0.0548
 5942W        W22416  11.785   3.428   2.430  0.1372  0.2288  0.0202
 5943W        W22417   4.565   3.127   1.684 -0.0236  0.0478 -0.0411
 5944W        W22418  14.176   5.646  14.701  0.0313 -0.4158 -0.0497
 5945W        W22419  10.532  16.524   4.579 -0.0700  0.0290  0.2242
 5946W        W22420  14.787   6.614   5.773 -0.0460 -0.0710 -0.0596
 5947W        W22421   9.010  18.351  11.910 -0.0695 -0.1011 -0.0021
 5948W        W22422   9.747   5.361  14.231 -0.6750 -0.3478 -0.3787
 5949W        W22423  16.796  12.556  13.599 -0.0873 -0.3134 -0.1293
 5950W        W22424  11.986  17.770   3.773 -0.2801  0.0219 -0.1021
 5951W        W22425  16.917  13.159   2.175 -0.0033 -0.1294  0.0378
 5952W        W22426   8.959   9.150  12.654 -0.0280  0.0159  0.1572
 5953W        W22427   1.631  17.941  12.293  0.0331 -0.0091 -0.0985
 5954W        W22428   7.716   1.519  14.110  0.5142  0.3058  0.1359
 5955W        W22429  10.181  13.756  10.465  0.4081  0.1391 -0.0209
 5956W        W22430  12.216   6.888  14.085  0.1495 -0.1751 -0.4335
 5957W        W22431  18.229  17.484   5.002  0.0154  0.0026  0.0392
 5958W        W22432   3.563   7.604  11.787  0.1864 -0.1907  0.0420
 5959W        W22433  16.037  13.973   5.189  0.0497 -0.0188 -0.2942
 5960W        W22434   0.598   6.246   9.753 -0.0324 -0.2339 -0.0153
 5961W        W22435   1.857  14.171  13.614 -0.0156 -0.3144 -0.1570
 5962W        W22436  18.438  10.071   9.154 -0.1050 -0.1437 -0.0600
 5963W        W22437  18.122   1.864   1.227  0.0138 -0.1838 -0.0394
 5964W        W22438   8.666   8.635  14.934  0.0413 -0.1722 -0.0884
 5965W        W22439  17.803   4.564  10.015 -0.0687  0.0636 -0.2289
 5966W        W22440   3.087   7.223   3.736 -0.1649  0.1935  0.3056
 5967W        W22441   5.480  16.248  15.104 -0.0841  0.2242  0.1322
 5968W        W22442  16.591  18.908   2.452 -0.0198 -0.0031  0.0137
 5969W        W22443   7.830  10.497  10.939  0.2274 -0.1081 -0.1998
 5970W        W22444   7.311  15.034   0.837  0.3764  0.1859 -0.2369
 5971W        W22445   3.911  17.136  13.650 -0.0842 -0.2762  0.1186
 5972W        W22446   9.301  11.705  12.170 -0.0416 -0.2285 -0.3016
 5973W        W22447  16.573  13.792  13.063 -0.0293 -0.0341  0.0011
 5974W        W22448   3.525   0.432   1.936  0.0027 -0.1061 -0.3374
 5975W        W22449   9.371  10.008  10.480 -0.0691 -0.3872 -0.0604
 5976W        W22450  16.789  16.142   1.886  0.1780 -0.0485  0.1629
 5977W        W22451  16.196   1.986  13.651 -0.0183  0.1699 -0.5151
 5978W        W22452   4.606   9.331   0.067  0.0542  0.0756 -0.1332
 5979W        W22453  11.665   4.070  10.620  0.2379 -0.0843  0.2855
 5980W        W22454   2.897   6.686  13.422  0.1603 -0.0092 -0.1476
 5981W        W22455  17.468   0.747  11.786 -0.0290  0.1818 -0.1690
 5982W        W22456  16.376   9.543   1.417  0.0131 -0.2934 -0.0386
 5983W        W22457   0.611   8.169  12.477  0.0786 -0.2280  0.2212
 5984W        W22458  17.031   1.042  14.980 -0.1824 -0.1230 -0.3206
 5985W        W22459  16.669   1.186  10.713  0.0908  0.1444 -0.1669
 5986W        W22460   9.713   5.202   2.951 -0.1251  0.0624  0.0018
 5987W        W22461   4.883   4.466   0.059 -0.1032  0.0163  0.4026
 5988W        W22462  15.541   6.068  15.093 -0.0215  0.0601 -0.1407
 5989W        W22463   6.378  11.722  11.274 -0.0262 -0.0531  0.1619
 5990W        W22464   3.637   2.756  13.442  0.0893  0.4056 -0.0807
 5991W        W22465  16.531   4.123   0.390  0.2585 -0.4000 -0.2611
 5992W        W22466   2.468   4.844   2.815 -0.0591 -0.2149  0.0016
 5993W        W22467  16.789   4.272  14.056  0.0510  0.2199  0.0282
 5994W        W22468  10.219   0.702  12.881 -0.0530  0.1680  0.1577
 5995W        W22469   0.583   2.035   4.560 -0.0958 -0.4121  0.2121
 5996W        W22470   0.468   2.200   1.068 -0.1712  0.0220 -0.0628
 5997W        W22471   9.030   2.970   1.099  0.2154 -0.3773  0.2233
 5998W        W22472  18.951  15.722   3.365  0.2236 -0.3424  0.0608
 5999W        W22473  16.733   5.682  12.205 -0.1609 -0.2421  0.0274
 6000W        W22474  16.352   4.830  12.011  0.1424  0.0790  0.1159
 6001W        W22475  12.537  17.116  12.661 -0.2453  0.1606 -0.3265
 6002W        W22476  10.089  14.840  13.730  0.1286  0.2387 -0.2106
 6003W        W22477   3.467   5.268  11.881 -0.0932  0.2898 -0.0047
 6004W        W22478   3.573   2.527   2.463  0.0170 -0.1712  0.2501
 6005W        W22479  16.509  17.567  10.967 -0.4001  0.2339 -0.4065
 6006W        W22480   0.665   4.390   2.070 -0.1261  0.3823 -0.0410
 6007W        W22481  18.043   5.364  12.003  0.0182 -0.0267 -0.0059
 6008W        W22482  17.247  15.049   2.279 -0.2503 -0.2387  0.2579
 6009W        W22483  10.103  18.662  13.496 -0.1625 -0.0924  0.0220
 6010W        W22484   6.756   8.300   2.907  0.0853 -0.0357  0.2658
 6011W        W22485  16.724  12.443  11.135  0.1033  0.1448 -0.0681
 6012W        W22486  17.785   3.759   1.803  0.0835  0.2358  0.0443
 6013W        W22487  11.239   8.218   1.472  0.0977 -0.2650 -0.2295
 6014W        W22488   5.787   3.676   4.017  0.2127 -0.0714  0.0137
 6015W        W22489   1.702   0.953   5.531  0.1538 -0.2625  0.0413
 6016W        W22490  13.868  15.359   0.723  0.1650 -0.2728  0.0114
 6017W        W22491  16.652  12.414  14.172 -0.2883  0.0076 -0.0577
 6018W        W22492  10.206   2.008  12.130  0.2125  0.1369  0.1113
 6019W        W22493   9.813   1.284  11.663  0.0608 -0.0096 -0.2172
 6020W        W22494  13.904   8.602   2.217 -0.0452  0.0465  0.1076
 6021W        W22495   3.998  16.014  11.779  0.0950  0.1591  0.2780
 6022W        W22496  11.782  14.118   3.875  0.1004 -0.2981  0.1504
 6023W        W22497  13.011   1.377  10.461  0.3538 -0.0654  0.1798
 6024W        W22498  13.853  13.838  13.917  0.2676 -0.2785  0.0750
 6025W        W22499   9.421   7.025  11.210 -0.2321  0.2147  0.1138
 6026W        W22500   8.790  13.144   2.494 -0.1596 -0.3566  0.0159
 6027W        W22501  16.645  17.382   1.099 -0.1175  0.1928  0.0141
 6028W        W22502  16.286   8.980  12.200  0.0327 -0.4402  0.0016
 6029W        W22503   6.579  14.547  11.200  0.3668  0.0998  0.2371
 6030W        W22504   7.654   2.741   1.237  0.0265 -0.0619 -0.0765
 6031W        W22505   6.401   6.047   4.296 -0.0564 -0.0681 -0.1204
 6032W        W22506   2.421   6.297   1.458 -0.1896  0.1315 -0.1119
 6033W        W22507   5.354   6.673  14.654  0.2632  0.0566  0.2162
 6034W        W22508  15.504   1.996  11.092 -0.0265 -0.0680  0.0868
 6035W        W22509   9.943   4.327   0.368 -0.5893 -0.1260 -0.4147
 6036W        W22510  17.005  15.277   1.900 -0.2644 -0.0505  0.0419
 6037W        W22511   2.821  12.691  11.605 -0.1002 -0.1064 -0.1491
 6038W        W22512   1.280  13.861   0.582  0.1630  0.1972 -0.0811
 6039W        W22513  11.878  18.545   1.307  0.0562  0.7842  0.2016
 6040W        W22514   2.504   1.281   1.412 -0.0724 -0.0156 -0.4743
 6041W        W22515   3.400  11.232   2.103  0.0574 -0.1654  0.0970
 6042W        W22516   8.865   0.861  11.204  0.1048 -0.1127  0.0967
 6043W        W22517   2.373   9.490  15.124  0.1468 -0.1568  0.0644
 6044W        W22518   8.955   4.029   4.835 -0.3965 -0.1942  0.1595
 6045W        W22519   0.760   8.693   1.470  0.2144  0.0001  0.1067
 6046W        W22520   2.768  13.172  12.983  0.3228 -0.1668  0.0711
 6047W        W22521  10.872   3.906  10.293  0.1123 -0.2751  0.4672
 6048W        W22522   3.271  10.772   1.233  0.3362 -0.0758  0.0905
 6049W        W22523   1.715   1.131   3.199 -0.1605 -0.1376  0.1379
 6050W        W22524   5.980  14.096   1.078 -0.1892  0.1396 -0.1874
 6051W        W22525  15.534   9.310  11.870  0.2065 -0.0375 -0.0604
 6052W        W22526   0.832  12.536  13.926  0.2410  0.0090 -0.2286
 6053W        W22527  14.318   4.533   2.353  0.1950  0.1470  0.0758
 6054W        W22528   4.608   3.392   4.416 -0.0260 -0.1530  0.2468
 6055W        W22529  10.773   7.073  12.253  0.2438 -0.2049  0.0100
 6056W        W22530  17.752  16.217   3.125 -0.0238  0.2367  0.2107
 6057W        W22531  16.195   0.967   2.704  0.0796 -0.0523  0.1025
 6058W        W22532  19.112   0.420   1.306  0.4361  0.0515  0.0609
 6059W        W22533  10.840  18.606   3.874 -0.3040  0.2354 -0.0107
 6060W        W22534   9.270  10.487  10.440  0.1178 -0.0728 -0.0885
 6061W        W22535   1.154  14.576  14.115  0.1938  0.1088 -0.2811
 6062W        W22536  16.507   2.824   3.002  0.3428  0.2502  0.2801
 6063W        W22537  11.429   5.429   3.423 -0.0425 -0.2411  0.2743
 6064W        W22538   9.081  10.460  13.498  0.0707  0.2206 -0.0952
 6065W        W22539  12.253   4.528  14.919  0.0826  0.2483  0.1637
 6066W        W22540  16.631   4.660   0.330  0.1187  0.0751  0.0062
 6067W        W22541   5.749   0.084  14.550  0.0376  0.0803 -0.1464
 6068W        W22542   3.264   3.213  12.750  0.1701  0.2320 -0.1468
 6069W        W22543   1.717   8.778  13.160 -0.0685 -0.0812 -0.0093
 6070W        W22544  14.192  10.845  14.136 -0.1456 -0.0862  0.1549
 6071W        W22545  15.663   1.744  14.823 -0.1582  0.0801 -0.1639
 6072W        W22546  11.281   4.888  12.197 -0.0904 -0.0274  0.0397
 6073W        W22547   2.320  14.690   2.755  0.6091 -0.0647 -0.1827
 6074W        W22548   0.367  13.549   0.312  0.0292  0.0616  0.4120
 6075W        W22549  14.144   5.315   0.348 -0.2255  0.2576 -0.2045
 6076W        W22550  11.940  11.782   4.125  0.1005 -0.2617  0.2295
 6077W        W22551  14.626  14.236  13.119  0.3041  0.2241  0.3788
 6078W        W22552  17.059  18.914   1.055 -0.1552 -0.0457 -0.0848
 6079W        W22553   7.448  18.323  11.046 -0.1742 -0.0138  0.1694
 6080W        W22554   7.532  16.673   3.107 -0.0421  0.0269 -0.0025
 6081W        W22555   4.317  12.126   2.561  0.1955 -0.4329 -0.1607
 6082W        W22556  17.460  15.770  13.147  0.1815 -0.0988 -0.1870
 6083W        W22557   1.470   0.309   4.161 -0.0934 -0.0233  0.1789
 6084W        W22558   9.018  18.750   3.758 -0.1459 -0.0026  0.3363
 6085W        W22559   9.637   0.535  12.773 -0.0730 -0.0012  0.1042
 6086W        W22560   6.472  11.739   4.940 -0.0732  0.0471 -0.0121
 6087W        W22561   4.195  18.302  14.852 -0.1116 -0.1413 -0.1740
 6088W        W22562   2.313  11.308  14.461  0.2183  0.0024  0.0763
 6089W        W22563   9.281   8.258   1.489  0.2248  0.0104  0.1411
 6090W        W22564   5.111  17.939   3.792  0.0293  0.0819 -0.3743
 6091W        W22565  15.554  18.968  11.974  0.0230 -0.1709  0.1896
 6092W        W22566   1.721   8.750   3.728  0.0699 -0.1018 -0.0554
 6093W        W22567  18.608   5.078  11.934  0.0673 -0.0688 -0.2505
 6094W        W22568  12.445  12.893   0.901 -0.0582  0.1035 -0.3495
 6095W        W22569   6.531   1.935  13.429  0.0169 -0.3498  0.2944
 6096W        W22570   4.943  13.203   3.995  0.0420  0.1292 -0.0799
 6097W        W22571  14.338   6.502  14.261 -0.0057  0.2373 -0.1863
 6098W        W22572   6.125   5.524  11.359 -0.1826  0.0222  0.0310
 6099W        W22573   0.482  16.904  12.767  0.3453 -0.0478 -0.2790
 6100W        W22574   3.200   5.976   0.437  0.2380  0.1766 -0.0210
 6101W        W22575   2.843  18.158   0.438 -0.0554  0.1346  0.4610
 6102W        W22576   8.345  14.260  10.506  0.1285 -0.1436  0.4758
 6103W        W22577  11.490  18.078   9.725 -0.0485  0.0569  0.4148
 6104W        W22578  12.861  11.353  13.893  0.0500 -0.1084  0.1210
 6105W        W22579   5.349   2.189  13.044 -0.0644 -0.1398 -0.0256
 6106W        W22580   7.047   5.467  15.143 -0.1788 -0.0174  0.2413
 6107W        W22581  10.605   8.543  11.851  0.0448 -0.0334 -0.0270
 6108W        W22582  12.100  18.995  11.096 -0.1633 -0.2730  0.0662
 6109W        W22583   0.083   8.741   4.789  0.1099 -0.0010 -0.0697
 6110W        W22584   0.067  10.957  10.081 -0.1454 -0.1143  0.2783
 6111W        W22585   3.097   9.538   4.866 -0.2502 -0.2349 -0.1274
 6112W        W22586  16.368   1.236  12.147  0.0586  0.0983 -0.0120
 6113W        W22587   5.891   6.125   2.058 -0.0255  0.0197 -0.0292
 6114W        W22588   9.234   7.003   2.566  0.2981  0.1891 -0.1518
 6115W        W22589   4.183  17.349  12.370  0.1501  0.2823  0.0457
 6116W        W22590   3.107   4.185  12.568 -0.0434 -0.1377 -0.1463
 6117W        W22591  16.069  17.890   5.227 -0.0209 -0.2871  0.0517
 6118W        W22592   6.488  11.442  12.992 -0.0620 -0.2369 -0.1342
 6119W        W22593   4.677   1.886   5.465  0.1349 -0.2444 -0.1808
 6120W        W22594   2.481   5.291  12.244 -0.1473  0.2424 -0.0201
 6121W        W22595   6.153  14.800  12.199 -0.0142  0.3047 -0.2269
 6122W        W22596   7.496   7.398   2.584 -0.0151  0.3299 -0.0609
 6123W        W22597   0.469  18.318  11.789 -0.0878  0.1745  0.2604
 6124W        W22598   2.509   0.925  12.914  0.0235  0.1222 -0.0452
 6125W        W22599  17.280   2.054   1.503 -0.1129  0.0241  0.1019
 6126W        W22600  11.694  12.236  12.228 -0.2169  0.0896  0.0491
 6127W        W22601  16.798  14.833  11.629  0.1808  0.0452 -0.0501
 6128W        W22602   4.992  15.488   4.444 -0.0107  0.0862 -0.0101
 6129W        W22603  10.542   3.030   2.349 -0.0828  0.2018  0.2152
 6130W        W22604   2.513  17.666   0.879 -0.2218  0.6686 -0.1292
 6131W        W22605  13.162   5.097   1.709 -0.0396 -0.0418  0.0279
 6132W        W22606  10.217  16.804   2.450  0.0471  0.1029 -0.0088
 6133W        W22607   4.328   4.678   3.890 -0.3101  0.4540  0.1604
 6134W        W22608   1.583   8.208  11.629 -0.0921 -0.3382  0.3222
 6135W        W22609   6.641  18.221   4.019 -0.2459  0.0130  0.1880
 6136W        W22610   3.685   9.771   1.610  0.1066  0.0548  0.0451
 6137W        W22611   7.237   1.711  12.347 -0.0187  0.2663  0.4211
 6138W        W22612   3.722   3.690   3.244 -0.0148 -0.0256  0.0862
 6139W        W22613  10.006   4.876   0.331 -0.0589 -0.1261  0.2052
 6140W        W22614  15.211   5.227  10.692  0.1429 -0.0040  0.1479
 6141W        W22615  17.332  11.997   1.535  0.4389  0.0860  0.0541
 6142W        W22616   5.132  10.017   2.830  0.0598 -0.1161  0.1222
 6143W        W22617   4.515   4.444   1.440  0.5021  0.0544 -0.0185
 6144W        W22618  13.136  15.570   1.703 -0.2686 -0.0350 -0.2012
 6145W        W22619  10.042   1.791  10.859 -0.0165  0.0660  0.0109
 6146W        W22620   9.683  18.490   4.551 -0.3242  0.0831  0.1100
 6147W        W22621  18.596   7.862   3.098  0.1767 -0.0698 -0.2173
 6148W        W22622   3.877   2.937  14.535  0.0493  0.3094  0.0669
 6149W        W22623   9.271   5.158  14.204  0.1988  0.1471 -0.1023
 6150W        W22624   2.434  19.021   5.672 -0.2085 -0.2707  0.3593
 6151W        W22625  18.917   6.903   5.174  0.3802  0.0486  0.1699
 6152W        W22626   3.993   8.756  14.204 -0.1241  0.0735 -0.1527
 6153W        W22627  10.749   1.351  12.329  0.0132  0.1062  0.2171
 6154W        W22628   8.833  14.650  12.725 -0.1504 -0.0331  0.1290
 6155W        W22629  10.114   9.384   2.658  0.1199  0.0925  0.1931
 6156W        W22630   7.050   8.180   0.611 -0.1856 -0.3594  0.0129
 6157W        W22631   3.768   0.311   2.545 -0.1036 -0.1654  0.1028
 6158W        W22632  16.904  18.934  14.659  0.0174  0.3225 -0.0747
 6159W        W22633   8.248  18.959   0.957 -0.1100  0.5708  0.0778
 6160W        W22634   1.542   8.497   0.780 -0.0304 -0.0515  0.1861
 6161W        W22635  10.687  17.942   3.123  0.0396 -0.1015 -0.0723
 6162W        W22636  11.670  11.781   2.606 -0.4569 -0.1054 -0.0138
 6163W        W22637   5.649   6.637   5.351  0.2986  0.0990  0.2480
 6164W        W22638  18.810  10.882   0.187 -0.0464 -0.1178  0.0575
 6165W        W22639  15.187   3.083  11.950 -0.0238  0.3731  0.0586
 6166W        W22640   1.590  10.125   0.440  0.0466  0.3329  0.0162
 6167W        W22641  17.108   5.485  12.932 -0.1715  0.1859  0.0328
 6168W        W22642   5.035   9.833   4.032 -0.1256  0.0698 -0.0893
 6169W        W22643  15.870  14.300  10.090  0.0194  0.2134  0.0456
 6170W        W22644   7.120   1.112   3.651 -0.1537 -0.0875  0.0855
 6171W        W22645   9.179  18.290   4.587  0.4011  0.1523  0.4178
 6172W        W22646  13.381   6.470   4.663  0.0637  0.0263 -0.1396
 6173W        W22647  16.518   1.413   1.789  0.2236 -0.3155 -0.2340
 6174W        W22648   0.971   2.754  13.398 -0.1797 -0.0392 -0.0247
 6175W        W22649   5.134  18.112   4.858  0.0594 -0.0141  0.4649
 6176W        W22650   4.759  12.066  11.305 -0.0494  0.0192  0.0474
 6177W        W22651   6.035   5.587  10.771 -0.0134  0.3344  0.0251
 6178W        W22652  17.250  11.019   3.996  0.1196 -0.2185  0.1202
 6179W        W22653  14.441   5.791   3.086 -0.2888 -0.0656 -0.4695
 6180W        W22654  14.811  13.134   3.126 -0.1179  0.4381 -0.1258
 6181W        W22655  11.807   4.894   2.215 -0.0852  0.0615  0.0991
 6182W        W22656   2.853  13.976   2.941 -0.0126 -0.0074  0.0013
 6183W        W22657   3.748   5.408   9.730  0.1670 -0.0545  0.1035
 6184W        W22658   8.803   2.347  10.326 -0.0832  0.0915 -0.0832
 6185W        W22659   0.994  18.540  14.497  0.0263 -0.2283  0.1296
 6186W        W22660  15.937   4.684   1.893 -0.0862 -0.1635 -0.2671
 6187W        W22661   5.718  14.584  14.737  0.2180 -0.0794  0.1952
 6188W        W22662   6.735  10.566  13.072  0.2153  0.0429  0.2306
 6189W        W22663  17.145   6.819   1.833  0.2135 -0.2067 -0.0905
 6190W        W22664   4.211   7.137   0.388 -0.3700 -0.2167  0.0315
 6191W        W22665   9.590   2.762   3.550  0.0333 -0.1878 -0.0772
 6192W        W22666  14.230  18.961  11.766 -0.0065  0.3523  0.0467
 6193W        W22667  11.506  16.833  14.994  0.2610 -0.2860 -0.0903
 6194W        W22668   2.096   9.713   4.986 -0.4563 -0.2278  0.0775
 6195W        W22669  18.117   9.439  14.792  0.0767 -0.0954  0.2034
 6196W        W22670   9.974  17.482   1.430 -0.0658  0.1647 -0.1373
 6197W        W22671  16.134   9.327  14.742 -0.1890 -0.2084  0.1792
 6198W        W22672  15.421  11.700  12.535 -0.1133 -0.0227  0.0464
 6199W        W22673  15.693   7.275  12.686 -0.0535  0.4722  0.4558
 6200W        W22674   0.863   2.102  12.466  0.1367  0.2468  0.2201
 6201W        W22675  13.172  17.809  10.644  0.2775 -0.2837 -0.0119
 6202W        W22676   2.453  13.327  10.873  0.0573 -0.0748 -0.0213
 6203W        W22677   6.574   6.896  12.746 -0.0369 -0.2269 -0.1025
 6204W        W22678   9.485   5.495  11.477  0.0677 -0.1551 -0.0728
 6205W        W22679   4.312  15.628   1.309 -0.0876 -0.1062  0.2354
 6206W        W22680   3.632  18.620  12.753  0.1587 -0.0678  0.0069
 6207W        W22681   0.645   0.821   3.064  0.1599 -0.1247 -0.0490
 6208W        W22682  10.052   4.797   0.828  0.0412 -0.4474 -0.1015
 6209W        W22683  10.584   6.672  13.891  0.1329 -0.2284  0.0504
 6210W        W22684  14.025  13.569   3.616 -0.1139 -0.2820 -0.0248
 6211W        W22685   3.521  10.833  13.935 -0.1049 -0.1596  0.0495
 6212W        W22686  16.309  18.404  11.189  0.1405 -0.3009  0.0358
 6213W        W22687  13.317   0.182   4.821 -0.3190  0.1780 -0.2223
 6214W        W22688   6.909   2.454  14.124 -0.0312 -0.1456 -0.0741
 6215W        W22689  12.154   7.379  13.336  0.1731 -0.3418  0.1203
 6216W        W22690  19.099  11.880   2.779 -0.1863 -0.1745 -0.1052
 6217W        W22691   0.088  12.802   1.710  0.2789  0.1621 -0.1868
 6218W        W22692  13.375   4.502  12.201  0.0529 -0.1026 -0.4222
 6219W        W22693   6.796   5.761   3.094  0.2258 -0.0365 -0.1026
 6220W        W22694   9.732   0.166   4.320  0.0635  0.0962  0.0464
 6221W        W22695  10.771  16.628   2.290 -0.0633 -0.0674 -0.2916
 6222W        W22696  19.096   3.532   5.188 -0.3214 -0.3576  0.0694
 6223W        W22697  12.133  16.510  11.967 -0.1573 -0.1707  0.1770
 6224W        W22698   0.320  15.664   3.295  0.0676 -0.1308  0.1102
 6225W        W22699  14.769   5.785  11.969 -0.1234 -0.1385  0.1282
 6226W        W22700   2.599  14.706  10.598  0.3500  0.0982 -0.0124
 6227W        W22701  13.608  14.400  12.145 -0.2203 -0.2456  0.2356
 6228W        W22702  15.035   3.770  11.808  0.0378  0.1934  0.1040
 6229W        W22703  14.938  17.820   3.347  0.1116  0.2219  0.3059
 6230W        W22704  16.242  15.366   0.303 -0.0732 -0.0473 -0.1687
 6231W        W22705  13.931   0.029   2.487 -0.2047 -0.0503 -0.0116
 6232W        W22706  10.506   5.061  13.134  0.1801 -0.0190 -0.0205
 6233W        W22707   8.428  12.082   0.808  0.1666 -0.1649  0.1584
 6234W        W22708  18.707   3.321   4.378 -0.0424  0.0748  0.1337
 6235W        W22709   1.636   4.379  13.697 -0.0426  0.0187 -0.0539
 6236W        W22710  16.502   0.587  13.485 -0.0750  0.0934  0.0874
 6237W        W22711  11.484   9.666  11.312 -0.2676 -0.1818  0.0416
 6238W        W22712  18.662  10.614   3.572 -0.1523 -0.2976 -0.0103
 6239W        W22713  17.957   2.882   4.232 -0.1114 -0.2545  0.1116
 6240W        W22714   1.853   4.397   4.357 -0.1844 -0.0225  0.0479
 6241W        W22715  16.716  15.853   5.227 -0.0237 -0.2135 -0.0884
 6242W        W22716  18.277   3.848  15.105  0.2508 -0.1910 -0.0111
 6243W        W22717  17.044  11.835   2.394  0.0631  0.1387  0.2324
 6244W        W22718  12.597   4.775  15.126 -0.3802  0.1645  0.1848
 6245W        W22719  14.704   7.593   5.711 -0.1828  0.1633 -0.0759
 6246W        W22720   3.035   6.767  12.397  0.1517 -0.1864 -0.3258
 6247W        W22721   6.610   7.392   4.342  0.4782  0.1039 -0.3127
 6248W        W22722  12.971  16.750   3.648  0.1651 -0.0891  0.0023
 6249W        W22723   0.044   6.299   3.439  0.4176  0.0117 -0.1429
 6250W        W22724   3.795   0.025   0.225  0.1965  0.3049  0.0054
 6251W        W22725  12.920   8.652  15.102  0.0233  0.5366  0.3107
 6252W        W22726   8.051   6.358  14.026  0.0196  0.1628 -0.3041
 6253W        W22727  15.214   1.129  10.728  0.2541 -0.1333  0.2125
 6254W        W22728   5.147  16.967   1.151  0.0180  0.0421  0.0094
 6255W        W22729   5.645   0.582   1.089  0.0981 -0.0044  0.1107
 6256W        W22730  19.000  17.584  13.233 -0.0636 -0.0005  0.2902
 6257W        W22731   4.452   2.478  13.228  0.2671 -0.0013  0.1995
 6258W        W22732   8.367   2.740  11.697 -0.1002 -0.2193 -0.1459
 6259W        W22733   2.093   6.566   1.798 -0.1487 -0.0029 -0.1020
 6260W        W22734   7.910  10.474  15.007  0.0959  0.0121  0.1452
 6261W        W22735  13.865   1.769   2.994  0.0196 -0.1802 -0.4148
 6262W        W22736   3.523   6.673  12.717  0.4207  0.3355 -0.0526
 6263W        W22737  16.157   8.270   5.679 -0.0653 -0.1037  0.1693
 6264W        W22738   5.400  16.420   1.010  0.0523 -0.2321 -0.0489
 6265W        W22739  19.098   8.669  14.669  0.0986 -0.4905 -0.1478
 6266W        W22740  15.685   1.716   9.940  0.1447  0.1138 -0.4753
 6267W        W22741   3.176  14.141   5.587  0.2414  0.2098 -0.0362
 6268W        W22742   5.093   1.962  13.421 -0.4487  0.0807  0.1145
 6269W        W22743  10.757   3.001   3.873 -0.0950 -0.1975 -0.2588
 6270W        W22744   2.668   9.233  14.762 -0.0286  0.1566 -0.2307
 6271W        W22745   0.507  12.155   3.643 -0.0219  0.1767  0.1282
 6272W        W22746   2.439   0.627  13.519 -0.1792 -0.0080  0.1496
 6273W        W22747   8.395  15.889   1.502 -0.2603 -0.1046 -0.0889
 6274W        W22748   7.391   3.773   3.431 -0.2109  0.4024 -0.0907
 6275W        W22749  12.587   9.651  15.097 -0.0114  0.1148 -0.2744
 6276W        W22750  11.291   1.202   4.193 -0.0621 -0.0872  0.1740
 6277W        W22751  16.016  14.488  10.938  0.0812 -0.3380  0.2136
 6278W        W22752   9.485   9.226   3.620  0.2100  0.1208 -0.1130
 6279W        W22753  10.344   7.645  13.272  0.0023 -0.2130 -0.0561
 6280W        W22754  12.991  19.040  12.304  0.0831  0.0206 -0.0925
 6281W        W22755  13.906  14.199   5.741  0.1785  0.0615 -0.1862
 6282W        W22756  10.058  10.794   5.818 -0.1793 -0.0677  0.1309
 6283W        W22757   8.531  15.576   4.178  0.1820 -0.2341  0.2218
 6284W        W22758  15.392  13.055  14.779 -0.0843  0.0778  0.0664
 6285W        W22759  10.371   2.294  11.292 -0.1716 -0.0730  0.2339
 6286W        W22760   8.940   6.866   3.934 -0.0770  0.0174 -0.2048
 6287W        W22761   5.597   2.932   1.352 -0.5725  0.0108 -0.1639
 6288W        W22762   9.237   8.651  15.007  0.0541 -0.0870  0.4813
 6289W        W22763  10.391   3.642  13.603 -0.0373 -0.0391 -0.1705
 6290W        W22764   0.703   7.417   1.254  0.1405  0.0379 -0.0126
 6291W        W22765  13.563   6.664   3.411 -0.0973  0.4777 -0.0446
 6292W        W22766  16.407   4.508   0.747  0.2191 -0.0223 -0.3091
 6293W        W22767  10.190   7.111  11.783 -0.1083  0.0045  0.1026
 6294W        W22768   3.713  11.619   4.094  0.0009 -0.2620 -0.2512
 6295W        W22769  12.044  16.366  13.139  0.3309 -0.1725 -0.0861
 6296W        W22770   7.183   6.903  13.136  0.1083 -0.1924 -0.2727
 6297W        W22771   5.042  18.685  14.888 -0.2528  0.3888  0.0176
 6298W        W22772   5.839   0.600   0.238 -0.0858  0.0122  0.0668
 6299W        W22773  13.481  19.089  11.243 -0.2913 -0.1367 -0.1241
 6300W        W22774   4.626   4.816  10.678  0.0648 -0.0940 -0.0429
 6301W        W22775   9.203  11.752  13.158  0.0023  0.0311  0.0437
 6302W        W22776  12.176   9.865  14.206 -0.2010 -0.0636 -0.1249
 6303W        W22777  10.436   8.046  14.292 -0.0062 -0.0428  0.1574
 6304W        W22778  16.424   2.115  14.299  0.3433  0.1159  0.3170
 6305W        W22779   7.658  15.097  11.112  0.2035  0.1056  0.0185
 6306W        W22780  18.283  14.236   1.562  0.1340 -0.1560 -0.1690
 6307W        W22781  16.748  13.445  14.098 -0.2393 -0.2006 -0.5636
 6308W        W22782  15.350  10.846  11.059  0.0030 -0.0822 -0.0214
 6309W        W22783  18.303  10.340   2.508  0.0133 -0.0130 -0.0338
 6310W        W22784  15.043   6.450   2.013 -0.0229  0.0592  0.2447
 6311W        W22785   7.477   6.666   2.272 -0.0075  0.1645  0.0372
 6312W        W22786   4.271  14.174   4.294  0.2432  0.1851  0.0751
 6313W        W22787   1.450   8.822   1.586  0.1043 -0.2136  0.0195
 6314W        W22788   0.712   5.220  13.053  0.3255 -0.1877 -0.0568
 6315W        W22789  15.282  14.375  14.685  0.2271  0.1633  0.0026
 6316W        W22790  12.856  10.949   1.706 -0.0176 -0.1893 -0.1739
 6317W        W22791  10.746  10.340   4.367 -0.1176 -0.0899 -0.2818
 6318W        W22792  17.816  12.287  11.281 -0.1684 -0.0047  0.0776
 6319W        W22793  18.573   8.904  11.951  0.2660  0.0728 -0.0899
 6320W        W22794  18.406  17.559   0.838  0.4009  0.1097  0.1636
 6321W        W22795  11.505   9.258  14.378 -0.1386  0.2459 -0.3000
 6322W        W22796  11.962   4.369   0.975  0.2376  0.0252 -0.2181
 6323W        W22797  17.077  10.375  13.867  0.0807 -0.1270  0.0601
 6324W        W22798  12.435   4.303   0.196 -0.3491  0.0323 -0.3009
 6325W        W22799   2.410   7.935  13.302  0.1272  0.3232 -0.0156
 6326W        W22800   3.601  16.885   1.257  0.0974  0.1341  0.0248
 6327W        W22801   5.715   1.614   2.262 -0.1593  0.1593 -0.0656
 6328W        W22802  18.942   3.105   5.323  0.0076  0.0413 -0.0361
 6329W        W22803  11.724  18.427   2.095  0.1247  0.0738  0.1459
 6330W        W22804  13.169  16.757  11.835 -0.2652 -0.3646 -0.1167
 6331W        W22805   5.070   1.013   1.215  0.0546 -0.2310  0.3703
 6332W        W22806   4.055  14.158   1.613  0.0115 -0.1809 -0.0271
 6333W        W22807   8.173   5.235   4.140  0.0301 -0.3506 -0.0837
 6334W        W22808   8.105  10.510  13.235  0.0612  0.1230 -0.4822
 6335W        W22809   8.017   5.626  15.023 -0.0010  0.0038  0.1745
 6336W        W22810   2.705   2.477  14.635  0.2008  0.0869 -0.1044
 6337W        W22811  16.523   1.791  12.051  0.0994  0.1660 -0.2869
 6338W        W22812   6.837  19.076   2.362 -0.0260 -0.0016 -0.0088
 6339W        W22813  11.247   4.492   5.297  0.1392 -0.1957  0.1310
 6340W        W22814   0.964   9.543  10.681 -0.3831 -0.0306 -0.0097
 6341W        W22815   5.619  18.282   3.664 -0.2397  0.1074 -0.2951
 6342W        W22816  13.825  14.827  11.912  0.0126 -0.3893 -0.2613
 6343W        W22817  18.766   1.683   9.716 -0.0382 -0.0160  0.0508
 6344W        W22818   6.891   1.399  11.379  0.4544  0.1790 -0.2847
 6345W        W22819  16.976   9.775  12.374  0.0457  0.0624 -0.0102
 6346W        W22820  12.009   4.392   2.246  0.3451 -0.0217 -0.0438
 6347W        W22821  12.627  10.307   5.102  0.0058  0.2397 -0.1575
 6348W        W22822  10.007  11.874   4.724  0.1882  0.0084  0.1212
 6349W        W22823  15.994  10.856  12.629  0.1134 -0.1361 -0.0612
 6350W        W22824   6.815  13.960  14.473  0.1991 -0.3158  0.1522
 6351W        W22825   3.203   2.951   5.125  0.3759 -0.0700  0.0017
 6352W        W22826   3.732  17.094   0.661 -0.0187 -0.5125 -0.1388
 6353W        W22827  18.282   6.501   2.108  0.1376 -0.4035 -0.1012
 6354W        W22828   9.305  14.836   0.349 -0.0412 -0.0804 -0.0240
 6355W        W22829  13.444   7.425   3.964  0.5306  0.0268 -0.0720
 6356W        W22830  15.806  11.060  10.960  0.0816 -0.3565  0.2227
 6357W        W22831   1.023   5.104   1.673 -0.0079  0.3848 -0.0702
 6358W        W22832   7.542   1.199  10.684  0.0694 -0.3700 -0.0582
 6359W        W22833   6.579  17.952   4.540 -0.0002 -0.4330  0.2652
 6360W        W22834  13.859   6.557  11.055 -0.0185  0.0777 -0.1852
 6361W        W22835   8.270   0.702  13.066  0.2465 -0.0976 -0.0677
 6362W        W22836   6.402  17.554  14.024 -0.2026 -0.0820  0.3102
 6363W        W22837   0.222   6.726   3.594  0.2347  0.1349  0.1704
 6364W        W22838   0.426   3.018   5.989 -0.1504 -0.2132 -0.0508
 6365W        W22839  13.064  10.475   4.128  0.0536  0.0166 -0.1773
 6366W        W22840   7.787   5.055   0.283  0.0940 -0.3680  0.1263
 6367W        W22841   2.995   7.337  10.474 -0.0063  0.0139  0.2187
 6368W        W22842   9.291  10.957   3.612 -0.0630 -0.1695  0.0472
 6369W        W22843   4.860  11.103   2.908 -0.3229  0.1799  0.1565
 6370W        W22844  16.996  14.339  11.572  0.1361 -0.2015 -0.2614
 6371W        W22845   5.488   6.935   4.528 -0.0217 -0.0058  0.2909
 6372W        W22846   2.202  12.936   4.076 -0.1850 -0.0483  0.1227
 6373W        W22847   0.775  16.218   2.696 -0.0301 -0.1078  0.2522
 6374W        W22848  18.711  11.345  12.597 -0.0598  0.0977 -0.1115
 6375W        W22849   3.206   0.608   3.250 -0.0476  0.1436 -0.0896
 6376W        W22850   5.339  14.402  11.523 -0.2694  0.0862  0.0925
 6377W        W22851   0.851   2.019  12.981  0.1397  0.4558 -0.0653
 6378W        W22852  15.939  18.540   0.314  0.2813 -0.0191 -0.1517
 6379W        W22853   8.408  14.983  11.876 -0.0674 -0.0582  0.0827
 6380W        W22854   3.806   9.125  11.177 -0.1126  0.1228  0.1733
 6381W        W22855  12.669  15.980   5.758  0.3547  0.0529 -0.1489
 6382W        W22856  17.628   7.599   4.044 -0.1893  0.2039  0.3246
 6383W        W22857  14.931  15.725   0.631 -0.0412 -0.1836 -0.1010
 6384W        W22858   4.743   9.398  13.717  0.0921  0.4766 -0.0568
 6385W        W22859   6.624   6.720   4.989 -0.4388 -0.0517  0.0663
 6386W        W22860   0.237  13.249   0.773  0.1382 -0.4266  0.3056
 6387W        W22861   1.855  10.951   3.895 -0.5694 -0.0033  0.2215
 6388W        W22862   4.546  15.234  10.774 -0.1807  0.0458  0.1493
 6389W        W22863   8.287  14.131  14.830  0.0873  0.1906  0.0556
 6390W        W22864   1.699   2.351  11.178 -0.3320  0.0220 -0.0387
 6391W        W22865  14.178  11.919  13.698  0.0163 -0.3002 -0.0241
 6392W        W22866   3.698  11.216  13.039  0.2025  0.1883 -0.0951
 6393W        W22867  15.005  15.462  12.943 -0.1620  0.1786  0.2261
 6394W        W22868   3.129   2.772   1.505  0.2078  0.0606  0.0492
 6395W        W22869   8.988   4.686  15.017  0.1795  0.0770  0.2362
 6396W        W22870   9.866  13.359   2.301 -0.0642 -0.1490  0.1683
 6397W        W22871  13.215   7.634   4.930 -0.0777 -0.3089 -0.3007
 6398W        W22872  10.790   6.857   4.410  0.1150  0.2319  0.0514
 6399W        W22873  10.097  15.844   2.112  0.0410  0.4118  0.0221
 6400W        W22874   0.843  11.902  13.076  0.1675  0.2001  0.4432
 6401W        W22875  16.518   4.380  10.318 -0.1585 -0.0632  0.0648
 6402W        W22876  13.609   1.054   5.630  0.1223 -0.2030  0.1102
 6403W        W22877   0.290  11.028   1.704 -0.0619 -0.1212 -0.1852
 6404W        W22878   8.365   6.914  14.385  0.1420 -0.2851  0.0823
 6405W        W22879   8.453   0.540  10.883 -0.2067  0.0637 -0.2407
 6406W        W22880  13.827   3.923  13.245  0.0874 -0.3355 -0.1865
 6407W        W22881  11.343   2.596  14.034  0.3413 -0.3188 -0.2333
 6408W        W22882  16.727   3.543   5.335  0.1581 -0.5543  0.1918
 6409W        W22883  10.108   8.651  12.161  0.1565 -0.1775  0.2130
 6410W        W22884   7.455   7.217   4.961 -0.1254 -0.0170  0.2144
 6411W        W22885  11.692  15.122   4.058 -0.0953 -0.0288  0.0473
 6412W        W22886  16.228   1.340   4.238 -0.1781  0.2002 -0.0867
 6413W        W22887  13.046   8.309   3.325 -0.3455  0.1251  0.1258
 6414W        W22888   6.686   4.154   2.664 -0.1268  0.1065 -0.1800
 6415W        W22889  11.695   1.677  13.655  0.1545  0.1739  0.2110
 6416W        W22890  16.634   8.862  13.538  0.4419  0.0409 -0.0268
 6417W        W22891  11.766   2.768   5.375 -0.2427 -0.0818  0.4073
 6418W        W22892   1.058   8.194   2.684 -0.0931 -0.1847  0.0149
 6419W        W22893   0.530   3.468   4.247  0.2454  0.0129 -0.0722
 6420W        W22894   4.997  13.768   2.006 -0.2820  0.1055 -0.4391
 6421W        W22895  11.052  12.048  12.531 -0.1960  0.1927 -0.1548
 6422W        W22896   9.195  13.506  11.770 -0.2204 -0.1493 -0.0169
 6423W        W22897  16.903   7.155   5.337 -0.0510  0.2140 -0.0213
 6424W        W22898   4.751   6.604  10.961  0.1175 -0.0175 -0.2977
 6425W        W22899  10.404  18.825   0.190  0.3782 -0.1735  0.5919
 6426W        W22900  10.268   9.219  13.026 -0.1684  0.0186 -0.2911
 6427W        W22901   9.757  12.276   1.772 -0.1128  0.3300  0.0134
 6428W        W22902   8.157   6.696   0.858 -0.0661  0.0740  0.2429
 6429W        W22903   0.791  10.278   3.009  0.1630 -0.2453  0.0931
 6430W        W22904   2.957  17.010   2.621  0.0587  0.1086  0.2673
 6431W        W22905   2.862  14.746   0.502 -0.1955 -0.0875  0.2563
 6432W        W22906   0.122  16.112  10.694  0.3121  0.0012 -0.1006
 6433W        W22907   6.507   1.252   3.640  0.0674 -0.2879 -0.0379
 6434W        W22908   4.859  11.254   4.660 -0.2899  0.0649 -0.3924
 6435W        W22909  14.268  14.103   3.770 -0.1215  0.0725 -0.3655
 6436W        W22910   8.525   5.973  12.969  0.2073 -0.2430  0.1569
 6437W        W22911   3.488   2.140   0.825  0.0662 -0.2313  0.3670
 6438W        W22912   0.508  15.156   3.411  0.1190  0.1557  0.0800
 6439W        W22913   8.947  17.819   4.797  0.1872  0.1006 -0.0027
 6440W        W22914  18.222  17.364   0.256 -0.1579  0.2770 -0.1331
 6441W        W22915   7.835   2.704  13.348  0.1293 -0.3090  0.1167
 6442W        W22916  14.187   6.225   1.871 -0.3384 -0.0056  0.1504
 6443W        W22917  14.209   8.693  14.317  0.2289 -0.0995  0.1869
 6444W        W22918  15.671  17.184  14.993 -0.1817  0.0557  0.1734
 6445W        W22919   0.047  10.155  13.993 -0.0825 -0.0038 -0.2501
 6446W        W22920   1.205  12.872   3.757  0.1540 -0.3439  0.0772
 6447W        W22921  11.103   0.745   2.007 -0.0283  0.1842  0.0414
 6448W        W22922  16.457  14.279   4.469 -0.2475  0.2438 -0.0694
 6449W        W22923  17.104  10.501  10.114 -0.0003 -0.3055  0.1833
 6450W        W22924   2.910  17.283   0.009  0.0722 -0.0022 -0.1033
 6451W        W22925   7.510  11.471   2.494 -0.3098 -0.0283 -0.0105
 6452W        W22926   9.037  16.085  14.248 -0.0598  0.1570 -0.1899
 6453W        W22927  10.898  16.267  10.681  0.1766 -0.0148  0.0153
 6454W        W22928   5.476   3.656   4.909 -0.2239 -0.3210  0.0972
 6455W        W22929  18.143   3.663   2.761 -0.1490  0.3014 -0.1917
 6456W        W22930  17.842  12.486  10.672 -0.0223  0.2636  0.0405
 6457W        W22931  12.823   4.095  11.309 -0.3314 -0.4287  0.1682
 6458W        W22932   7.790  14.557   1.643 -0.0527 -0.0172  0.2719
 6459W        W22933   3.328  15.941  10.555  0.2986  0.1354  0.0740
 6460W        W22934  15.531  15.062   0.230 -0.2019  0.0065 -0.0555
 6461W        W22935   1.818   5.707  14.077  0.0973 -0.0322 -0.2434
 6462W        W22936   4.842  16.313  15.031 -0.0422  0.0546  0.1661
 6463W        W22937   4.180   4.026  14.224  0.0466  0.0637  0.0817
 6464W        W22938   7.107  13.096   4.008 -0.1562 -0.3468 -0.0520
 6465W        W22939  10.134   7.758  10.125 -0.0708  0.0470  0.3534
 6466W        W22940   6.692   0.838  13.666  0.0821 -0.0707  0.2352
 6467W        W22941   6.082   3.284  14.687  0.0758 -0.3723 -0.1892
 6468W        W22942   9.325  13.056   2.441 -0.0390 -0.0968  0.2532
 6469W        W22943   6.758  14.067  13.133 -0.2487 -0.2390  0.1842
 6470W        W22944   2.680   7.028   1.092 -0.2344  0.2330  0.3203
 6471W        W22945   1.961   9.555   2.353  0.0554 -0.2455 -0.1732
 6472W        W22946  12.788   4.306   3.425  0.0931  0.0771  0.2377
 6473W        W22947   7.451   9.297  13.613  0.0999 -0.2057 -0.0966
 6474W        W22948  12.611  17.096   3.805 -0.2599 -0.2774 -0.2333
 6475W        W22949  11.076   2.434   3.476 -0.0191 -0.4371 -0.1461
 6476W        W22950   7.677   1.908  10.193 -0.3341 -0.0105  0.2143
 6477W        W22951   5.392  15.525   4.980  0.1632 -0.0314  0.0192
 6478W        W22952  15.016   5.455   0.018  0.1285  0.1966  0.2409
 6479W        W22953   0.722   1.254  11.343  0.1857  0.1701  0.3182
 6480W        W22954   2.508   8.617  12.370 -0.2392 -0.0947  0.1877
 6481W        W22955  12.096   6.916   2.183  0.2852 -0.1459 -0.1369
 6482W        W22956   5.997   3.757   4.733 -0.0908  0.0409 -0.2423
 6483W        W22957   5.131   1.426  10.776 -0.2324  0.0386  0.2703
 6484W        W22958   1.831  14.278  14.135  0.0028 -0.0590  0.3104
 6485W        W22959  15.277   0.880   3.754  0.1770 -0.3694  0.4766
 6486W        W22960  18.120   7.551  15.049  0.0282 -0.0599  0.2862
 6487W        W22961   7.182   0.083   0.078  0.0084  0.0934  0.2083
 6488W        W22962  15.374  14.292   4.725  0.2181 -0.1444 -0.0239
 6489W        W22963  11.450   8.242  14.621 -0.0168  0.2831 -0.1356
 6490W        W22964   0.009   9.614   1.987  0.1171  0.0563  0.0248
 6491W        W22965  16.325  13.258   1.461 -0.1697 -0.1862 -0.1378
 6492W        W22966  12.262  13.458   4.395  0.0750  0.1200 -0.0290
 6493W        W22967   2.727  10.746   2.912  0.0631  0.3768  0.0076
 6494W        W22968  18.936  18.836   3.394  0.3822  0.1621  0.0283
 6495W        W22969  18.558   7.827   5.029  0.4079  0.1062 -0.1149
 6496W        W22970   3.938  19.101   2.988  0.3266 -0.0637 -0.1280
 6497W        W22971  16.984  14.948   5.013  0.0428 -0.1838  0.2783
 6498W        W22972  14.336   9.133  11.799 -0.2465  0.0214 -0.0593
 6499W        W22973   3.905   3.509   1.607 -0.0012  0.0947  0.1153
 6500W        W22974  12.400  15.643   9.752 -0.4105  0.0121  0.3627
 6501W        W22975  18.725   7.839   1.908 -0.1258  0.1375  0.4564
 6502W        W22976   9.220   6.086  14.826 -0.0768 -0.1433 -0.0147
 6503W        W22977  12.359   5.385  10.137 -0.3993  0.0349 -0.0956
 6504W        W22978   8.173   8.670   0.557 -0.2575  0.0795  0.1103
 6505W        W22979  11.846  19.057  10.664  0.0646 -0.1774  0.0429
 6506W        W22980   4.714   6.482   5.246  0.4320 -0.3612 -0.2648
 6507W        W22981   1.300  12.265  13.916  0.0646  0.1006  0.0968
 6508W        W22982   1.214  11.229  10.985 -0.1031 -0.3040 -0.0871
 6509W        W22983   3.402   9.592  12.977  0.0512 -0.1435  0.0335
 6510W        W22984   0.873  11.272   0.133 -0.2192  0.1646 -0.1164
 6511W        W22985   2.727  11.628  10.549 -0.0941 -0.0457 -0.1084
 6512W        W22986   8.294  12.985  14.842 -0.0886  0.2887 -0.0381
 6513W        W22987   6.285  19.088  13.078 -0.0107  0.2893 -0.3786
 6514W        W22988  10.198  13.007  14.165 -0.0800 -0.0144  0.0778
 6515W        W22989  13.514   2.312   4.404 -0.2300  0.1159  0.1185
 6516W        W22990   9.343   3.424   4.830  0.0288 -0.0466  0.0292
 6517W        W22991  13.022   5.119   3.844 -0.1680 -0.1939 -0.3097
 6518W        W22992   9.146  17.364   3.162 -0.0691 -0.0178 -0.2316
 6519W        W22993   8.702   7.252  14.215 -0.2901  0.2868  0.2488
 6520W        W22994  15.530  15.040  11.839 -0.1062 -0.1523 -0.2377
 6521W        W22995   9.002  15.995  14.932 -0.3356  0.1504 -0.1253
 6522W        W22996   4.341   2.707   3.592 -0.0568  0.0768 -0.1295
 6523W        W22997  18.358  14.764  14.732  0.1877  0.1266  0.2535
 6524W        W22998  15.433   8.208   2.828  0.1216 -0.3934 -0.1188
 6525W        W22999  17.825  19.125   2.724  0.0734 -0.1015  0.0313
 6526W        W23000  14.680   6.526   0.251 -0.0776  0.0180 -0.1412
 6527W        W23001  18.648  14.954  13.440 -0.2721  0.2232  0.0767
 6528W        W23002   8.461  11.847  13.947  0.0815 -0.1118 -0.0769
 6529W        W23003  12.230   1.866   0.323 -0.1122  0.0414 -0.1790
 6530W        W23004  18.673   6.237   3.432  0.1740 -0.4295 -0.0424
 6531W        W23005  10.949   0.682   3.504 -0.0064  0.4060 -0.0122
 6532W        W23006  18.851   5.943  12.210 -0.1395 -0.3308  0.0110
 6533W        W23007  15.373   1.881  12.789  0.2245 -0.2966 -0.1212
 6534W        W23008   6.296  10.933  11.462  0.1303 -0.1827 -0.2791
 6535W        W23009  13.965  13.272   2.933  0.2940  0.0369  0.0817
 6536W        W23010  10.590   9.954  12.572 -0.0427 -0.0045  0.1944
 6537W        W23011   0.656  17.125  14.427 -0.2210 -0.2536  0.2349
 6538W        W23012  10.041  14.517  12.203 -0.0917  0.1018  0.1116
 6539W        W23013   1.643   9.900  13.407 -0.0714 -0.2869 -0.0728
 6540W        W23014   9.782   2.865  14.321 -0.0511 -0.2514  0.1183
 6541W        W23015  13.120  14.979   1.298 -0.0350  0.1589 -0.3145
 6542W        W23016  17.353   4.433  11.713 -0.2343 -0.1912 -0.1177
 6543W        W23017   9.388   4.941   2.615  0.3030 -0.2346  0.2076
 6544W        W23018   5.159  16.787   3.330  0.0717 -0.1239 -0.3034
 6545W        W23019   8.355  10.725  12.290 -0.2420 -0.1552 -0.1279
 6546W        W23020  15.792  13.450  13.301  0.1745  0.2533 -0.1986
 6547W        W23021   3.801   7.808  10.529 -0.0831  0.0589 -0.0857
 6548W        W23022  12.969  18.648   3.138 -0.0594  0.1489 -0.2389
 6549W        W23023  17.529   1.544  12.226  0.0189 -0.3385  0.0977
 6550W        W23024   8.917   1.066  11.993  0.1155 -0.1609  0.0763
 6551W        W23025   1.390   1.026  10.718 -0.1421 -0.0545 -0.3117
 6552W        W23026  13.427   9.182   5.612  0.1048 -0.0881  0.1951
 6553W        W23027  16.976   1.469   0.177  0.0423  0.2692 -0.2411
 6554W        W23028  16.303   2.201   3.144  0.1124  0.2477  0.1578
 6555W        W23029  11.673   3.740  12.659  0.1914  0.1227 -0.0954
 6556W        W23030   2.985  10.741  13.957 -0.1060  0.1497  0.2043
 6557W        W23031  13.820  12.191   5.173  0.2057 -0.1261 -0.0149
 6558W        W23032   6.538   6.628   0.102 -0.0582  0.0283 -0.5326
 6559W        W23033  17.109  17.577   3.137  0.0239 -0.1193 -0.1944
 6560W        W23034   1.655  14.815  14.240  0.1121 -0.0396  0.0737
 6561W        W23035  10.505   1.191   0.821 -0.0446 -0.0693 -0.2624
 6562W        W23036  12.145   1.767   2.211  0.2176  0.2711 -0.1141
 6563W        W23037   4.539  11.350   4.255  0.0476 -0.0480  0.4106
 6564W        W23038   6.819   4.014  13.695 -0.0316  0.1596 -0.2586
 6565W        W23039   4.548  12.701  15.150  0.1962 -0.3388 -0.1350
 6566W        W23040   9.109   7.121  13.304  0.3310 -0.1117 -0.0139
 6567W        W23041   5.518   4.277  10.940  0.0680  0.0554 -0.1757
 6568W        W23042   7.155  17.118   4.396 -0.0519 -0.2214  0.3573
 6569W        W23043  17.966  13.320   3.103 -0.0770 -0.2063  0.0232
 6570W        W23044  14.801  14.442   0.410 -0.1012  0.0586 -0.1864
 6571W        W23045  18.332   4.262  13.855  0.0996 -0.0430 -0.0088
 6572W        W23046  12.288  14.420  15.106  0.2188 -0.1316  0.1205
 6573W        W23047  15.725  18.204  12.802  0.2868  0.2199 -0.0375
 6574W        W23048   4.601  11.167   5.154 -0.4058  0.0796 -0.1650
 6575W        W23049   2.513  15.445   0.113  0.1355 -0.0748 -0.0803
 6576W        W23050   1.017   0.909  14.038 -0.1785  0.0195  0.0983
 6577W        W23051  13.009   2.911  15.027 -0.3548  0.1000  0.1460
 6578W        W23052  18.386   9.333  14.270  0.0162  0.0945 -0.1344
 6579W        W23053   2.525  16.107   1.567  0.1243  0.2064  0.2062
 6580W        W23054  17.723  10.739  11.016  0.4632 -0.1265 -0.1407
 6581W        W23055   2.565   9.164  11.293  0.0403  0.0748 -0.0740
 6582W        W23056   2.371  15.369  13.682 -0.2307  0.0894  0.0244
 6583W        W23057  16.778   0.920   2.959  0.3723 -0.1377  0.1221
 6584W        W23058   7.807   5.592   4.242 -0.1141 -0.1592  0.1582
 6585W        W23059  16.355   2.549   1.148  0.1226  0.0789 -0.2788
 6586W        W23060   9.648   7.341  14.057  0.1372 -0.2171 -0.0498
 6587W        W23061  15.415  10.661   4.409  0.1381  0.1499 -0.1720
 6588W        W23062  14.455   6.431   4.040 -0.1798 -0.0677 -0.3512
 6589W        W23063  17.609  18.187   1.332  0.0341 -0.2967 -0.1006
 6590W        W23064   9.816   0.219  10.379 -0.1828  0.0473 -0.4013
 6591W        W23065   1.159   0.728   3.082  0.1023 -0.1766 -0.3221
 6592W        W23066   4.870   1.603  13.091  0.2752 -0.1849 -0.3057
 6593W        W23067   9.857   7.743  13.266 -0.2228 -0.0429  0.0776
 6594W        W23068   0.438   8.054  13.405 -0.1392  0.0179  0.0576
 6595W        W23069   3.263   9.099  14.629  0.2716  0.0174  0.2917
 6596W        W23070   6.804  14.974   0.840 -0.2020  0.0012 -0.0991
 6597W        W23071  15.654  15.683   2.885  0.0631  0.1326  0.1173
 6598W        W23072  18.432  13.263  14.779 -0.4213  0.2712 -0.0330
 6599W        W23073   7.783  16.893  13.504 -0.1653 -0.1094  0.2034
 6600W        W23074  17.099   5.336   0.499 -0.0244 -0.0216  0.3262
 6601W        W23075   0.604  12.808   4.698  0.1270 -0.3686  0.0192
 6602W        W23076   6.518  12.150  14.640  0.0515 -0.0727  0.1641
 6603W        W23077  15.535   6.754   5.137 -0.1328  0.0725  0.1579
 6604W        W23078  10.574   1.016   2.066  0.1999 -0.0456  0.4749
 6605W        W23079  12.441  13.676  13.332  0.0004  0.2207  0.4093
 6606W        W23080   6.490   1.316   4.432  0.1058  0.1354 -0.1304
 6607W        W23081   6.940  12.995   3.488 -0.1522  0.0901  0.0723
 6608W        W23082  10.765  17.727  13.866  0.0497 -0.1205 -0.0576
 6609W        W23083  15.653   6.698   2.251  0.1019  0.2449 -0.2588
 6610W        W23084   7.782  19.159  12.596 -0.2664 -0.0919 -0.0376
 6611W        W23085   8.608   4.537  12.205 -0.0905  0.1181 -0.2384
 6612W        W23086  17.149  14.176   2.335 -0.0736  0.1787 -0.4083
 6613W        W23087  11.750  17.490  13.941  0.4647  0.1778  0.1387
 6614W        W23088   6.026  13.985  12.262  0.2038  0.0470 -0.1932
 6615W        W23089  11.014   8.710   1.040 -0.1670 -0.0115  0.3353
 6616W        W23090   3.157   9.896   0.985 -0.2173  0.1050 -0.4572
 6617W        W23091   9.640   0.516   3.978  0.1010  0.1916  0.4679
 6618W        W23092  14.598   5.500   3.835  0.2182  0.1167  0.0372
 6619W        W23093   0.359  17.701   2.560 -0.0766  0.1526 -0.2682
 6620W        W23094   1.814   2.425   5.187 -0.3226  0.1818  0.3869
 6621W        W23095   3.026   5.975   2.738 -0.3254 -0.0608  0.0624
 6622W        W23096  18.160  17.245  13.320  0.0462 -0.0026 -0.0688
 6623W        W23097  12.110  10.148   4.800  0.1155  0.2718  0.0206
 6624W        W23098   2.655  18.546   1.436  0.1894 -0.1618  0.0049
 6625W        W23099   8.442  16.595  14.940  0.0654 -0.0605 -0.1428
 6626W        W23100   3.985   4.876  11.658 -0.1800 -0.1485  0.2904
 6627W        W23101  10.111   0.115  11.161 -0.0034 -0.2513  0.2851
 6628W        W23102   4.140   4.208  12.294  0.0225 -0.2558 -0.2002
 6629W        W23103   6.295  12.052   3.869 -0.0771 -0.3956  0.2132
 6630W        W23104   5.378   9.116  14.453 -0.3975  0.1326 -0.0706
 6631W        W23105  16.872  16.453   4.668 -0.1976  0.0900  0.1733
 6632W        W23106  16.528  15.969   9.212 -0.4029  0.1153  0.1509
 6633W        W23107   9.854  13.344  10.288 -0.0112  0.3157  0.0516
 6634W        W23108  18.854  12.836  14.169  0.3798 -0.1248  0.1521
 6635W        W23109   6.788  18.757   9.983 -0.0420 -0.2358  0.3169
 6636W        W23110  15.414   9.428   0.678  0.1150  0.0762  0.3213
 6637W        W23111   1.557   8.728  10.669  0.0936  0.1603 -0.4063
 6638W        W23112  14.593  12.070   0.840  0.0142  0.1193 -0.2409
 6639W        W23113   3.758  14.245  11.945  0.1266 -0.0709  0.2000
 6640W        W23114  12.670  18.342  10.846 -0.0788  0.1852  0.1656
 6641W        W23115   6.508   9.701   4.840 -0.0741 -0.2123  0.0834
 6642W        W23116   0.235  18.600   0.446  0.1261  0.1692 -0.0480
 6643W        W23117  15.710  17.315   3.559  0.1062  0.2163 -0.1954
 6644W        W23118  15.260   8.767   2.803  0.0357 -0.0953 -0.1425
 6645W        W23119   3.657  15.042   5.092 -0.2113 -0.0608 -0.0106
 6646W        W23120   1.358   6.345   1.453 -0.1542  0.2805  0.1093
 6647W        W23121   0.681  18.113  13.443  0.2165  0.0666  0.1609
 6648W        W23122   5.535   0.196   1.890 -0.1931 -0.0101 -0.1326
 6649W        W23123   7.621   0.869   2.069  0.2214 -0.2543 -0.1329
 6650W        W23124   0.482  17.992  10.521  0.3340 -0.2948 -0.0354
 6651W        W23125   2.492   2.672   0.122 -0.0727  0.3023  0.1985
 6652W        W23126  14.382  12.059   5.143 -0.2089  0.0456  0.0994
 6653W        W23127   6.384  12.243   0.581 -0.2820  0.1107 -0.1311
 6654W        W23128  14.317  15.254  14.726  0.1185 -0.0515 -0.2244
 6655W        W23129  14.524   4.258   4.226  0.0765  0.4337 -0.2046
 6656W        W23130   9.668  13.474  15.033 -0.2827 -0.0716 -0.3266
 6657W        W23131  10.002  12.634  13.822  0.2735 -0.0195 -0.0028
 6658W        W23132  18.908   7.194   1.107 -0.0576 -0.1320 -0.3974
 6659W        W23133  15.858   8.498  10.596  0.3780 -0.2727 -0.0275
 6660W        W23134  18.662   1.196   3.668 -0.0488  0.1951  0.0486
 6661W        W23135   1.550   2.876   3.775  0.0757  0.1759 -0.1440
 6662W        W23136   0.475   5.501   1.860  0.1291 -0.1196 -0.2505
 6663W        W23137  11.715   5.783  11.252 -0.2033 -0.0832 -0.1754
 6664W        W23138   1.852   1.207   4.523  0.3234  0.1972  0.0109
 6665W        W23139  16.679   4.771  13.903  0.1118 -0.0034 -0.1413
 6666W        W23140   8.441   6.068  13.828 -0.3688 -0.1330  0.1784
 6667W        W23141   5.002  15.943   5.002 -0.0062  0.0511  0.0083
 6668W        W23142  14.448   8.233  14.225  0.2234  0.1425  0.2864
 6669W        W23143   7.163   7.828   0.257  0.0314  0.0715 -0.0137
 6670W        W23144   3.656  15.196   0.454  0.1837 -0.0529 -0.3265
 6671W        W23145   0.984  11.092  12.025 -0.0195 -0.2643 -0.3518
 6672W        W23146   6.175   3.327   3.176 -0.3017 -0.0237 -0.2728
 6673W        W23147   9.324   5.171   1.677 -0.1342  0.0029 -0.1889
 6674W        W23148   1.890   6.743   4.502  0.1033 -0.0034 -0.0345
 6675W        W23149  15.156  12.474   5.057  0.0457 -0.0300 -0.1191
 6676W        W23150   9.687  16.516   5.870 -0.2361 -0.3227  0.4123
 6677W        W23151   0.557   6.353   4.890 -0.2584  0.0988 -0.0734
 6678W        W23152  16.533   9.640  12.125 -0.0076 -0.4312 -0.2254
 6679W        W23153  13.931  14.124   3.283  0.1034  0.3973 -0.0494
 6680W        W23154  18.422   8.193   1.152  0.1055  0.1247  0.2332
 6681W        W23155   8.426   5.577  13.810 -0.2597  0.1707 -0.1540
 6682W        W23156   5.319  11.177  13.218  0.0231  0.2173 -0.0013
 6683W        W23157  12.581  10.311  11.198 -0.2222 -0.0596  0.0445
 6684W        W23158   2.675  10.532  12.573 -0.0155 -0.1072 -0.3375
 6685W        W23159   6.857   1.972  12.606 -0.0544  0.0593 -0.4656
 6686W        W23160  14.238  12.161  13.209 -0.0923 -0.0417 -0.1769
 6687W        W23161  13.124   8.371  11.866 -0.1444  0.0729  0.1552
 6688W        W23162   2.070   4.994  11.995  0.4434 -0.0740  0.0776
 6689W        W23163   2.402   6.570   0.903 -0.1551 -0.1608  0.1289
 6690W        W23164  18.769  10.017  11.670  0.2059 -0.2774  0.0281
 6691W        W23165  11.787   9.104  14.832  0.0947  0.2004  0.1961
 6692W        W23166  15.413  18.420  11.122 -0.2999  0.4348  0.0512
 6693W        W23167   6.568  12.604   5.104  0.1904  0.2627 -0.1127
 6694W        W23168  10.808   1.097   3.365 -0.0658 -0.1866  0.1414
 6695W        W23169  16.132   4.507  12.368  0.1844  0.2194  0.1683
 6696W        W23170   6.369   1.945  12.416 -0.1717  0.0611  0.0324
 6697W        W23171  16.461   9.846  13.241  0.2645  0.1960 -0.0150
 6698W        W23172  13.610   9.364  12.613  0.1172  0.3138 -0.0674
 6699W        W23173   3.247   3.348   5.383 -0.0545  0.0419 -0.0203
 6700W        W23174   3.167   0.321   5.458 -0.3723  0.0847  0.1442
 6701W        W23175  17.784  14.387  13.544 -0.1177 -0.0049 -0.2163
 6702W        W23176   1.467   3.407  13.146  0.0825 -0.1425  0.1388
 6703W        W23177   2.385   1.504   4.329 -0.1788  0.1626 -0.2142
 6704W        W23178   2.526   9.844   3.394  0.1301 -0.0813 -0.0385
 6705W        W23179  13.008  15.055   1.808 -0.2694  0.0043  0.1720
 6706W        W23180  17.769   3.155  13.763 -0.0770  0.0843 -0.2030
 6707W        W23181   3.200  14.462   4.624 -0.4100  0.3468 -0.0506
 6708W        W23182  13.767   6.459   2.201  0.0941 -0.0689  0.3135
 6709W        W23183   9.919  13.292   1.792  0.0896  0.0755  0.0526
 6710W        W23184   2.069   8.365  11.527  0.0364 -0.0858 -0.0556
 6711W        W23185  17.198  16.982  12.769  0.0163 -0.2374  0.2225
 6712W        W23186   4.327  13.626  12.701 -0.0684  0.1612 -0.0326
 6713W        W23187   9.121   2.154  14.527 -0.3965  0.0011 -0.2478
 6714W        W23188  15.950  17.801  11.794  0.0404  0.0483 -0.1406
 6715W        W23189   0.817  17.007   0.517  0.3426  0.0850  0.1463
 6716W        W23190   8.026  18.491   2.881  0.2385 -0.0010 -0.1391
 6717W        W23191  18.261   4.217  13.344 -0.1514 -0.0669  0.1345
 6718W        W23192   5.902  16.923   4.188  0.1623 -0.0320 -0.2305
 6719W        W23193   7.404  11.057  13.477 -0.0370 -0.0532  0.2476
 6720W        W23194  12.856  17.470   4.761 -0.3512  0.0636  0.0134
 6721W        W23195  16.519   9.875  14.512  0.0059  0.1448  0.1344
 6722W        W23196   9.707   0.685  15.038  0.1741  0.2162 -0.1022
 6723W        W23197   8.622  11.199  14.701  0.0508  0.1099 -0.0578
 6724W        W23198  10.054   0.881   0.691 -0.1445 -0.3353  0.1258
 6725W        W23199  13.003   9.570  13.960  0.1632 -0.0807 -0.0713
 6726W        W23200  14.289  15.123   0.492 -0.0767  0.3502 -0.1720
 6727W        W23201   2.157  13.165   3.259  0.0365  0.0945  0.0889
 6728W        W23202   2.881   7.534  13.398  0.2460  0.3253  0.0605
 6729W        W23203   6.105   7.797   1.276  0.0756  0.1309 -0.1587
 6730W        W23204  17.153  11.028  14.719 -0.2321 -0.4414  0.0251
 6731W        W23205   6.045   2.706   3.942 -0.3586 -0.1669  0.1999
 6732W        W23206   2.090  15.506  14.056 -0.0287  0.0188 -0.1695
 6733W        W23207  11.988   6.960   4.812 -0.1324  0.2202 -0.3163
 6734W        W23208   9.266  14.495   1.731  0.1142  0.2093 -0.2352
 6735W        W23209   9.363  14.971  14.213 -0.0974  0.0701  0.1569
 6736W        W23210  12.083  15.080   2.960  0.2623 -0.0600 -0.0100
 6737W        W23211  12.006   9.576   3.788  0.0512 -0.1358 -0.3596
 6738W        W23212  15.550  12.441   0.698  0.2505  0.2432 -0.0625
 6739W        W23213   5.087   6.401   1.133 -0.0560  0.1519 -0.1607
 6740W        W23214  10.842  12.153  10.810  0.0451 -0.1257 -0.1669
 6741W        W23215   3.161  10.352   3.333 -0.1450 -0.0169  0.0060
 6742W        W23216  19.008   8.875   3.436 -0.1357 -0.0795 -0.2239
 6743W        W23217   0.504  10.164  12.037 -0.1736  0.0418 -0.0758
 6744W        W23218  13.588  17.930  12.331 -0.1057 -0.0270  0.1144
 6745W        W23219  14.803  13.211  12.192  0.0414 -0.2001  0.1195
 6746W        W23220   6.062   3.972   4.293 -0.0471 -0.0063 -0.2056
 6747W        W23221   4.427   8.419  14.154  0.1704 -0.0092 -0.2681
 6748W        W23222   6.543   6.771  10.678  0.2080  0.0859 -0.1237
 6749W        W23223   1.422  13.476   3.864 -0.0335 -0.0782  0.2542
 6750W        W23224  13.862   0.768  11.004  0.3076  0.3437  0.0431
 6751W        W23225   1.974  12.625   1.248  0.2566 -0.0289  0.0334
 6752W        W23226   4.226  18.334   2.374 -0.0870  0.0610 -0.1192
 6753W        W23227   5.907   2.344   1.777  0.0278 -0.2034  0.2764
 6754W        W23228  17.742  15.246   2.540 -0.0500 -0.1558  0.2050
 6755W        W23229   4.027  17.346   4.560 -0.1760 -0.0991 -0.2101
 6756W        W23230   7.233   1.444   3.322 -0.0653 -0.0273 -0.0536
 6757W        W23231  15.220  18.840   3.069 -0.1067 -0.0565 -0.0475
 6758W        W23232   9.291   9.243   9.857 -0.3034 -0.0689 -0.2927
 6759W        W23233   4.791   8.362   1.422 -0.1035 -0.0530  0.0410
 6760W        W23234   2.954  17.266   3.074 -0.0235 -0.0851 -0.1192
 6761W        W23235   1.008   7.936  13.937  0.0284 -0.2782 -0.0996
 6762W        W23236   9.574   4.771   0.532 -0.2810 -0.1468 -0.0022
 6763W        W23237   5.972   6.971   2.367  0.0111  0.2344  0.2460
 6764W        W23238  14.515  15.930   5.126  0.1033  0.0292 -0.0241
 6765W        W23239   6.604   8.699   4.912 -0.1014  0.0503 -0.1418
 6766W        W23240  15.704  15.195  14.263  0.2096 -0.1388 -0.0057
 6767W        W23241   9.392   1.388  14.581 -0.1792 -0.1221  0.1099
 6768W        W23242  13.557   3.749   2.396  0.3526  0.0400 -0.0628
 6769W        W23243   9.246   2.470   0.795 -0.2172 -0.1954  0.3772
 6770W        W23244   4.829   5.581  10.113  0.3605 -0.0549  0.1235
 6771W        W23245  14.191  13.127   0.233 -0.2015  0.4188  0.2248
 6772W        W23246  18.889  18.568   2.532 -0.3866  0.1599  0.0399
 6773W        W23247   1.428  14.914   2.126  0.0448 -0.1352  0.0292
 6774W        W23248   8.478   6.723  12.456 -0.0146  0.0753 -0.1112
 6775W        W23249  11.090   8.350  14.248  0.3655 -0.3197 -0.0285
 6776W        W23250   3.198  11.515  12.769  0.3886 -0.0490 -0.0810
 6777W        W23251   9.551   4.225   4.238 -0.0928 -0.1011  0.0039
 6778W        W23252   8.620  18.869   1.795  0.0995 -0.0182 -0.0934
 6779W        W23253  12.430  14.809  14.712 -0.3747 -0.1171 -0.0100
 6780W        W23254  13.358  12.679   1.150 -0.3175  0.1669 -0.0089
 6781W        W23255  16.152  16.234  11.112  0.0285  0.1092 -0.3765
 6782W        W23256   4.810  10.163  13.077  0.2604  0.2122 -0.0706
 6783W        W23257  18.270   1.009  11.150  0.0416 -0.4839  0.3775
 6784W        W23258  17.926   1.020   3.415  0.1831  0.1806 -0.1887
 6785W        W23259   4.199  10.080   1.267  0.0116 -0.4301  0.0193
 6786W        W23260   8.965  17.530  11.044  0.0251  0.2145  0.1635
 6787W        W23261  12.920  14.223  10.769 -0.1306  0.0317  0.0284
 6788W        W23262   4.410  17.413   0.168  0.0852  0.1330  0.1125
 6789W        W23263  12.262   8.171   9.874  0.0026 -0.3656 -0.1731
 6790W        W23264  15.496   7.590   4.307 -0.0603 -0.2684 -0.2224
 6791W        W23265   9.956   5.715   2.558 -0.0357  0.1404 -0.0716
 6792W        W23266  10.977  17.523   3.066  0.0025  0.2287  0.2782
 6793W        W23267  13.908  16.929   4.084 -0.0108 -0.1888 -0.0570
 6794W        W23268   4.789  12.888  13.314 -0.3715  0.1798 -0.3302
 6795W        W23269   7.168   7.067  12.144 -0.0752  0.1226  0.2042
 6796W        W23270  18.282  12.155  14.202 -0.0279 -0.0117 -0.1154
 6797W        W23271  11.734   2.627  10.646  0.0641 -0.1143 -0.0056
 6798W        W23272   5.976   3.613  10.585  0.2215 -0.0228  0.0839
 6799W        W23273   4.887  14.529   3.616  0.0713 -0.0720  0.1621
 6800W        W23274  11.350  12.466  14.330  0.1821  0.2699  0.3310
 6801W        W23275   0.021   9.386   9.464 -0.5444 -0.0628 -0.0471
 6802W        W23276   4.577  11.515   3.264 -0.3329  0.0979  0.1655
 6803W        W23277  18.441   2.101  11.926  0.1710 -0.0845 -0.3323
 6804W        W23278  10.307  14.874   1.686 -0.2439  0.1719  0.3158
 6805W        W23279  10.213  15.982   3.941  0.1064 -0.1194  0.0140
 6806W        W23280  11.366   1.334  13.688 -0.1477  0.1662 -0.0083
 6807W        W23281   2.434  10.432   4.472 -0.2614  0.1786 -0.0903
 6808W        W23282   7.522   8.038  13.970 -0.0252 -0.0497 -0.2221
 6809W        W23283   3.660   1.426   1.483  0.0039  0.0651  0.1074
 6810W        W23284   9.684   3.518   1.162  0.5881 -0.0448  0.0638
 6811W        W23285  14.793   7.824  12.452  0.1062  0.2303  0.1379
 6812W        W23286  17.891   5.932  13.471  0.1730  0.0263 -0.3216
 6813W        W23287   6.181   0.231  14.291 -0.2151 -0.2102  0.0572
 6814W        W23288  14.962   1.388  14.161  0.1451  0.0587  0.3002
 6815W        W23289  12.076   3.657   4.254  0.1226 -0.3569  0.2464
 6816W        W23290   4.115  15.233   2.217 -0.1025  0.0589  0.3787
 6817W        W23291   6.712   0.144   2.856 -0.0495 -0.1360  0.2218
 6818W        W23292  10.490  17.310   4.026  0.0880 -0.0387  0.0505
 6819W        W23293   3.601   5.779   0.856  0.3002 -0.4306  0.1534
 6820W        W23294  13.270  11.635   4.930 -0.0715  0.1025  0.1810
 6821W        W23295   7.284   2.576   3.975  0.1982  0.0648  0.2816
 6822W        W23296  12.966  15.767   3.514  0.1562 -0.1276  0.1333
 6823W        W23297  12.014  12.814   2.323 -0.2122  0.0667  0.0888
 6824W        W23298  13.161  12.307   1.559  0.2147  0.0325  0.2264
 6825W        W23299  17.191   9.131  11.511  0.0085 -0.1150  0.4763
 6826W        W23300  11.420   7.712   5.272 -0.1198  0.0733 -0.3738
 6827W        W23301   1.452  10.278   4.306  0.3041  0.1269 -0.2572
 6828W        W23302   0.373   9.137   1.235 -0.0917  0.1640 -0.1457
 6829W        W23303   1.691   7.775   0.039 -0.1629 -0.0598  0.0943
 6830W        W23304   1.020   3.615  11.565  0.0418  0.1598  0.1147
 6831W        W23305  11.252  17.900   4.146  0.0858  0.3063 -0.4403
 6832W        W23306   6.564  15.407  15.144  0.0635 -0.0188 -0.1215
 6833W        W23307  15.377  14.898   4.363  0.0321  0.2135  0.3148
 6834W        W23308  13.990   1.562  13.254 -0.3730  0.1117  0.3444
 6835W        W23309   5.511  10.354  14.132 -0.2374  0.0129  0.2851
 6836W        W23310  12.525   1.143  11.427  0.1952 -0.2831 -0.0292
 6837W        W23311  16.865   0.487   3.854  0.1255 -0.0930 -0.0799
 6838W        W23312   8.371   2.223  10.709  0.1133  0.3061 -0.0066
 6839W        W23313  16.383   4.279  12.823 -0.1697 -0.1914  0.2615
 6840W        W23314   0.786   9.099  12.522 -0.0950 -0.0306  0.0615
 6841W        W23315  12.174   6.181  11.495 -0.0265 -0.6095  0.0327
 6842W        W23316  13.004   3.792   0.235 -0.0863  0.1239 -0.1234
 6843W        W23317  15.274   8.583  11.886 -0.1312  0.1481 -0.3134
 6844W        W23318   9.996   1.204  12.885  0.2657 -0.1113  0.1006
 6845W        W23319   1.539   2.488   2.822 -0.0833 -0.1541 -0.1543
 6846W        W23320   8.649   2.592  13.748 -0.1969  0.2846  0.1374
 6847W        W23321  17.234   1.210   3.082  0.0491  0.0178 -0.2619
 6848W        W23322   6.626   0.577  11.789  0.0204 -0.0266 -0.4492
 6849W        W23323   4.962   5.931   1.870  0.2430  0.0067  0.2841
 6850W        W23324  15.254  16.479   2.691 -0.1330  0.0868 -0.0622
 6851W        W23325   7.514   2.985   0.144  0.2159  0.1217 -0.0782
 6852W        W23326   1.468  12.085   1.596 -0.0186  0.0900  0.3634
 6853W        W23327  11.321   4.788   2.087 -0.2521  0.0396  0.0958
 6854W        W23328  14.240  18.338  12.643 -0.1224  0.0916 -0.1585
 6855W        W23329   0.064   9.307  14.449 -0.2799  0.2018 -0.2275
 6856W        W23330  10.389  18.964  11.910 -0.1104  0.0003 -0.1307
 6857W        W23331  16.845   4.041  10.457  0.1276 -0.2420 -0.0680
 6858W        W23332  14.913   5.952   1.807 -0.0365  0.1489 -0.0509
 6859W        W23333  11.405   8.243   9.999  0.0390 -0.0951  0.0960
 6860W        W23334   4.412  18.309   2.818 -0.0922  0.1205  0.1067
 6861W        W23335   7.026  10.466  14.036  0.2760  0.3017  0.1850
 6862W        W23336   0.526   9.325  14.349 -0.1253 -0.0989 -0.1418
 6863W        W23337   4.241  11.854   4.342  0.1921  0.2916  0.2351
 6864W        W23338  12.627  16.396  12.797  0.4170  0.0034 -0.1507
 6865W        W23339  11.439  10.964  11.631 -0.2707 -0.0842  0.0436
 6866W        W23340   2.626   0.280   3.348  0.1645 -0.2180 -0.1504
 6867W        W23341   4.845  10.736  11.690 -0.3032  0.0902 -0.0134
 6868W        W23342  18.580   8.755  13.455 -0.0356  0.2211  0.1362
 6869W        W23343   7.315  13.467   4.876 -0.0801  0.3690  0.0677
 6870W        W23344  11.305  18.403  10.454 -0.0955 -0.2312 -0.2253
 6871W        W23345  10.550   0.944   0.419  0.1407 -0.0534 -0.0609
 6872W        W23346   5.555  14.966   0.020 -0.2154 -0.0375  0.0464
 6873W        W23347  10.572   5.417   0.012  0.3179  0.0770  0.0208
 6874W        W23348  13.926   5.956  11.281 -0.0825  0.0366  0.0566
 6875W        W23349  11.629   7.061  12.835  0.2050 -0.1182  0.0946
 6876W        W23350   8.143  14.664  14.865 -0.3404  0.0357  0.0784
 6877W        W23351  17.739   8.039  11.219  0.0151  0.2316  0.0016
 6878W        W23352   4.754   1.744   2.357  0.2942 -0.2019 -0.1448
 6879W        W23353   5.481  13.676   2.098  0.1518  0.0899 -0.1216
 6880W        W23354   9.862  18.059   0.244  0.1818  0.5099 -0.0457
 6881W        W23355   4.658   7.926  10.170 -0.0580  0.1203  0.1074
 6882W        W23356  13.333   3.961  11.410  0.0278  0.3137 -0.2812
 6883W        W23357   3.286   8.658  12.379 -0.1258  0.1419 -0.2174
 6884W        W23358  19.104  18.500   2.070  0.2183 -0.4075 -0.2037
 6885W        W23359   9.972  12.098  12.438  0.2346  0.0221 -0.1327
 6886W        W23360  13.334  17.920  11.450  0.0822 -0.2775  0.1724
 6887W        W23361  16.895  10.615  10.536  0.0554 -0.3661 -0.0620
 6888W        W23362  12.530   4.596   4.333  0.0146  0.0782  0.1040
 6889W        W23363  15.411   0.139   1.641 -0.0050  0.3039  0.0428
 6890W        W23364   7.661   0.769   4.625  0.3309  0.1312  0.0380
 6891W        W23365  15.736   0.586   0.903  0.1935  0.6277  0.2348
 6892W        W23366  15.527   9.604   2.449  0.1772 -0.0126  0.3154
 6893W        W23367   2.700  16.607  10.738 -0.2292  0.0818 -0.0909
 6894W        W23368   2.768   5.417   0.553 -0.1332  0.5403  0.0464
 6895W        W23369   2.706   2.399   4.375 -0.1194 -0.0560 -0.0855
 6896W        W23370   6.349   0.732  14.118  0.0777  0.1914  0.0319
 6897W        W23371  11.060   6.141  12.280  0.2367 -0.2547  0.1062
 6898W        W23372   9.290  13.247   5.150 -0.1441  0.0864  0.2733
 6899W        W23373  10.796   0.001  12.166  0.1157 -0.3456  0.0861
 6900W        W23374   2.738  17.826   4.525  0.0568 -0.0848  0.2122
 6901W        W23375   8.695   4.823  12.771  0.5499  0.0447  0.2468
 6902W        W23376   5.436  14.347   1.415 -0.2134 -0.0130 -0.3600
 6903W        W23377   2.018   4.547   2.966 -0.0514  0.2152  0.2104
 6904W        W23378   0.237   7.919  14.349 -0.0693 -0.0211  0.1708
 6905W        W23379   9.729  15.611   4.075 -0.0640  0.0225 -0.0061
 6906W        W23380  12.257  18.066   3.280  0.2563  0.0712 -0.1951
 6907W        W23381   4.717   5.247   1.478 -0.0162  0.3228 -0.2290
 6908W        W23382   2.712   6.559  11.858 -0.3893  0.1486  0.1648
 6909W        W23383  17.575   8.578   0.700 -0.1031 -0.3066 -0.0299
 6910W        W23384  11.846  10.685  12.498 -0.1121  0.2943  0.3212
 6911W        W23385   0.894   4.685   5.395  0.0563 -0.1084  0.0230
 6912W        W23386  14.690   0.013   2.020 -0.0147  0.2401 -0.1148
 6913W        W23387  16.019   4.308  15.129 -0.0177  0.1884 -0.1795
 6914W        W23388   4.670   3.188  11.419 -0.2136  0.2341  0.0707
 6915W        W23389  14.521   4.909  11.427  0.2804  0.0465  0.2929
 6916W        W23390  11.281  15.966  14.085  0.1990 -0.0435  0.1323
 6917W        W23391   4.561   3.209  12.672 -0.2257  0.0482 -0.0338
 6918W        W23392  18.010   7.815   2.515  0.2681 -0.0824  0.5485
 6919W        W23393  17.478   5.689   2.363 -0.0743  0.1932 -0.1655
 6920W        W23394   9.117   1.578  13.703 -0.2211 -0.2568  0.0948
 6921W        W23395  11.422  12.680   4.773 -0.1111 -0.4242 -0.3373
 6922W        W23396  11.844  17.744  11.753  0.0121  0.1220 -0.1221
 6923W        W23397   2.407  18.113   0.677 -0.2563  0.0719  0.1210
 6924W        W23398   1.583  11.636  12.703  0.0171 -0.1126 -0.1939
 6925W        W23399   6.228   6.458   5.134 -0.1364  0.1248  0.0787
 6926W        W23400   6.690  18.395  12.262 -0.0651  0.0139 -0.1207
 6927W        W23401   2.435   9.480   9.234  0.4782  0.4169 -0.2794
 6928W        W23402  18.024  16.539  13.044  0.0393  0.1356 -0.3364
 6929W        W23403   0.096   6.193   4.218  0.2714  0.3326  0.0757
 6930W        W23404   3.975  13.687   1.615 -0.1046 -0.1891 -0.4209
 6931W        W23405  17.587   5.725  11.248  0.3533 -0.0112  0.3257
 6932W        W23406   7.540   1.764  12.745  0.1270 -0.1180 -0.0767
 6933W        W23407   0.169  16.497  14.524  0.2984 -0.0389 -0.3654
 6934W        W23408   6.694   8.860  14.550  0.1187 -0.2312  0.0447
 6935W        W23409   7.995  13.051  14.379 -0.2263  0.0501  0.3370
 6936W        W23410   6.615  19.115   5.131  0.0164  0.2875  0.0286
 6937W        W23411   2.369   7.209   2.553 -0.0802  0.1350  0.2850
 6938W        W23412  15.667  10.117  14.624  0.1140 -0.1043 -0.0039
 6939W        W23413   9.303  16.259  11.447 -0.1041  0.0130 -0.0294
 6940W        W23414  13.930   6.405  13.271  0.2105 -0.2798 -0.2548
 6941W        W23415  12.270  13.592  10.949 -0.6079  0.3007 -0.1126
 6942W        W23416   2.334  18.989   4.198  0.2850  0.2238 -0.1517
 6943W        W23417   1.541   6.028   0.040 -0.0095  0.2359 -0.1725
 6944W        W23418  13.301  15.322   3.812 -0.0324  0.1169  0.1346
 6945W        W23419  17.072  12.592  12.906  0.1756 -0.2103  0.0028
 6946W        W23420   0.403  12.528  14.153 -0.0067 -0.1722 -0.2202
 6947W        W23421  15.177   2.262  10.600  0.1663  0.0351  0.0337
 6948W        W23422  16.541  10.438   4.776 -0.1089 -0.1231  0.0839
 6949W        W23423   8.844   0.611  12.140  0.1271 -0.2401 -0.2789
 6950W        W23424  16.871  18.161   2.124  0.1937 -0.2058  0.0534
 6951W        W23425   8.364  12.397  14.833  0.1446  0.0883  0.3173
 6952W        W23426  16.457   9.678   4.040 -0.1761  0.0147 -0.1876
 6953W        W23427  13.278   4.203  10.961  0.1924  0.1021 -0.0673
 6954W        W23428   1.379  11.535  11.982  0.0664 -0.0989 -0.2641
 6955W        W23429   2.194  15.605   1.168  0.0745 -0.0570 -0.1102
 6956W        W23430   0.799  16.079   4.071  0.0070  0.3823 -0.1164
 6957W        W23431   6.064   2.044  10.843  0.0887  0.1894  0.0178
 6958W        W23432   6.207   6.298  14.312  0.2869  0.3366  0.1759
 6959W        W23433   8.681   4.267  14.936  0.0526 -0.1557  0.2336
 6960W        W23434  11.049  12.905  14.082 -0.1975 -0.1083  0.2952
 6961W        W23435  17.152   3.777   0.470  0.0781  0.1792  0.1192
 6962W        W23436   2.787  13.379   4.290  0.0107  0.1885  0.0562
 6963W        W23437   0.406  19.145   0.526 -0.1964  0.1433 -0.2344
 6964W        W23438   3.399  16.128  11.054 -0.2140  0.0561 -0.1522
 6965W        W23439  18.971   7.086  14.934 -0.1771 -0.0541 -0.1099
 6966W        W23440  14.473   5.505  15.127  0.1398 -0.0789  0.2772
 6967W        W23441  13.096   2.223   2.495  0.0639 -0.3840 -0.0146
 6968W        W23442  10.387  12.393  14.334 -0.0065 -0.1076  0.1448
 6969W        W23443  11.502  13.225  14.189  0.0392 -0.2075 -0.0527
 6970W        W23444  12.491   6.798   4.293 -0.1939  0.0041 -0.1017
 6971W        W23445  12.272   5.636   0.323  0.0740 -0.2529  0.0157
 6972W        W23446   9.933  15.859  10.869  0.0214  0.2305 -0.1955
 6973W        W23447   3.979   9.426   4.155  0.2811  0.1658  0.1151
 6974W        W23448   7.540  18.089   3.509  0.2839 -0.1209  0.1051
 6975W        W23449   8.025   8.953   3.421  0.2187  0.1908  0.0113
 6976W        W23450   1.593   8.028   2.242  0.0717  0.1932 -0.0068
 6977W        W23451  12.583  11.378   1.980  0.0363 -0.2440 -0.1024
 6978W        W23452  14.244   6.886  12.357 -0.2393  0.2237  0.0336
 6979W        W23453  15.354  11.883   3.117 -0.3135 -0.1495 -0.1890
 6980W        W23454   2.246  15.938   4.492  0.3489 -0.1537  0.0339
 6981W        W23455  10.867  13.913  10.790 -0.2372 -0.2324 -0.0922
 6982W        W23456   0.934   1.599  11.049 -0.0894  0.2819 -0.0013
 6983W        W23457  15.359   2.567  13.351  0.2976  0.2536  0.2431
 6984W        W23458  15.673  17.393   5.050 -0.3829  0.0619  0.1444
 6985W        W23459   7.967  15.011   1.501 -0.2638  0.2824  0.1454
 6986W        W23460  14.426  17.513  13.009 -0.0222 -0.2339 -0.2531
 6987W        W23461   9.506   3.294   0.225 -0.0878 -0.1786  0.0371
 6988W        W23462   1.150   9.682  13.282  0.1840 -0.0735  0.0179
 6989W        W23463  13.266   4.499  11.411 -0.0118 -0.2688  0.0131
 6990W        W23464  12.887   1.583  13.049  0.1340  0.1410  0.1234
 6991W        W23465  12.700   0.227  12.620  0.1096  0.0021 -0.1987
 6992W        W23466   4.618   7.527  13.434  0.0474  0.1041 -0.1402
 6993W        W23467  12.286  17.247  10.254  0.2063 -0.1933  0.1172
 6994W        W23468   5.565   3.419  11.216 -0.0086  0.1725  0.1000
 6995W        W23469   6.786   9.936   4.262 -0.1804 -0.1351  0.2816
 6996W        W23470   1.901   3.651  11.235  0.0713  0.1314 -0.1204
 6997W        W23471   3.203  17.463   1.873 -0.2059 -0.1835 -0.0334
 6998W        W23472  12.340   5.281  10.899  0.5429 -0.1803 -0.0802
 6999W        W23473   1.708   3.886  13.345  0.2583 -0.2685  0.2804
 7000W        W23474   9.373  12.855   3.291 -0.0985 -0.2215 -0.1275
 7001W        W23475   3.497   1.627   5.160  0.0310  0.1705  0.2286
 7002W        W23476   8.428   4.912   4.957 -0.3579  0.1202  0.2255
 7003W        W23477  17.171  14.285   1.511  0.2960  0.3928  0.3500
 7004W        W23478  12.857   1.020   4.424 -0.1100 -0.1202 -0.0623
 7005W        W23479   3.698  14.876   4.516 -0.0932  0.3368 -0.0259
 7006W        W23480   2.977  11.090   0.606  0.3805 -0.1050  0.0891
 7007W        W23481  16.678   4.713   1.530 -0.0024 -0.0736 -0.2090
 7008W        W23482  15.253   3.416   0.262 -0.3049  0.2050  0.3302
 7009W        W23483   3.523  11.289  14.978 -0.2558 -0.0008  0.1729
 7010W        W23484  16.358  19.068   9.543 -0.0387  0.3717 -0.0897
 7011W        W23485  17.354   7.340  12.467  0.0994 -0.1748  0.0250
 7012W        W23486   9.347  16.559   2.582 -0.0423 -0.1219  0.1339
 7013W        W23487  18.541   0.888   2.561 -0.0142 -0.1815  0.3475
 7014W        W23488   5.191   4.100   4.851 -0.2359  0.1264  0.4032
 7015W        W23489   7.296   8.526   1.025  0.1330  0.2821 -0.2370
 7016W        W23490   1.019  18.799   4.651 -0.0757  0.1412  0.1091
 7017W        W23491   9.715  13.100   3.501  0.2067  0.1996 -0.1966
 7018W        W23492   8.716  12.371  12.634  0.1550 -0.4196  0.2290
 7019W        W23493  13.262   1.466   1.154  0.0499 -0.0956 -0.3903
 7020W        W23494  12.901   7.767   4.088 -0.1833 -0.0048  0.0592
 7021W        W23495  17.462  16.414  10.824  0.2344 -0.0975  0.1501
 7022W        W23496   6.461  16.530   2.304 -0.0310  0.2015 -0.1859
 7023W        W23497   1.112  12.016  12.093 -0.0351  0.1270 -0.1877
 7024W        W23498   2.594  10.258   2.739  0.1281 -0.2084 -0.0889
 7025W        W23499  17.576   0.929   2.246  0.0787  0.2531 -0.2460
 7026W        W23500  13.707  11.757   4.938  0.0738 -0.1844  0.0359
 7027W        W23501  16.653  18.607   2.838  0.0219 -0.0074  0.1029
 7028W        W23502   9.740   4.666   2.875  0.0272 -0.0414 -0.0976
 7029W        W23503   2.075   1.484   0.600  0.2078  0.5352  0.1481
 7030W        W23504   2.162  16.952  13.459 -0.0854  0.0762  0.0814
 7031W        W23505   2.614  13.114  11.460 -0.2526 -0.0976  0.0018
 7032W        W23506   8.395  14.963   1.184  0.5372 -0.2750  0.0874
 7033W        W23507   7.179   3.049   2.935  0.1456  0.0710  0.0349
 7034W        W23508   0.676   8.878  15.059  0.0660 -0.0394 -0.3412
 7035W        W23509  16.831   4.982  12.065  0.0136  0.3825 -0.0679
 7036W        W23510   0.190   6.544   1.990  0.1753  0.0133  0.0023
 7037W        W23511   4.135   5.476  11.561  0.2414 -0.5308 -0.3494
 7038W        W23512   9.464   8.980  13.554  0.0977 -0.1477 -0.0096
 7039W        W23513   9.623  13.734   4.458  0.0455  0.3442  0.0951
 7040W        W23514  17.995  12.468  11.975 -0.0541  0.0758 -0.0445
 7041W        W23515   0.206  10.725  11.800 -0.4739 -0.0657 -0.0065
 7042W        W23516   3.076  15.957   4.876  0.0639 -0.0480 -0.0496
 7043W        W23517  15.812   9.260   4.952 -0.1795  0.2045  0.0314
 7044W        W23518   2.258   3.943  11.116  0.0881 -0.2237  0.0926
 7045W        W23519  11.500   6.035   4.824  0.0882  0.0474  0.3865
 7046W        W23520   4.377   2.443   3.160 -0.3884  0.3058 -0.0967
 7047W        W23521   9.432  15.521   4.614 -0.2352  0.1121 -0.4555
 7048W        W23522   6.632  17.150  15.022  0.1195 -0.2110 -0.2400
 7049W        W23523  17.701  15.834   2.329  0.0911 -0.1561  0.0038
 7050W        W23524   4.579  11.027   3.289 -0.0508 -0.2047 -0.1453
 7051W        W23525  18.811   7.973   0.523  0.1033 -0.0544 -0.0589
 7052W        W23526  18.879  11.071   0.897  0.0178 -0.2096 -0.2311
 7053W        W23527  10.920   1.715   0.517 -0.1211 -0.1562  0.0667
 7054W        W23528  11.889  11.974  13.982  0.1221 -0.1640  0.0532
 7055W        W23529   7.106  14.061  10.727 -0.0721 -0.0177 -0.1809
 7056W        W23530   0.819  18.077   2.145  0.0150 -0.0763  0.1678
 7057W        W23531  10.311  10.893   0.110  0.1071  0.1076 -0.1703
 7058W        W23532  18.118   7.796   3.027  0.0825 -0.1024 -0.0377
 7059W        W23533   8.382   7.763  10.331 -0.2173 -0.1974  0.1132
 7060W        W23534  16.459   7.807  11.569 -0.0917  0.0390 -0.2121
 7061W        W23535   2.312  18.205  12.421 -0.4195 -0.2438  0.2744
 7062W        W23536  18.490   1.091  11.650  0.2472  0.2614  0.2874
 7063W        W23537  10.310  16.265   3.533 -0.0202 -0.0851 -0.1980
 7064W        W23538  13.147  19.121  13.450  0.1112 -0.0635 -0.1637
 7065W        W23539  18.207  14.236  14.695 -0.1050  0.0776  0.1521
 7066W        W23540  15.836  16.036   1.514  0.2498  0.0847 -0.0776
 7067W        W23541  16.714   8.200  10.632 -0.1312  0.0112  0.2619
 7068W        W23542  13.365  14.477  13.333  0.0581  0.1015  0.1339
 7069W        W23543  17.252   6.776   4.060  0.1173 -0.0973 -0.1428
 7070W        W23544  10.271   8.751  10.353  0.1880  0.0842 -0.1121
 7071W        W23545  14.218  13.652  13.602 -0.1815 -0.1526 -0.2356
 7072W        W23546   3.810  16.347   4.702  0.2304 -0.0247  0.1629
 7073W        W23547  16.510  17.995  13.214 -0.2529  0.0539 -0.0081
 7074W        W23548  17.689  13.388  13.607  0.0544 -0.2248  0.1796
 7075W        W23549  13.025   3.298   3.197  0.0427 -0.3424  0.2299
 7076W        W23550   2.995   5.583  14.707 -0.0380 -0.0925  0.1462
 7077W        W23551   6.017  13.333   2.163 -0.0612  0.1410  0.0105
 7078W        W23552   0.787   9.390  11.505 -0.2768  0.0066  0.2733
 7079W        W23553   7.851  15.675  14.692 -0.1851  0.0107  0.1625
 7080W        W23554  15.306  10.915   3.860 -0.0218  0.2939 -0.0364
 7081W        W23555  11.389   6.717   0.383  0.1771 -0.1485  0.1251
 7082W        W23556  16.615   7.307  11.386 -0.1289  0.0704  0.0862
 7083W        W23557   5.206  12.397   1.905 -0.0945 -0.0561 -0.3107
 7084W        W23558   5.073   9.408   0.885 -0.0608 -0.0523  0.1072
 7085W        W23559   6.388   8.298   1.251 -0.2093 -0.1108  0.0358
 7086W        W23560  14.488  13.669   0.830 -0.0274 -0.1127 -0.1458
 7087W        W23561   4.667   2.221  10.657 -0.0227  0.2015  0.2274
 7088W        W23562   2.003  18.326   4.668 -0.0772 -0.1498  0.1136
 7089W        W23563   8.765  18.469   9.495  0.1793 -0.0023  0.1017
 7090W        W23564   7.170   8.531   3.092  0.2989  0.2580 -0.2289
 7091W        W23565  17.534   8.387   1.180  0.0229  0.0308 -0.6355
 7092W        W23566   6.092   8.018  10.938 -0.4853  0.0296 -0.1278
 7093W        W23567  14.124  10.173   0.643 -0.2312  0.2332 -0.4028
 7094W        W23568   7.376  10.594   4.237  0.0832  0.0423  0.0206
 7095W        W23569  13.232  11.531  10.921  0.1264 -0.0233  0.0393
 7096W        W23570  10.864  15.659  12.909 -0.2292 -0.1884  0.0113
 7097W        W23571  10.430  15.786   2.936  0.1771 -0.2108  0.2173
 7098W        W23572   3.939   7.849   2.772 -0.4728 -0.3048  0.0909
 7099W        W23573   0.843  18.784  13.964  0.1235 -0.2638  0.3250
 7100W        W23574  16.495   4.649   9.516  0.0224 -0.2358 -0.0482
 7101W        W23575   0.308  10.508  14.692  0.0078 -0.0149 -0.0594
 7102W        W23576   4.439   2.848   2.771 -0.0551 -0.1785 -0.1101
 7103W        W23577  11.914  18.126   0.973  0.2171  0.2864 -0.1552
 7104W        W23578  11.630   3.300  11.277 -0.2521  0.0848 -0.0951
 7105W        W23579  16.202  16.518  12.499  0.1445  0.0163 -0.3353
 7106W        W23580   8.825   9.912   6.023 -0.0564 -0.2292  0.1614
 7107W        W23581  17.188   5.012   3.212 -0.1416 -0.1000 -0.0789
 7108W        W23582  14.665   8.411  12.161  0.1057 -0.0960 -0.0024
 7109W        W23583   4.183   5.875   4.297 -0.1527 -0.1757 -0.0457
 7110W        W23584  16.973   1.895  15.143 -0.0585  0.0755  0.2036
 7111W        W23585   3.588   2.592   4.817  0.1108 -0.0919  0.1427
 7112W        W23586  10.088   4.444  13.729 -0.1241 -0.1953  0.2735
 7113W        W23587  18.994  14.662  11.969  0.1599  0.0926 -0.0700
 7114W        W23588   4.422   5.640   1.319 -0.2414  0.1185 -0.0418
 7115W        W23589   1.518   7.872  10.761  0.0807 -0.5190  0.0891
 7116W        W23590  11.183  10.649  14.306  0.0268  0.1129  0.1250
 7117W        W23591  17.267  12.526  10.956  0.3040  0.3276 -0.1765
 7118W        W23592   0.552   9.658   1.950  0.1248 -0.5384  0.0833
 7119W        W23593   0.635   8.270  10.057 -0.4690  0.1564 -0.0027
 7120W        W23594   0.672   1.245  14.267  0.0519  0.2770 -0.1711
 7121W        W23595  15.447   3.102  13.593  0.1001  0.0831 -0.0272
 7122W        W23596  16.597   9.757   2.842 -0.2957  0.1152  0.1626
 7123W        W23597  17.970   1.647   4.671  0.1725  0.1506  0.0912
 7124W        W23598  12.433   5.660   4.247 -0.1238  0.0625  0.0343
 7125W        W23599   9.598  11.946   1.219  0.2809  0.3305  0.1600
 7126W        W23600  15.359  11.535  13.433 -0.1962 -0.1043 -0.4333
 7127W        W23601   3.171   2.329   3.234 -0.0023  0.0875  0.0434
 7128W        W23602  10.834   1.267   0.128 -0.0646 -0.0235 -0.0915
 7129W        W23603  12.406   3.061   1.732 -0.2228  0.0532  0.1661
 7130W        W23604  14.618  11.331   4.670 -0.0529  0.1449 -0.3232
 7131W        W23605  14.252   0.397  14.785  0.0109 -0.2109 -0.0903
 7132W        W23606   9.335   3.433  10.688 -0.0304  0.0487 -0.1478
 7133W        W23607  18.394   8.081   1.652  0.0234  0.3083 -0.1560
 7134W        W23608   7.045   4.709   3.186  0.0069  0.0247 -0.0787
 7135W        W23609   4.799  16.796  13.486  0.1255  0.0002 -0.0298
 7136W        W23610  11.017   3.445   3.832 -0.0716  0.0588 -0.3613
 7137W        W23611   9.430   9.068  12.619  0.2210 -0.0403 -0.1203
 7138W        W23612   6.927   8.227  10.385 -0.0679 -0.0525 -0.1396
 7139W        W23613   0.129   2.642   5.291 -0.3070  0.0724 -0.1011
 7140W        W23614   4.931  15.175  14.888 -0.4118 -0.5322 -0.0989
 7141W        W23615   6.847  16.178  10.411 -0.2706 -0.2154 -0.1893
 7142W        W23616   4.888  11.691  10.864 -0.2018  0.0784 -0.1252
 7143W        W23617  13.756   7.766   1.180  0.0504  0.2190 -0.2968
 7144W        W23618  17.029   6.520  14.490  0.2246 -0.2249 -0.1114
 7145W        W23619   1.364  16.219   3.453 -0.1568 -0.3334  0.1250
 7146W        W23620   3.466   5.481  14.811  0.0484 -0.2071 -0.2380
 7147W        W23621  14.089  16.444  12.091 -0.3643 -0.0196 -0.1638
 7148W        W23622  10.930  13.390   4.601 -0.0849 -0.2005 -0.0194
 7149W        W23623   3.290   8.757   4.134 -0.1563  0.0298 -0.1314
 7150W        W23624  16.265  16.857  10.330 -0.0978  0.1429 -0.0673
 7151W        W23625   2.230   0.755  11.688 -0.1284  0.2105 -0.0660
 7152W        W23626   3.631  18.041  11.117  0.3357  0.0636 -0.2251
 7153W        W23627  18.608   0.630  12.498 -0.2809  0.4021  0.2212
 7154W        W23628  13.101  10.869   0.763  0.0004  0.1823  0.2857
 7155W        W23629  16.800   9.054  12.204  0.0486 -0.2087  0.1638
 7156W        W23630   7.470  14.429  10.741  0.1793  0.0462  0.0887
 7157W        W23631   6.177   1.531   9.655 -0.5827  0.2974 -0.0049
 7158W        W23632   8.630  15.754  10.800 -0.0035  0.1273 -0.1126
 7159W        W23633  15.105   0.250  13.964  0.1241  0.1589 -0.1277
 7160W        W23634   1.541   0.496   5.486  0.0826 -0.3712 -0.1499
 7161W        W23635  15.790  18.532   4.498 -0.4133 -0.1452  0.1773
 7162W        W23636  18.933  11.613  11.660 -0.0873 -0.0413 -0.2698
 7163W        W23637  16.323   4.377   1.704  0.0926 -0.0231 -0.1983
 7164W        W23638  10.135  15.694   1.020  0.1105 -0.0108 -0.0347
 7165W        W23639   3.612  13.801   3.971  0.1296 -0.0776  0.0787
 7166W        W23640   6.600   7.659   0.970 -0.1150  0.0297 -0.1755
 7167W        W23641   7.118   3.843   1.908  0.1403 -0.1173 -0.0824
 7168W        W23642  10.235   8.513  10.832  0.1385  0.1703  0.1280
 7169W        W23643  12.771   9.117  12.825 -0.1725  0.0650  0.2648
 7170W        W23644  16.577  11.697   4.965  0.0644 -0.1123  0.1589
 7171W        W23645  15.227   6.922  10.112 -0.2492  0.0668  0.1671
 7172W        W23646  18.777  17.465   2.171  0.1382 -0.0435 -0.1876
 7173W        W23647  14.329  10.515   3.290  0.0707 -0.0524 -0.1884
 7174W        W23648  16.046  11.366   5.635  0.2200 -0.3349  0.0852
 7175W        W23649   6.026   3.423  11.043  0.1870  0.0374 -0.2519
 7176W        W23650  14.001  18.220   2.094 -0.0529  0.1836  0.0772
 7177W        W23651   2.019  11.550  12.045  0.2742 -0.0641  0.2978
 7178W        W23652  13.721   7.311  15.049 -0.0156 -0.6463  0.1907
 7179W        W23653   1.816  17.089  11.003  0.0807  0.1623  0.2232
 7180W        W23654   8.676   1.197   5.642  0.0800  0.2567  0.0716
 7181W        W23655   6.510   2.728  14.175 -0.1514  0.1610  0.0759
 7182W        W23656   2.814   9.184  10.903 -0.0768  0.1371 -0.1973
 7183W        W23657   8.448  17.306   5.648  0.3119  0.0170  0.1805
 7184W        W23658   9.011   6.009   4.371  0.3648  0.2866 -0.0786
 7185W        W23659  14.489  17.457  11.399 -0.0124  0.0837  0.1958
 7186W        W23660  16.953   0.769  13.174 -0.4247 -0.1900 -0.0849
 7187W        W23661  18.553  15.460   5.001 -0.0656 -0.0926 -0.2734
 7188W        W23662   2.803   9.704  12.914 -0.1117 -0.0378  0.0769
 7189W        W23663  12.575  11.971  11.678 -0.0525  0.0551 -0.0500
 7190W        W23664  18.051  15.553  13.758  0.0005  0.2523 -0.1272
 7191W        W23665   7.569   5.247   4.499 -0.1100  0.1447 -0.1642
 7192W        W23666  10.801   6.505  11.615  0.0189  0.0968  0.1393
 7193W        W23667   2.777   0.713  12.568  0.0120  0.1506 -0.2284
 7194W        W23668  17.898   5.303  15.103  0.0522  0.1245  0.0167
 7195W        W23669   2.406  14.935  14.045  0.1657 -0.4001 -0.0390
 7196W        W23670   9.597   9.452   4.051 -0.0482 -0.0808  0.4278
 7197W        W23671  17.496  12.355   4.854  0.2976 -0.3259  0.0185
 7198W        W23672   9.005  11.985   0.732  0.3355  0.2371  0.0012
 7199W        W23673  10.472  15.012  11.395  0.0512  0.0771 -0.2635
 7200W        W23674   7.179   6.048  14.709 -0.2847 -0.0719  0.1866
 7201W        W23675  12.469   7.594   1.493 -0.0422  0.1648 -0.3526
 7202W        W23676   5.517  18.669   2.915  0.1858  0.3987  0.3695
 7203W        W23677   8.121  13.974   3.622 -0.2082 -0.0826  0.2124
 7204W        W23678   4.484   3.836  12.080  0.3293 -0.2373 -0.3171
 7205W        W23679  10.792  14.624   3.766 -0.0876 -0.1046 -0.0424
 7206W        W23680   6.162  11.620   4.044 -0.4622  0.3189 -0.3114
 7207W        W23681  13.487   5.197  11.912 -0.0777 -0.1083  0.2312
 7208W        W23682  13.504   1.927  10.824  0.1314 -0.0724  0.1817
 7209W        W23683   3.004  14.117   5.133  0.1532  0.0234 -0.2330
 7210W        W23684   2.069  11.218   0.923 -0.1118  0.2440 -0.1275
 7211W        W23685  13.177   4.737  13.880 -0.0520 -0.2393  0.1586
 7212W        W23686  14.036  10.812   4.316  0.3540  0.2198  0.0850
 7213W        W23687  15.626   6.092   3.842  0.1154  0.1327  0.3329
 7214W        W23688   8.235   2.239  14.091 -0.0017 -0.1531 -0.0816
 7215W        W23689   4.593   5.806  12.531  0.2561  0.0988  0.1621
 7216W        W23690   0.488   6.499   4.399  0.0678 -0.1364 -0.0245
 7217W        W23691   8.189   7.677  14.686  0.1669 -0.0788 -0.0587
 7218W        W23692   6.937   2.341  11.213 -0.0636 -0.2098  0.3983
 7219W        W23693  17.753   1.885  10.222  0.3750  0.2598  0.1007
 7220W        W23694   6.422   2.439   4.245 -0.1281  0.1631 -0.2513
 7221W        W23695  13.712   8.203   5.829  0.1637 -0.1465 -0.1119
 7222W        W23696   1.447   3.877  10.838 -0.0241  0.4287  0.2425
 7223W        W23697  11.824   5.015  11.715  0.0972  0.1290  0.1050
 7224W        W23698   5.169   0.078  12.362  0.1781 -0.0141 -0.0272
 7225W        W23699  14.301   2.320   5.155  0.0504 -0.1205  0.0101
 7226W        W23700   8.425  10.677   5.304 -0.0214  0.0941 -0.2367
 7227W        W23701   7.834   9.390   3.189  0.3276  0.0361 -0.1340
 7228W        W23702  15.438  11.362  15.091 -0.0226  0.0782 -0.2110
 7229W        W23703   5.672  11.265  13.530  0.2508  0.2278  0.3581
 7230W        W23704  14.099   1.557   0.107  0.0552  0.0281 -0.0974
 7231W        W23705   5.240   8.016   3.134 -0.4466  0.0669 -0.1392
 7232W        W23706  16.549  15.779  13.204 -0.2482 -0.1040  0.2203
 7233W        W23707   2.264   2.484   4.119 -0.1701 -0.0017  0.0706
 7234W        W23708  16.366   2.586  14.504  0.0123 -0.1282 -0.0177
 7235W        W23709   9.178   5.633   1.334  0.1650  0.0341  0.2140
 7236W        W23710  10.843   4.208  11.803 -0.1493 -0.0422 -0.0499
 7237W        W23711   6.521   5.019   4.376 -0.1059 -0.1625  0.3191
 7238W        W23712   6.202  15.854   0.146 -0.5024 -0.1231  0.1171
 7239W        W23713   7.069  13.762  15.106  0.0051 -0.2481 -0.3428
 7240W        W23714  16.756   0.960   3.880 -0.0804  0.0414 -0.2908
 7241W        W23715   4.967   4.767   4.700  0.0849  0.0141 -0.2530
 7242W        W23716   5.963   2.352  13.175 -0.0588  0.2513  0.0759
 7243W        W23717   2.471   2.528  12.350 -0.0212  0.1272 -0.1098
 7244W        W23718  16.956   4.325   4.624  0.1706  0.1006  0.1034
 7245W        W23719   8.203   9.806  12.600 -0.0252  0.0237 -0.1361
 7246W        W23720  14.741  14.704   1.579  0.1332 -0.0281  0.2431
 7247W        W23721  15.463   2.868   2.669 -0.4858 -0.0651  0.1126
 7248W        W23722  18.567  17.062  11.083 -0.0429  0.2077 -0.1892
 7249W        W23723  11.725   5.410   0.963  0.0280 -0.1796 -0.0804
 7250W        W23724  10.501  10.878  12.260  0.2587  0.0247  0.0339
 7251W        W23725  12.085   8.794   4.261 -0.2919 -0.1435 -0.0783
 7252W        W23726   4.275   1.371  13.308  0.0302  0.2137 -0.0688
 7253W        W23727   0.967  14.999   2.981 -0.1343  0.0943  0.0070
 7254W        W23728  14.060  10.844   1.161 -0.0394 -0.2232  0.2910
 7255W        W23729   2.741  15.595  11.694  0.1152 -0.1368 -0.1695
 7256W        W23730   8.326  16.296   2.725 -0.0682 -0.1347  0.3003
 7257W        W23731  16.036  10.285   4.365  0.0432 -0.1337 -0.1104
 7258W        W23732  15.113   2.472  11.889 -0.1510 -0.2190 -0.1380
 7259W        W23733  10.584  18.282  14.271 -0.1018 -0.1449 -0.0908
 7260W        W23734   5.455   7.479  10.604  0.0341 -0.0600  0.1894
 7261W        W23735   4.353  15.536  14.007 -0.1996 -0.2511  0.3631
 7262W        W23736   5.730   7.977  10.445  0.4742  0.0050 -0.0542
 7263W        W23737   4.069  11.247   3.366  0.1071  0.1308  0.4221
 7264W        W23738  10.340   4.245  12.603  0.1599 -0.1931 -0.0813
 7265W        W23739   9.864   9.075   1.290 -0.2873 -0.2030 -0.0142
 7266W        W23740   1.923  10.831   2.774 -0.1239  0.1274 -0.1814
 7267W        W23741  13.022  16.303   2.763 -0.0566 -0.1155  0.1446
 7268W        W23742   3.968   5.989  11.408 -0.1517 -0.6204  0.1433
 7269W        W23743  13.959   6.173  10.778  0.0702  0.0322  0.0976
 7270W        W23744  15.325  13.654   1.154 -0.0080  0.3279  0.2266
 7271W        W23745   1.651   8.485   3.247 -0.1472  0.0500 -0.1143
 7272W        W23746   9.873   3.663  12.033 -0.1393  0.0256  0.0107
 7273W        W23747   7.912   4.791   4.278  0.0677  0.1559  0.0948
 7274W        W23748   9.201  16.405  14.641  0.0590  0.0450 -0.3112
 7275W        W23749   8.084  12.243   3.482 -0.0328  0.2815 -0.1428
 7276W        W23750   9.610   7.259   1.340 -0.1545  0.0270 -0.2684
 7277W        W23751   0.217   4.084   5.502  0.0788  0.0411 -0.1518
 7278W        W23752   0.911  11.103   3.740  0.0275 -0.2048  0.1304
 7279W        W23753   7.543   9.985   2.570 -0.0545 -0.0847  0.1421
 7280W        W23754   1.838  12.482   2.352  0.0594  0.2813 -0.0920
 7281W        W23755   1.259   9.262   2.418 -0.0498  0.3083  0.1054
 7282W        W23756  10.935  17.529   0.183 -0.0883  0.0781 -0.4710
 7283W        W23757   5.074  11.002  12.796 -0.2641 -0.0519  0.1065
 7284W        W23758   7.884  12.532  10.536  0.0407  0.0156  0.4116
 7285W        W23759  13.934   3.795  15.090  0.0827 -0.0026  0.0547
 7286W        W23760   9.118  16.995   4.032 -0.0594  0.2233 -0.5085
 7287W        W23761   9.055   2.627   4.340 -0.1875  0.0239  0.3582
 7288W        W23762  16.302   3.353  13.017 -0.2822 -0.1646  0.1044
 7289W        W23763   5.513   2.986   5.249  0.2863 -0.2192 -0.1214
 7290W        W23764  16.731   2.639  13.562 -0.2151 -0.2358 -0.1098
 7291W        W23765  14.384   7.907   0.215  0.2108  0.1485  0.0845
 7292W        W23766  14.705   9.170  11.460  0.2624  0.1671  0.0783
 7293W        W23767   0.533  12.185  10.981  0.1509 -0.0126  0.0736
 7294W        W23768  12.589   5.601  10.596  0.1711 -0.2367 -0.3939
 7295W        W23769  15.825  12.060  11.945  0.0091  0.1309 -0.1550
 7296W        W23770  16.149  12.618   5.109  0.1253  0.1291 -0.3390
 7297W        W23771   9.561   9.536   1.373 -0.0719  0.0853 -0.0067
 7298W        W23772   1.754   4.199   3.290 -0.0625 -0.0605 -0.0967
 7299W        W23773   9.718  16.227   2.147 -0.0070 -0.1231  0.0882
 7300W        W23774   0.119  13.439  11.830  0.1692  0.0349 -0.1014
 7301W        W23775   3.930   9.013  11.765 -0.0554  0.1005 -0.0142
 7302W        W23776  18.219   7.810  12.551 -0.2361 -0.0003  0.0823
 7303W        W23777   0.927   8.892   2.757 -0.3882 -0.3888 -0.0017
 7304W        W23778  12.138   4.737  10.870  0.3026  0.3027 -0.0985
 7305W        W23779   2.361   0.281   5.055 -0.0282 -0.0527 -0.0471
 7306W        W23780   8.300  15.653  13.895 -0.2652 -0.1169  0.3656
 7307W        W23781  19.106   6.506   2.651 -0.0968  0.1027  0.1421
 7308W        W23782  14.425   4.331   1.374  0.2418  0.0316 -0.1395
 7309W        W23783  14.600   2.284   1.367 -0.1215 -0.1155  0.1830
 7310W        W23784   5.776   8.736   0.500 -0.1350 -0.1533  0.0395
 7311W        W23785  18.819   4.398   0.121  0.1944  0.1186  0.4569
 7312W        W23786   4.422   2.858  11.749  0.0863  0.1260  0.1885
 7313W        W23787  16.369   2.838  13.269 -0.0249  0.2814 -0.0085
 7314W        W23788  14.756  16.175  14.368 -0.2385 -0.1562  0.2805
 7315W        W23789   4.263   7.664   4.620  0.1405  0.0469 -0.0623
 7316W        W23790   0.303  15.781   4.989  0.0860  0.1806  0.3824
 7317W        W23791   6.734   3.711  10.992 -0.1478  0.3449  0.1346
 7318W        W23792  11.874   2.933   2.520 -0.1609  0.0218 -0.2718
 7319W        W23793   7.853   0.000  14.714  0.1138 -0.0513 -0.0593
 7320W        W23794  13.428  16.119   0.372  0.0524  0.1207 -0.3076
 7321W        W23795  11.272  19.139  11.364 -0.2765  0.0862 -0.0124
 7322W        W23796  16.698   7.673   3.622  0.2001  0.0174 -0.0674
 7323W        W23797   1.790  17.402  12.358  0.0611  0.0686 -0.0231
 7324W        W23798   0.799   9.325  14.780 -0.2606 -0.0620 -0.0288
 7325W        W23799   3.765   5.434   3.672  0.4004  0.0786 -0.3624
 7326W        W23800  14.769  17.099  14.506  0.1742 -0.4406 -0.4560
 7327W        W23801  15.695   6.292  11.511  0.0279 -0.2484  0.0769
 7328W        W23802   0.655   1.870   4.051 -0.2314 -0.1233  0.2028
 7329W        W23803  17.106  12.843  11.336  0.2171  0.1462  0.1581
 7330W        W23804   0.188   9.358   4.763  0.0399  0.1991 -0.1764
 7331W        W23805   4.388   6.554   4.896  0.0324 -0.1001  0.0262
 7332W        W23806   0.753   5.885   1.727 -0.2401  0.2463 -0.1148
 7333W        W23807  18.040   4.662   1.822 -0.1098  0.0830 -0.0180
 7334W        W23808   8.432   7.135  13.813  0.0505  0.0882  0.1970
 7335W        W23809  14.548   6.010   2.136  0.0547  0.1283 -0.3718
 7336W        W23810  14.682  16.728  13.565 -0.1026 -0.0319 -0.1280
 7337W        W23811   1.008   0.933  11.646  0.1102 -0.0589  0.1778
 7338W        W23812   9.528   3.113   1.430  0.2017 -0.2690  0.0616
 7339W        W23813   1.944   9.089   4.284 -0.1111  0.2700 -0.0013
 7340W        W23814  11.309   9.458  10.919  0.3570 -0.0516  0.3080
 7341W        W23815   1.015   1.295  13.683  0.1098 -0.4841 -0.4625
 7342W        W23816   4.563  12.802  13.813 -0.1615  0.2540  0.1673
 7343W        W23817   3.841  17.403   2.108 -0.2782  0.1300 -0.0773
 7344W        W23818   5.578  12.887  11.224  0.1241 -0.0455  0.1972
 7345W        W23819  17.881  18.628   2.633 -0.0581  0.4004  0.1997
 7346W        W23820   9.080   3.913  12.512 -0.0590 -0.1103  0.1498
 7347W        W23821   9.971  15.896  12.921 -0.2327 -0.2395 -0.1621
 7348W        W23822  13.681  12.389  12.637 -0.0409  0.1754  0.1089
 7349W        W23823   3.747   3.966  10.003  0.1426 -0.0818  0.0312
 7350W        W23824  10.653  18.587  12.936  0.1020  0.0704  0.4772
 7351W        W23825   3.253   9.208  10.419 -0.1658  0.0402  0.0487
 7352W        W23826  18.972   0.682   1.761  0.2579 -0.1039  0.2231
 7353W        W23827   1.826   2.803  13.627 -0.1890  0.0563  0.1718
 7354W        W23828   4.716   9.011  10.654 -0.1430 -0.0794  0.1241
 7355W        W23829   5.968  12.826   2.287  0.2828  0.0703 -0.3170
 7356W        W23830   1.082  14.935   1.506 -0.0882  0.0768  0.0108
 7357W        W23831   4.425  11.162  10.189 -0.1320 -0.0052 -0.1917
 7358W        W23832  15.795  15.814  14.935  0.2733  0.2126 -0.0143
 7359W        W23833  18.423   6.122  10.895 -0.0365 -0.0001  0.0114
 7360W        W23834  17.391   9.713   0.427 -0.0868 -0.0994  0.2013
 7361W        W23835   2.849   3.780  13.321  0.0249  0.2156  0.0439
 7362W        W23836  12.302   1.921   4.877 -0.1217  0.2986 -0.3038
 7363W        W23837   8.104   5.769   2.673 -0.1120 -0.1875 -0.0271
 7364W        W23838  14.786   3.650  13.337 -0.0823  0.1950  0.0386
 7365W        W23839  11.414   2.460  11.407  0.3712 -0.0302 -0.0371
 7366W        W23840  13.086  16.296  11.050  0.0822  0.0511  0.1800
 7367W        W23841   9.717  16.411   0.313 -0.2844 -0.6267  0.2125
 7368W        W23842   5.082  18.770   3.421 -0.3598  0.1274 -0.0545
 7369W        W23843  15.362  13.942   3.586  0.4212  0.1095 -0.2605
 7370W        W23844  15.687  17.673  14.918  0.1613 -0.1129 -0.0651
 7371W        W23845   4.809  16.194   4.581 -0.2389  0.2236  0.2219
 7372W        W23846   9.862  10.494   4.948  0.2510 -0.2063  0.2062
 7373W        W23847  15.828   7.551   2.322 -0.0663  0.0655 -0.2319
 7374W        W23848  14.858  15.262  11.239 -0.0722  0.1580  0.0886
 7375W        W23849   1.925  18.382  10.873 -0.1430 -0.0778  0.2425
 7376W        W23850  11.886   9.322   0.106  0.2929  0.1313 -0.0415
 7377W        W23851   4.916   6.933   2.003  0.2551 -0.1773  0.0177
 7378W        W23852   0.137  16.367   4.898  0.0276 -0.0087 -0.0169
 7379W        W23853  18.245   2.138   3.720  0.0137 -0.1066  0.0974
 7380W        W23854  12.145  16.903   2.588 -0.2881 -0.0766  0.0543
 7381W        W23855   0.383  12.965  10.502  0.0162  0.3061  0.0657
 7382W        W23856   9.515   8.794   0.277 -0.4336  0.2337  0.0966
 7383W        W23857   1.523   2.471   0.088 -0.0373 -0.0871 -0.0801
 7384W        W23858   6.758  14.927   1.894 -0.3602 -0.0027 -0.0144
 7385W        W23859  17.558   3.976  11.693  0.0287  0.3146 -0.2925
 7386W        W23860  18.781   7.788  13.218  0.1607  0.3108 -0.0962
 7387W        W23861   6.979   3.044   0.696  0.3449  0.3573 -0.0185
 7388W        W23862   3.879   9.288  10.699  0.2054 -0.0726  0.1509
 7389W        W23863   0.533  18.506   1.862 -0.1190 -0.1553  0.3159
 7390W        W23864   5.244   5.652   5.619  0.3576 -0.0377 -0.4162
 7391W        W23865   5.257   0.548   4.136  0.0910  0.0827 -0.0579
 7392W        W23866   3.292   2.812   3.877  0.3242  0.0760 -0.3214
 7393W        W23867   5.690  12.446   1.899 -0.3997 -0.0372 -0.0559
 7394W        W23868   6.413   4.563   0.224  0.0924  0.2894  0.0926
 7395W        W23869  12.540  11.719   5.297 -0.2324  0.1385  0.0047
 7396W        W23870  18.326   6.000   3.020 -0.0587 -0.1106 -0.1538
 7397W        W23871   9.621  15.454  12.855 -0.0083 -0.0339 -0.2234
 7398W        W23872  11.699   1.505  10.590 -0.2208 -0.1186  0.1411
 7399W        W23873  10.566   8.515  12.418 -0.0176 -0.0817  0.0706
 7400W        W23874   8.713  19.140  12.319  0.0498 -0.0085 -0.1509
 7401W        W23875  18.286   7.470  14.506  0.3651 -0.0241 -0.0528
 7402W        W23876  16.225  18.450  10.670 -0.0223 -0.1849  0.0600
 7403W        W23877  17.595  13.781   4.461 -0.0166 -0.2157 -0.2362
 7404W        W23878   8.541  13.245  13.708  0.0017 -0.0498  0.0929
 7405W        W23879   5.550  13.188   2.301 -0.0887 -0.3097 -0.1294
 7406W        W23880  17.012  10.753  12.900  0.2416 -0.1185  0.3510
 7407W        W23881   7.174   7.532   5.316 -0.0969  0.2733 -0.1672
 7408W        W23882   2.824  19.097   4.170 -0.0980 -0.3391  0.0365
 7409W        W23883   9.836   0.504  10.900  0.1863  0.2956 -0.0483
 7410W        W23884   0.366  13.543  11.379 -0.0992 -0.1088  0.0220
 7411W        W23885   8.095  11.587  10.960 -0.0275 -0.2619 -0.2035
 7412W        W23886   3.698   0.017  13.378 -0.1165  0.2072  0.0364
 7413W        W23887   2.134  15.960   2.155 -0.0558 -0.1135  0.1996
 7414W        W23888  13.584  11.612   5.422 -0.1084  0.2266 -0.0117
 7415W        W23889   7.010   5.486  11.098  0.0499 -0.0761 -0.0371
 7416W        W23890  11.131   6.721  11.978  0.1208 -0.1701 -0.2858
 7417W        W23891   2.240   6.835   2.174  0.2335  0.0777  0.0241
 7418W        W23892   2.877   1.496   3.871  0.0226  0.1622  0.0410
 7419W        W23893  15.255  18.808  15.105  0.0703  0.4959  0.0629
 7420W        W23894   4.502  10.876  14.749  0.2155  0.0208  0.0441
 7421W        W23895  10.252   6.573  14.257 -0.1838 -0.0828  0.3044
 7422W        W23896   1.096  17.023  10.764  0.3214 -0.0233  0.1082
 7423W        W23897   4.897   1.333  14.577 -0.4807 -0.1771  0.2230
 7424W        W23898  12.922   2.289   1.942  0.1574 -0.0450  0.1005
 7425W        W23899  12.217   2.141  10.184 -0.3934 -0.1033  0.1687
 7426W        W23900   4.568  10.331  10.208 -0.1236  0.3133  0.0328
 7427W        W23901   2.134  17.303  11.625 -0.2097 -0.3107  0.1544
 7428W        W23902   0.286   2.572   3.527 -0.2074  0.2146  0.1461
 7429W        W23903   3.724  16.004   1.649 -0.2731 -0.1691  0.5695
 7430W        W23904  13.042  11.832   2.844 -0.1641 -0.2439 -0.0454
 7431W        W23905  10.444   9.977  11.279 -0.2760 -0.0119 -0.0104
 7432W        W23906   4.252  14.205  11.761 -0.2186  0.0913  0.2706
 7433W        W23907  12.753   3.114  12.420  0.1219 -0.0946  0.1626
 7434W        W23908  18.498   1.399   4.302  0.2594  0.0210  0.2037
 7435W        W23909  11.099   8.642   1.722  0.1075 -0.0656 -0.1689
 7436W        W23910   2.219  10.047   3.979  0.0051 -0.1761 -0.0060
 7437W        W23911  14.024  13.821   0.820  0.1178  0.0200  0.1540
 7438W        W23912  16.221   4.674   2.295  0.0097 -0.1739  0.0067
 7439W        W23913  12.811  12.474  14.871  0.2292  0.2885 -0.1792
 7440W        W23914  14.547   3.756   4.502  0.1560  0.2954  0.0302
 7441W        W23915  14.166  13.676   5.694 -0.0292 -0.2050  0.1437
 7442W        W23916   7.382   5.502  11.452  0.0072 -0.2578  0.2115
 7443W        W23917  14.758  12.388   2.290  0.1391 -0.0063  0.0280
 7444W        W23918   7.381  11.402  11.551 -0.0897  0.2175  0.1086
 7445W        W23919   5.356   2.967  12.123 -0.1405  0.0999 -0.3163
 7446W        W23920  13.725   2.611   3.004 -0.0110 -0.1641 -0.2385
 7447W        W23921   0.705  19.034   1.805 -0.0528  0.1892  0.0777
 7448W        W23922  10.054  17.836   3.461  0.1241 -0.2122 -0.0622
 7449W        W23923   3.419  10.888  11.831 -0.2509 -0.1269  0.1880
 7450W        W23924   6.099   4.247  12.446 -0.2452  0.3474  0.1815
 7451W        W23925  11.496  13.516   0.651  0.3050 -0.1678 -0.3132
 7452W        W23926   1.443  15.902   2.682 -0.5194 -0.1213 -0.3050
 7453W        W23927  13.772  12.098  13.474  0.1569  0.0460  0.1033
 7454W        W23928   9.490   2.149   2.944 -0.0299 -0.0088  0.0310
 7455W        W23929  13.528  16.158  12.765 -0.0845 -0.0036  0.5343
 7456W        W23930   6.286  18.463  14.295 -0.1692  0.0451  0.0414
 7457W        W23931  12.807   9.910   0.330 -0.1636 -0.1702 -0.2151
 7458W        W23932   6.340   4.159   1.356 -0.0798  0.0063  0.0444
 7459W        W23933  13.424  11.923   3.560  0.0483 -0.0801 -0.1592
 7460W        W23934   2.959   0.914   2.054  0.0652 -0.0085  0.0742
 7461W        W23935   3.664   2.017   2.658 -0.0177  0.0119  0.1249
 7462W        W23936  19.108  11.433  11.192 -0.1035  0.0817  0.2296
 7463W        W23937   3.024   2.999  11.703 -0.1397 -0.1011  0.3039
 7464W        W23938   7.668   8.291  13.564  0.2119  0.0417 -0.2202
 7465W        W23939   8.426   4.560  14.080  0.3297 -0.0621 -0.0012
 7466W        W23940   4.288   4.148   4.498 -0.1094  0.2340 -0.2931
 7467W        W23941   9.140   0.429   3.667  0.0737 -0.0466 -0.1584
 7468W        W23942   1.670   7.876  12.232 -0.2911  0.1510 -0.0548
 7469W        W23943   9.464   1.832   0.195 -0.1178  0.3574 -0.0362
 7470W        W23944   5.384   9.556  13.601  0.2649 -0.1587  0.2921
 7471W        W23945   3.677  15.461  10.582 -0.2494 -0.1532  0.0148
 7472W        W23946   0.138   1.665   1.931 -0.2283 -0.3090 -0.1538
 7473W        W23947   5.455  18.871   4.865  0.2461  0.1493 -0.3048
 7474W        W23948   8.892   9.614  12.484 -0.0224 -0.1756  0.2396
 7475W        W23949  16.859  19.103   3.723  0.0503 -0.3417 -0.0150
 7476W        W23950  15.344  15.382   0.788 -0.4294  0.2226 -0.3668
 7477W        W23951   0.476   5.018   1.444  0.0100 -0.1690 -0.1557
 7478W        W23952   7.224  13.917   4.743  0.0525 -0.0777 -0.2840
 7479W        W23953   0.966  14.598  14.899 -0.3043 -0.1148 -0.0319
 7480W        W23954  10.054   2.406  14.799  0.1019  0.0555 -0.1124
 7481W        W23955   5.899  13.040  14.059 -0.1445 -0.0133  0.4028
 7482W        W23956   0.957   0.693   2.575 -0.1494  0.0278  0.2101
 7483W        W23957  16.703   7.750   2.301  0.0140  0.0536  0.1441
 7484W        W23958   1.387   3.061  13.508 -0.4298  0.0689 -0.0997
 7485W        W23959   5.867  14.034  10.299 -0.2657 -0.1478 -0.3229
 7486W        W23960   6.690  18.408   2.696 -0.3280 -0.3166 -0.1271
 7487W        W23961  14.056  15.851   0.804 -0.0041 -0.0150  0.1217
 7488W        W23962   2.878  12.542   5.109  0.0250  0.1994 -0.0355
 7489W        W23963   5.923   0.046  12.228  0.0101 -0.1289  0.3048
 7490W        W23964   0.456  13.677  12.785  0.1690 -0.1023  0.0095
 7491W        W23965  11.477  10.480   0.679 -0.0941 -0.1427 -0.2093
 7492W        W23966   7.244   0.056  10.999  0.2841 -0.0960  0.0776
 7493W        W23967   9.275   3.409   3.673  0.1587 -0.1370  0.0975
 7494W        W23968  19.015   6.032   3.798  0.0039 -0.0034  0.1729
 7495W        W23969   7.914   3.849   2.890 -0.0526  0.0715  0.1975
 7496W        W23970  14.231  11.691  13.010  0.2130 -0.0233  0.1632
 7497W        W23971   2.385   5.033   0.337  0.4918  0.0910  0.1442
 7498W        W23972   3.793   1.164  11.989 -0.1417 -0.4204  0.2262
 7499W        W23973  13.817   6.473   0.707 -0.0135 -0.1883  0.1467
 7500W        W23974   2.103   5.684  15.065 -0.0399 -0.0292  0.0270
 7501W        W23975  13.949   2.470  14.849  0.2012  0.3190  0.2099
 7502W        W23976  12.208   5.502   2.911 -0.0926 -0.4066  0.0059
 7503W        W23977   8.043   8.791  11.367 -0.2163 -0.0169  0.2255
 7504W        W23978  15.186   0.731  11.484  0.2155 -0.1421 -0.3378
 7505W        W23979   0.170   7.463   1.113  0.2272  0.3023  0.1919
 7506W        W23980   3.189  13.439   4.050 -0.0484 -0.4422 -0.0624
 7507W        W23981  15.150  17.519   2.508  0.0462  0.2158  0.0370
 7508W        W23982  15.282   2.356   3.633  0.0100 -0.0264 -0.1809
 7509W        W23983  18.211   7.234   1.107  0.2402 -0.4628 -0.0321
 7510W        W23984  12.964   3.883  11.791 -0.0616  0.0631 -0.1319
 7511W        W23985   2.737  11.990  15.043 -0.1290  0.4334 -0.1086
 7512W        W23986  15.949   7.030  13.128  0.2746  0.0385 -0.0101
 7513W        W23987  11.505   7.318   2.535  0.2510  0.0393  0.0504
 7514W        W23988  12.652  12.834  12.490 -0.2116 -0.0777 -0.5182
 7515W        W23989  11.859  13.390  14.521 -0.0715 -0.2723 -0.0803
 7516W        W23990  15.208   8.536  13.879  0.2131 -0.0480 -0.0210
 7517W        W23991  11.839   9.054   4.664 -0.0398  0.1776 -0.0430
 7518W        W23992  11.837  10.477  12.941  0.1869 -0.1083 -0.2342
 7519W        W23993   5.842  12.227   4.042 -0.1006 -0.1679  0.1180
 7520W        W23994  14.321  12.038   4.051 -0.1483 -0.1173 -0.1604
 7521W        W23995   0.056   7.509  14.028 -0.0253  0.0589  0.0212
 7522W        W23996  14.936  17.225  13.993 -0.0349  0.2908  0.1131
 7523W        W23997   9.354   6.680  14.018  0.0561  0.0181 -0.1448
 7524W        W23998  14.152   7.432   4.598  0.0080 -0.1739 -0.1002
 7525W        W23999  10.738   1.466  11.401 -0.2181 -0.0103 -0.0199
 7526W        W24000  17.929  14.355  15.122 -0.1766  0.0533 -0.0149
 7527W        W24001   4.664   8.422  11.546  0.0280  0.0728  0.1406
 7528W        W24002   7.640  11.434   1.589 -0.1264  0.3377 -0.0891
 7529W        W24003   1.326  14.166   2.615 -0.0206  0.1123 -0.3188
 7530W        W24004  11.858   3.994   4.743 -0.1756 -0.2147  0.1360
 7531W        W24005  10.214  14.817   4.149  0.1410  0.1535  0.0904
 7532W        W24006   9.677   2.254  14.461 -0.1182  0.0471 -0.1043
 7533W        W24007   6.524   2.345  12.731 -0.0946 -0.4369 -0.2000
 7534W        W24008  15.838  10.954  10.131 -0.1329 -0.0041 -0.0884
 7535W        W24009  11.703  13.912  12.642 -0.0882  0.0273 -0.0226
 7536W        W24010   7.057  13.955   2.683  0.3315 -0.0467  0.1172
 7537W        W24011   7.283   9.872  11.288 -0.0879  0.1285  0.1074
 7538W        W24012  10.480  10.355  12.301  0.1481 -0.0699 -0.0344
 7539W        W24013  10.222   7.273   0.976  0.0579  0.2379  0.2777
 7540W        W24014  10.592  11.337  15.095 -0.0119  0.1190  0.2538
 7541W        W24015   2.501  12.815   1.322 -0.0245  0.3310 -0.1629
 7542W        W24016   8.753  15.383   5.862  0.2079  0.1782 -0.3868
 7543W        W24017   7.495   6.163   9.012  0.0377 -0.2188 -0.1033
 7544W        W24018   2.822   7.202  12.927  0.2361 -0.1723 -0.3314
 7545W        W24019  13.776  12.460  15.133 -0.0628  0.0322  0.2482
 7546W        W24020   6.160   4.274   4.759  0.1220 -0.2983  0.0080
 7547W        W24021  18.150   2.402   1.503  0.1114 -0.3359  0.3553
 7548W        W24022  11.016   9.077   0.603 -0.0553 -0.0083  0.4109
 7549W        W24023  15.940   4.041   3.356  0.0123  0.2016 -0.0554
 7550W        W24024  15.624  15.722  10.330  0.1949  0.0158  0.0628
 7551W        W24025   1.651  10.762   4.314  0.2343 -0.2234 -0.1671
 7552W        W24026  12.600  11.989   1.383 -0.2037 -0.2131  0.4022
 7553W        W24027   6.335   4.965   1.930  0.1101 -0.2004  0.1849
 7554W        W24028   2.414  17.154  14.289 -0.1312  0.3296 -0.1422
 7555W        W24029  10.832   8.998   3.121 -0.0035  0.0352  0.0836
 7556W        W24030  10.993  12.678   3.866  0.0202 -0.1034 -0.0094
 7557W        W24031  13.913  13.326  14.897 -0.0385  0.2962  0.2122
 7558W        W24032   5.991   1.659  12.555  0.0061 -0.0102  0.1914
 7559W        W24033  11.416  11.407  14.405 -0.0536  0.0147  0.0323
 7560W        W24034   7.919  16.740   2.353  0.0990 -0.1831  0.0119
 7561W        W24035   2.106   6.129  10.584 -0.0732 -0.3569 -0.2245
 7562W        W24036   7.403   1.779  10.644  0.0767 -0.1743 -0.2466
 7563W        W24037   1.686   7.538  13.620 -0.1775  0.0805 -0.1097
 7564W        W24038   7.923  18.650   3.987  0.0377 -0.3768  0.3263
 7565W        W24039   4.629   9.419   2.271 -0.4391 -0.2586 -0.3787
 7566W        W24040   2.535  18.510  12.067  0.0726  0.1856 -0.2572
 7567W        W24041   9.134  13.071  13.749 -0.2440  0.1840 -0.2282
 7568W        W24042   6.353  14.866   0.622  0.3619  0.0061  0.0352
 7569W        W24043   5.927   1.041   1.702  0.1853 -0.0810 -0.1452
 7570W        W24044  12.798   7.640   0.661  0.4115  0.1177  0.0226
 7571W        W24045  13.979   7.140  13.732  0.3379  0.1453 -0.0890
 7572W        W24046  15.796  16.954  13.851 -0.0086  0.2369  0.3150
 7573W        W24047  13.053   1.313   2.820  0.0011 -0.2672  0.0269
 7574W        W24048  15.746   5.243  10.556  0.2490  0.1689 -0.1304
 7575W        W24049   2.799  13.962  12.136 -0.3891 -0.1477  0.1993
 7576W        W24050  10.669  15.644   1.084  0.4432  0.2093 -0.2396
 7577W        W24051  13.722  18.508  14.447  0.1526  0.0593 -0.0131
 7578W        W24052   8.157   2.097   3.883  0.0308  0.0438  0.1138
 7579W        W24053   9.657   8.006   4.026 -0.3239 -0.3010 -0.2515
 7580W        W24054  10.752   2.447   4.334 -0.0574  0.2433 -0.0968
 7581W        W24055  12.673  16.856   1.746  0.2006 -0.1325 -0.1237
 7582W        W24056  11.484  10.494   3.095 -0.0590 -0.2622  0.1452
 7583W        W24057  17.708   3.614  13.381  0.1214 -0.1785  0.0709
 7584W        W24058  18.696   4.101  12.432 -0.0560 -0.0549  0.0769
 7585W        W24059   6.291   3.097  10.740 -0.0340  0.0939 -0.2257
 7586W        W24060   1.389  12.140  10.774 -0.0542 -0.2093 -0.3346
 7587W        W24061  10.173   7.398   3.822  0.0915 -0.1440  0.0209
 7588W        W24062   0.277  10.475   4.939  0.1286 -0.2330  0.1450
 7589W        W24063  15.155  16.301  12.851  0.0662 -0.1472  0.4291
 7590W        W24064  15.432  10.199   1.394  0.2762 -0.2346  0.0219
 7591W        W24065   5.202  12.534  12.955  0.0955 -0.0173  0.0268
 7592W        W24066  16.501   5.543   0.386 -0.0834 -0.0338  0.0975
 7593W        W24067   7.097  11.478   1.498  0.0722  0.2420 -0.4481
 7594W        W24068   9.899   4.376   9.966 -0.0780 -0.2643 -0.2380
 7595W        W24069   5.184  14.595   0.886 -0.1018  0.1097  0.1115
 7596W        W24070  17.041  11.690  12.962  0.0096 -0.0840 -0.1927
 7597W        W24071  10.845   3.954   5.270 -0.3434  0.1790  0.0349
 7598W        W24072   7.475  12.996   3.606  0.2196  0.0871 -0.0586
 7599W        W24073   1.355  11.661   4.117  0.0969 -0.1111  0.1361
 7600W        W24074   7.503  18.487   3.058  0.1018 -0.2639  0.0710
 7601W        W24075   7.738   4.059   0.241  0.1963 -0.1537  0.0262
 7602W        W24076  12.135  13.720   2.962 -0.0104  0.0778 -0.2606
 7603W        W24077  12.715   6.116   2.344  0.0325 -0.1360 -0.3193
 7604W        W24078   7.533  11.327  12.259 -0.3137  0.1905  0.0891
 7605W        W24079  18.993   1.402   4.061  0.0391  0.0307 -0.0787
 7606W        W24080  11.077   9.178   0.024 -0.1134  0.1268  0.0281
 7607W        W24081   1.754  13.723   0.377 -0.2077 -0.2558  0.0580
 7608W        W24082  16.671   3.776  12.913  0.0235  0.0567 -0.2821
 7609W        W24083  13.717   1.091   2.545 -0.1648  0.0481  0.0683
 7610W        W24084   0.419  11.686  13.190 -0.0006 -0.0031  0.0721
 7611W        W24085  15.357  16.116  10.097  0.0138 -0.2747  0.2130
 7612W        W24086   0.106  18.299  10.714 -0.3723 -0.2794  0.1486
 7613W        W24087  18.911  11.021   4.221  0.0293  0.1447  0.1215
 7614W        W24088  12.074   6.399  12.332 -0.0921  0.0385  0.0580
 7615W        W24089  13.306   6.085  10.700  0.1903  0.4269  0.0181
 7616W        W24090   8.599   4.068  12.545  0.0148 -0.1019 -0.0196
 7617W        W24091   8.623   9.833  12.119 -0.3473 -0.1015  0.1423
 7618W        W24092  15.814  10.162  10.644 -0.1858  0.0035 -0.2370
 7619W        W24093  10.101   5.360   1.185  0.1739 -0.2938 -0.1334
 7620W        W24094   9.507  18.635   3.667  0.0839 -0.0312  0.0668
 7621W        W24095   3.619   8.792   0.144  0.0372  0.1914 -0.1746
 7622W        W24096   2.671  10.886   1.513  0.0816 -0.4769 -0.1123
 7623W        W24097  15.076  19.090  14.382  0.1834  0.1853  0.0118
 7624W        W24098  10.333  11.558   1.588 -0.1179 -0.1157 -0.0238
 7625W        W24099   7.552  14.554  11.681  0.2256 -0.0522 -0.0199
 7626W        W24100   6.689   5.834   4.613  0.2739 -0.3731 -0.3514
 7627W        W24101  10.801   9.204   9.844 -0.0862  0.0452 -0.1333
 7628W        W24102   2.078   7.814   2.880 -0.1637 -0.0387 -0.0093
 7629W        W24103  13.328   1.465   2.454  0.1308  0.2306 -0.2293
 7630W        W24104  13.594  14.247  12.956  0.4397  0.2412  0.3251
 7631W        W24105   7.496  10.416  11.827  0.2329  0.3555  0.2072
 7632W        W24106  11.291  11.970  13.826 -0.1693 -0.2440  0.1765
 7633W        W24107  17.071   4.931  12.645  0.3655  0.0671 -0.0784
 7634W        W24108  19.042  17.832  14.473 -0.0542 -0.1936  0.0283
 7635W        W24109  15.965  10.007   2.323 -0.0301  0.1213 -0.2938
 7636W        W24110   5.777   5.719   5.399 -0.0909 -0.1396 -0.1918
 7637W        W24111  13.465   0.428  12.237  0.0696 -0.0811  0.0424
 7638W        W24112   8.645   1.204  12.547  0.0492  0.1241  0.1721
 7639W        W24113  13.654  16.125   2.196 -0.0171 -0.0528  0.4451
 7640W        W24114  16.663  17.161   5.180 -0.0305 -0.0727 -0.0023
 7641W        W24115  12.968  12.880   1.642 -0.0839 -0.1046  0.0185
 7642W        W24116   2.559  18.225  11.232  0.0905  0.2241  0.0224
 7643W        W24117  15.269   2.047  14.654  0.1781  0.0462  0.0415
 7644W        W24118   1.221   6.966   9.448 -0.1455 -0.0055  0.0762
 7645W        W24119   1.539  15.328  14.206  0.3057 -0.1254  0.0823
 7646W        W24120   1.006   5.441   2.257 -0.0394  0.0630 -0.0484
 7647W        W24121   5.765   7.222  11.686 -0.0456  0.1647 -0.2668
 7648W        W24122   6.217   0.451  11.032 -0.0368 -0.2037  0.0762
 7649W        W24123  14.812   7.436  13.177  0.0958 -0.0553  0.1118
 7650W        W24124  11.046  10.754   0.685 -0.0975 -0.0380  0.0872
 7651W        W24125  16.309  15.410   4.665  0.0504  0.1348  0.1390
 7652W        W24126   0.379  14.350   3.512 -0.4846  0.1133  0.0405
 7653W        W24127  12.020  10.860  11.703 -0.2487 -0.0349  0.4627
 7654W        W24128  11.015  11.864   3.929  0.1670  0.0221 -0.3048
 7655W        W24129   4.353  14.648  12.827  0.0302 -0.2885  0.0150
 7656W        W24130   1.761   9.831  11.450  0.0011 -0.0276 -0.1818
 7657W        W24131  17.497  12.905   0.974  0.0294  0.1874  0.1416
 7658W        W24132  10.728  18.067  13.439 -0.1501  0.0801  0.1069
 7659W        W24133   5.565  13.828  11.382  0.2947  0.2528  0.2595
 7660W        W24134  18.466  10.901  14.972  0.0331 -0.2485 -0.3542
 7661W        W24135   9.134   7.617  11.274 -0.0389 -0.1523  0.3177
 7662W        W24136   6.786   9.494   3.644 -0.0637 -0.1899 -0.1007
 7663W        W24137   5.961  18.586  10.648  0.1337 -0.2080 -0.3326
 7664W        W24138  10.443  16.342  12.237 -0.2675  0.1529  0.0720
 7665W        W24139  11.080   9.343  14.678  0.0199  0.1916  0.0771
 7666W        W24140   9.909   8.339  11.189 -0.0332  0.0739  0.1389
 7667W        W24141  11.295  18.469   0.219  0.1300 -0.1908 -0.0985
 7668W        W24142  10.590   0.665   4.354  0.0715 -0.0635 -0.0083
 7669W        W24143  14.464   5.325   3.362  0.0431 -0.1621  0.0470
 7670W        W24144  18.285   3.269   2.482  0.0663 -0.3137  0.0275
 7671W        W24145  18.170  14.532   3.142  0.0750 -0.1269 -0.2133
 7672W        W24146  16.939   5.717   3.761  0.1441  0.1367  0.1438
 7673W        W24147   5.956  15.505  10.595  0.4733  0.1524  0.0755
 7674W        W24148   1.158   7.446  13.949 -0.0693 -0.1109 -0.0598
 7675W        W24149   6.703   6.192   4.980 -0.0387 -0.2378 -0.0381
 7676W        W24150  10.843  18.721  14.189 -0.4281 -0.0202  0.2294
 7677W        W24151  16.952  14.358  12.436 -0.0314  0.0096  0.1425
 7678W        W24152  11.222  14.159   4.569 -0.1434 -0.3846  0.0705
 7679W        W24153   6.960   4.343  14.629  0.0468 -0.2769  0.2575
 7680W        W24154  12.520   9.787   3.748 -0.1526 -0.1144  0.0336
 7681W        W24155  15.600   5.746   2.619 -0.0497  0.2170 -0.2674
 7682W        W24156   6.268  10.622   5.606  0.2068 -0.3796 -0.0371
 7683W        W24157  15.604   1.292  14.672  0.0024  0.0623 -0.0264
 7684W        W24158   8.463   4.332  10.862  0.3215  0.0367  0.0527
 7685W        W24159  10.850   7.864   3.624 -0.1950 -0.1014  0.1364
 7686W        W24160   3.292  10.698  10.989  0.1191 -0.0054  0.0435
 7687W        W24161   9.349   8.398   3.803  0.3776 -0.0050 -0.0962
 7688W        W24162   5.590  14.129   4.003 -0.1926 -0.1750 -0.1785
 7689W        W24163  18.475  10.321   4.255 -0.0964 -0.4055 -0.1375
 7690W        W24164   1.507   3.257   4.109 -0.2180 -0.1680 -0.1031
 7691W        W24165  11.213   2.774  11.106  0.2923 -0.0614  0.2201
 7692W        W24166   9.826   6.507   9.779  0.2007 -0.4189 -0.0967
 7693W        W24167  18.539   2.454  11.566  0.1493 -0.1596 -0.0010
 7694W        W24168   2.641   7.154   0.178  0.0477  0.0427  0.0855
 7695W        W24169   3.679  10.435  12.807 -0.2769  0.3515  0.1175
 7696W        W24170   2.403   3.694  12.847 -0.1105 -0.3259 -0.3524
 7697W        W24171   4.666  11.176   2.463 -0.0581  0.0189 -0.1015
 7698W        W24172  18.074   2.663   5.112 -0.1897 -0.0942  0.0340
 7699W        W24173  12.581   7.573  12.617  0.1299 -0.1606 -0.3562
 7700W        W24174   2.592   6.745   1.836  0.4170 -0.1662  0.0471
 7701W        W24175   5.233   6.725  11.877 -0.3877  0.5587  0.0664
 7702W        W24176  15.639  18.288   0.665 -0.2498 -0.1711 -0.0009
 7703W        W24177  17.673  13.301   0.596 -0.2078 -0.2200 -0.2780
 7704W        W24178   7.497  17.824   0.704  0.0100 -0.1653  0.0127
 7705W        W24179   8.949  11.058  14.287  0.0240 -0.0345  0.3212
 7706W        W24180   4.960   7.592  14.842 -0.3828  0.2580  0.1086
 7707W        W24181  10.816  14.542  10.031 -0.0606 -0.3019 -0.1743
 7708W        W24182   9.839  17.502   0.148 -0.4929 -0.3473 -0.3741
 7709W        W24183   1.129   1.334  12.057 -0.1204 -0.2107  0.0469
 7710W        W24184   5.325  15.267  11.849  0.1307  0.1766  0.1093
 7711W        W24185  18.868   5.427  15.055  0.0435  0.3381  0.0663
 7712W        W24186  11.887  15.980  12.197  0.4635 -0.0537 -0.3512
 7713W        W24187  13.492  17.344   2.973  0.3453  0.2172  0.2024
 7714W        W24188  11.668   1.202   1.400 -0.0383  0.2890 -0.0945
 7715W        W24189   7.885  14.551   3.038 -0.1131 -0.1424 -0.1224
 7716W        W24190   4.448   3.276  14.590  0.0573 -0.1403 -0.0599
 7717W        W24191  18.129   6.899   1.540 -0.0137  0.5222  0.0265
 7718W        W24192  10.468  14.838   3.013 -0.1351 -0.4064  0.1780
 7719W        W24193  15.499  12.737  13.611  0.2864  0.0179 -0.0320
 7720W        W24194   1.142  14.581  10.316  0.1893 -0.0957 -0.1433
 7721W        W24195  15.747  12.356   5.066  0.0420  0.2003 -0.1125
 7722W        W24196  17.722  17.448  13.889 -0.1797 -0.1046  0.3099
 7723W        W24197  18.644   3.135  13.599  0.0771 -0.3631 -0.2418
 7724W        W24198  16.263  10.478   1.552  0.1572  0.0584  0.2086
 7725W        W24199  17.271  17.921   2.256  0.0863 -0.1685 -0.1271
 7726W        W24200  12.909  16.349   3.391 -0.0092 -0.0721  0.2564
 7727W        W24201   9.796   1.440   0.281 -0.0576 -0.1480  0.0480
 7728W        W24202   4.790   2.516   0.270 -0.1523 -0.1079  0.2703
 7729W        W24203  12.544   3.102   3.124  0.1154 -0.1778 -0.0093
 7730W        W24204   3.680  17.316   3.513 -0.1593 -0.0496 -0.1405
 7731W        W24205   4.488  10.774  14.277 -0.2323 -0.1787 -0.0215
 7732W        W24206  14.107   3.064   4.167  0.3315 -0.1471 -0.2478
 7733W        W24207  14.072   8.663   0.757  0.0914 -0.0739  0.1479
 7734W        W24208   4.920   2.282  11.120 -0.0497 -0.4826 -0.1395
 7735W        W24209  10.296   2.465   4.116  0.1207  0.0470  0.1834
 7736W        W24210   0.216   6.758   3.078 -0.0363  0.0997 -0.1658
 7737W        W24211   6.467  10.845   0.668 -0.0256 -0.1517 -0.0325
 7738W        W24212   7.068  18.090  14.520  0.1504  0.1811 -0.1780
 7739W        W24213   6.559   8.872   0.728  0.0528  0.0032  0.1448
 7740W        W24214  10.315   5.296   4.820 -0.0511  0.0005 -0.0769
 7741W        W24215   9.832   2.797   0.977 -0.0284 -0.1160 -0.1826
 7742W        W24216  14.117   1.597  12.380 -0.0742  0.0279 -0.3354
 7743W        W24217   0.068  13.031   0.195  0.1067  0.1543 -0.2376
 7744W        W24218   3.821  10.330   1.530  0.1763 -0.0823 -0.1135
 7745W        W24219   0.690   7.491  10.453 -0.4103 -0.0717 -0.1378
 7746W        W24220   2.690  12.830  14.878 -0.0132 -0.0372  0.0093
 7747W        W24221   5.864   0.039   4.907 -0.1227  0.1508  0.0276
 7748W        W24222  12.186   9.439  14.864  0.0237 -0.0904  0.2389
 7749W        W24223  18.829   1.306   4.639 -0.1505  0.2528  0.2667
 7750W        W24224  12.796   2.259  10.058 -0.0324  0.1482 -0.0040
 7751W        W24225   7.608   0.018  14.262  0.0965 -0.1575  0.2184
 7752W        W24226   9.371   8.119  14.205 -0.0497  0.0506  0.1143
 7753W        W24227  13.263   2.812   0.860 -0.0549  0.2076 -0.1048
 7754W        W24228  18.279  18.752   1.456  0.0515  0.0317 -0.0811
 7755W        W24229   3.235   6.049  12.963  0.3401  0.0762 -0.2767
 7756W        W24230  15.436   4.374  11.027  0.0113 -0.3546  0.0120
 7757W        W24231  11.766   0.103   1.988 -0.1681  0.1372  0.0225
 7758W        W24232  18.183   4.723  14.201 -0.2011 -0.0751 -0.1770
 7759W        W24233  11.998  10.544  13.720  0.1670  0.2368 -0.1541
 7760W        W24234   8.056  10.958  11.004  0.1322 -0.1067 -0.1855
 7761W        W24235  16.399   0.577   3.713  0.0543  0.2244 -0.1621
 7762W        W24236   2.889  11.915  11.390 -0.0017  0.1711  0.1102
 7763W        W24237  16.623  15.376   0.008  0.0096 -0.0735 -0.0916
 7764W        W24238   1.372   7.115  12.634 -0.1553  0.0906  0.1361
 7765W        W24239  14.396  14.401  11.100  0.0987  0.2750  0.0745
 7766W        W24240  18.631   9.255   0.857 -0.0419  0.0429  0.1308
 7767W        W24241  12.770   7.158  10.550 -0.1162 -0.0788  0.1417
 7768W        W24242   2.536   6.776  13.057  0.1051 -0.2138  0.1798
 7769W        W24243   7.544   3.614   1.803  0.1394  0.4571 -0.3332
 7770W        W24244  10.550  10.101  14.161 -0.0724  0.3069 -0.0086
 7771W        W24245  11.280   3.583   1.964 -0.1270  0.1448 -0.0539
 7772W        W24246   0.758   4.967   3.412  0.0626  0.1237  0.2312
 7773W        W24247  15.269  18.018   3.647  0.1908  0.0163 -0.3059
 7774W        W24248   4.007   6.816   2.292  0.1582 -0.0734  0.1019
 7775W        W24249   2.024   6.671  11.185  0.1231 -0.0560  0.0497
 7776W        W24250   7.811   5.337  14.060  0.2307 -0.2742 -0.4219
 7777W        W24251   8.268  15.979   0.410  0.0542  0.0279 -0.2894
 7778W        W24252  12.513  11.304  14.346  0.2390  0.0052 -0.1042
 7779W        W24253   1.791  13.735  15.045 -0.3266  0.0412  0.2599
 7780W        W24254   8.685   8.924   0.609  0.1098 -0.1491  0.1341
 7781W        W24255   9.502  10.821   5.166  0.1800 -0.0699  0.0098
 7782W        W24256  15.198   5.201  11.792 -0.2307 -0.0192  0.2100
 7783W        W24257  17.656  11.599   2.190 -0.1471  0.0834 -0.1609
 7784W        W24258   9.479   2.711   3.038  0.1478 -0.3719  0.0227
 7785W        W24259  14.133  12.483   4.291  0.0320  0.1419 -0.0537
 7786W        W24260  12.625   8.228  12.264  0.0358 -0.0317  0.1964
 7787W        W24261  15.019  11.962  13.471  0.1166  0.1801  0.0445
 7788W        W24262   9.058   0.417   2.450 -0.0659 -0.4670  0.0770
 7789W        W24263   8.976   4.236  12.090  0.1186 -0.0081 -0.1931
 7790W        W24264   9.127   5.036   0.720 -0.2591  0.0202 -0.0046
 7791W        W24265   6.949   9.525   2.966 -0.2001  0.1346  0.2303
 7792W        W24266  12.473   6.546   9.836 -0.1984 -0.1757  0.0205
 7793W        W24267  13.887   0.438  13.207  0.2880  0.1431 -0.0594
 7794W        W24268  10.882   9.644  11.063  0.0648 -0.1705  0.1866
 7795W        W24269  12.461  12.031   2.533 -0.3440  0.1059  0.0050
 7796W        W24270  11.743  15.229  10.725 -0.3961  0.3930  0.2878
 7797W        W24271  10.928  10.997  11.929 -0.0346  0.0333 -0.1969
 7798W        W24272  10.868   4.877   5.255 -0.0152  0.0965 -0.3658
 7799W        W24273   2.479   8.807   2.898 -0.0785  0.1172  0.1208
 7800W        W24274   9.982  10.761  14.038  0.1607  0.1695  0.2469
 7801W        W24275   2.019  16.141  13.915  0.1261  0.1325 -0.0272
 7802W        W24276  10.888   1.967   4.597  0.3219  0.0245  0.2043
 7803W        W24277   5.005  14.004  13.378 -0.0265 -0.1531  0.2079
 7804W        W24278   9.627  13.681  14.538  0.1861 -0.0560  0.1597
 7805W        W24279   5.434  10.847  14.268 -0.0828 -0.1053 -0.0540
 7806W        W24280  17.156   1.735  11.229  0.1875  0.1369 -0.0260
 7807W        W24281  16.161  18.770  15.053  0.2106 -0.2940  0.1185
 7808W        W24282  13.721  12.696   4.210 -0.1265  0.1038  0.4932
 7809W        W24283   5.958  12.777   4.671  0.2102  0.1469  0.2040
 7810W        W24284   3.312   5.888  15.068 -0.1240  0.0173  0.2948
 7811W        W24285   6.303   9.677  10.014 -0.2546  0.2281 -0.3525
 7812W        W24286   7.758  10.407   2.317  0.1794 -0.1489  0.0671
 7813W        W24287   2.014   1.321  13.441 -0.0228  0.1897  0.2150
 7814W        W24288  13.912  18.833   1.131  0.1389 -0.1256  0.0075
 7815W        W24289  10.543   7.519  12.629  0.4372  0.0252  0.1867
 7816W        W24290  19.102   5.405  10.574 -0.0575  0.0908 -0.4620
 7817W        W24291   9.380   9.604   1.837  0.0199 -0.2825  0.0196
 7818W        W24292   6.285  18.495  12.942 -0.1377  0.0832  0.0384
 7819W        W24293  11.404   7.409  10.427 -0.1155 -0.1806 -0.1465
 7820W        W24294   6.059  11.344  14.684 -0.3691 -0.2800  0.0942
 7821W        W24295  16.429  14.153  12.176 -0.0231 -0.0528 -0.3068
 7822W        W24296  12.435  18.062   2.771  0.1950  0.0803  0.1517
 7823W        W24297   4.954   0.221  13.849  0.2085  0.3523  0.1407
 7824W        W24298  10.919  13.633   0.783  0.0062  0.2275 -0.2649
 7825W        W24299   7.618   5.325   0.669 -0.0584  0.0251  0.1285
 7826W        W24300   4.658   6.650  11.500  0.0153  0.1727  0.1096
 7827W        W24301  14.795   3.252   3.304  0.1757 -0.2362  0.1661
 7828W        W24302   9.950  13.245  12.595 -0.0990 -0.0418 -0.1488
 7829W        W24303   7.815   4.232  10.260  0.1784 -0.3612 -0.1800
 7830W        W24304  15.075   1.987  12.027 -0.1494  0.2109  0.3889
 7831W        W24305  15.408   6.566   3.614 -0.2511  0.3386  0.0343
 7832W        W24306  19.037   4.964   0.519  0.1208  0.2051  0.0504
 7833W        W24307  12.519  12.474   0.681 -0.0366 -0.1117  0.2794
 7834W        W24308   7.784  17.871  12.837 -0.0799 -0.1375  0.0819
 7835W        W24309  14.378  14.688   0.701 -0.0365 -0.2893 -0.1461
 7836W        W24310  12.342   6.960  10.285  0.2337  0.1349  0.1238
 7837W        W24311   8.280  11.699   3.824  0.1091 -0.1057 -0.0058
 7838W        W24312  18.081   3.359   1.903  0.1477  0.3249  0.0006
 7839W        W24313   1.896   5.196  11.148 -0.0595  0.2573  0.3363
 7840W        W24314   0.938   5.025   0.633 -0.2617  0.1377  0.2141
 7841W        W24315   8.200  15.088  11.226 -0.0403 -0.0634 -0.0116
 7842W        W24316  15.892   1.330  12.560 -0.2075  0.0615 -0.1353
 7843W        W24317   8.666   1.709  13.893  0.1261 -0.0274  0.4016
 7844W        W24318   0.206   2.864   4.338 -0.0089 -0.1379  0.0206
 7845W        W24319  10.477   9.755  13.794 -0.1170 -0.1400 -0.0130
 7846W        W24320  15.996  10.773   2.106  0.1142  0.0870  0.0727
 7847W        W24321  12.203  18.325  11.144 -0.2446  0.1641  0.2556
 7848W        W24322   7.998   3.303  12.129 -0.0844 -0.1276  0.1654
 7849W        W24323   5.907  14.989  10.820  0.0126  0.0966  0.0368
 7850W        W24324   9.979  17.780  10.894 -0.0644 -0.4931 -0.0310
 7851W        W24325  13.634   2.255  14.489 -0.2204 -0.0562 -0.4008
 7852W        W24326  11.009   2.712  12.875  0.0823  0.1076  0.0729
 7853W        W24327   6.914   1.864  10.589  0.1300 -0.1304 -0.0709
 7854W        W24328   5.350   7.226  12.307  0.2285  0.0452 -0.0384
 7855W        W24329   2.204   4.857  14.512 -0.3985 -0.0556 -0.2778
 7856W        W24330   6.246  13.106  10.758 -0.5369  0.1817 -0.0328
 7857W        W24331  10.399  14.550   3.420  0.1328 -0.1742  0.1174
 7858W        W24332  12.418   0.295  14.360  0.2184  0.0644 -0.2315
 7859W        W24333   6.254  15.347  10.957  0.1094 -0.1646  0.1546
 7860W        W24334   9.569   3.726  14.723  0.0783 -0.3299 -0.2407
 7861W        W24335   0.129   7.961   0.684 -0.3419  0.2474 -0.0374
 7862W        W24336  13.827   0.317   1.535  0.1257  0.0417 -0.0022
 7863W        W24337  10.658   2.534  10.709 -0.1346  0.3117  0.1570
 7864W        W24338  11.858  17.258  14.374 -0.0986 -0.0973 -0.2859
 7865W        W24339   5.110   7.860   4.445 -0.0377  0.0878  0.1984
 7866W        W24340  17.031   0.562  13.647 -0.2545 -0.2381  0.0016
 7867W        W24341  16.809   9.478   1.233  0.1318  0.1460 -0.0655
 7868W        W24342   5.961  15.092  13.124 -0.0841  0.0140 -0.0708
 7869W        W24343   4.220  15.931   3.988 -0.0522  0.2364  0.0121
 7870W        W24344   9.110   8.821  11.803  0.2980 -0.0513  0.1821
 7871W        W24345   8.936   8.412  10.450  0.3987 -0.2018  0.1924
 7872W        W24346   6.255   2.178   2.486 -0.0127 -0.1476  0.3086
 7873W        W24347  18.731   3.409  11.168  0.0754 -0.1393 -0.2568
 7874W        W24348  18.979  13.993   2.249  0.0317  0.0712 -0.2038
 7875W        W24349  15.757   0.876  14.404 -0.0831 -0.4644  0.1020
 7876W        W24350   8.587   2.980  14.751  0.1695 -0.1874 -0.0105
 7877W        W24351   7.205  14.863   4.592  0.0243  0.0671  0.0251
 7878W        W24352  18.334  13.943   4.275  0.0992  0.0532  0.2467
 7879W        W24353   0.172   1.013  14.412  0.0150 -0.2438  0.0130
 7880W        W24354  12.011   5.080  13.878  0.0685  0.1141 -0.2153
 7881W        W24355  12.850   1.162   0.174  0.1127  0.1526 -0.0599
 7882W        W24356   6.496   5.223   9.738  0.2076 -0.0057  0.1237
 7883W        W24357   6.154   7.939   5.353  0.1829  0.0035 -0.0844
 7884W        W24358   5.147  16.879   3.832  0.0069 -0.4232  0.0781
 7885W        W24359   3.538   8.181  10.688 -0.2212  0.2541 -0.1993
 7886W        W24360  12.344  11.060   1.488 -0.0256 -0.1087  0.1041
 7887W        W24361  11.034  13.280  13.135  0.0706  0.1405  0.0419
 7888W        W24362  17.646  18.838   3.361 -0.1779 -0.0778 -0.0465
 7889W        W24363  15.702  18.485   2.309 -0.0124 -0.0496 -0.3018
 7890W        W24364   3.595   3.394   1.232  0.2910  0.2107 -0.1912
 7891W        W24365  17.316  10.205   3.103  0.1995  0.0842  0.0758
 7892W        W24366  15.137  19.129   9.256 -0.2280  0.3298 -0.0600
 7893W        W24367   8.475  10.761  14.937 -0.1464  0.0917 -0.0615
 7894W        W24368   6.781   7.713  12.846 -0.0669  0.1249  0.0117
 7895W        W24369  17.497   3.847  11.076 -0.0517  0.2051  0.0538
 7896W        W24370   0.558   0.334   5.196 -0.1737  0.3275  0.1984
 7897W        W24371  15.678  16.010  11.831  0.0864  0.0181  0.3255
 7898W        W24372   6.809   9.383  14.445 -0.0097 -0.1289  0.2270
 7899W        W24373  12.196   3.860   2.370  0.0148 -0.0995 -0.0530
 7900W        W24374   4.035   8.509  11.895 -0.0923  0.0720 -0.2085
 7901W        W24375  16.873   6.670   2.297 -0.1629 -0.0235 -0.5135
 7902W        W24376   8.927   8.774  13.920 -0.0014  0.0690  0.3059
 7903W        W24377   4.459   6.067   1.716  0.2957 -0.1327 -0.2222
 7904W        W24378  13.073   0.531   3.240  0.0322 -0.0679  0.1446
 7905W        W24379  17.713   2.069   3.642 -0.0627 -0.0612 -0.0441
 7906W        W24380  15.998   2.120   1.024 -0.0488  0.3286  0.0083
 7907W        W24381   3.212   6.559  14.697  0.0039 -0.4239 -0.1475
 7908W        W24382  12.884  16.699   0.784  0.0287  0.0164  0.3114
 7909W        W24383   1.696   6.567  14.771  0.0294 -0.1859 -0.2816
 7910W        W24384  16.773   3.369  13.893  0.2487 -0.1086  0.1506
 7911W        W24385   6.478   9.444  10.448  0.0369 -0.1945  0.2613
 7912W        W24386  17.347  10.141  14.737 -0.0531 -0.2502 -0.1613
 7913W        W24387   2.274  11.441   3.097  0.2495  0.1485  0.2670
 7914W        W24388   0.541  14.468  12.445 -0.0905  0.2155 -0.0315
 7915W        W24389   6.276   2.660  11.072  0.2386 -0.0567  0.0540
 7916W        W24390  12.764  16.862   4.269 -0.3209  0.0203  0.1334
 7917W        W24391   4.981  15.034   1.132 -0.1291  0.0214  0.1570
 7918W        W24392   7.001   0.875  11.984  0.0946 -0.2925  0.3159
 7919W        W24393  10.653   1.284   1.303 -0.0777  0.0531 -0.4172
 7920W        W24394   0.884   9.428   4.289  0.0205 -0.2622 -0.0012
 7921W        W24395   4.548   6.031  14.655  0.1720 -0.0992 -0.1828
 7922W        W24396   4.493  16.687  10.791 -0.1892 -0.0337  0.1687
 7923W        W24397  10.747   0.368   1.787 -0.1153  0.2986  0.1455
 7924W        W24398   6.284  19.062  13.773 -0.2495 -0.4363 -0.0557
 7925W        W24399  13.201   0.766  12.549 -0.1222 -0.0651 -0.0590
 7926W        W24400  19.157  18.102   3.692 -0.1273  0.1567  0.0527
 7927W        W24401  14.652   6.716   4.757  0.0377 -0.1931 -0.2270
 7928W        W24402   0.404   9.570   4.393 -0.1723  0.1437 -0.0891
 7929W        W24403   5.602   1.434   5.070 -0.1693  0.0036 -0.3222
 7930W        W24404   0.676  16.711   3.705 -0.0661 -0.2549 -0.0811
 7931W        W24405  17.765  18.611   3.752  0.2185 -0.0634 -0.4132
 7932W        W24406   7.393   7.138  14.677  0.0741 -0.1689  0.2319
 7933W        W24407   7.662   7.819   0.345 -0.0009 -0.5115  0.0513
 7934W        W24408  11.909  11.989   1.080 -0.1049 -0.2736  0.3178
 7935W        W24409  15.570  18.254  12.239  0.1444  0.0609 -0.2381
 7936W        W24410  13.569   4.731   0.090 -0.1776  0.0722  0.0136
 7937W        W24411   7.999  11.016   5.864  0.0211 -0.0876 -0.1557
 7938W        W24412   7.276   2.126  11.523 -0.3221 -0.1532 -0.1919
 7939W        W24413  17.177   8.292   2.094  0.0320 -0.1218 -0.1212
 7940W        W24414  16.895  10.294  12.764 -0.0545  0.1517 -0.1997
 7941W        W24415   9.681  16.285  13.261  0.0497  0.3428 -0.0474
 7942W        W24416   3.567   0.238  11.919  0.2574  0.1796 -0.0666
 7943W        W24417   5.675  14.136  10.971 -0.4364 -0.1804  0.0835
 7944W        W24418   5.186  10.434   2.018  0.4422  0.0782  0.1667
 7945W        W24419   9.925   1.391   0.780  0.3290  0.2736 -0.0262
 7946W        W24420   0.661  14.433   4.746 -0.2481  0.2639  0.1188
 7947W        W24421   0.763   6.949   9.261  0.4649 -0.2861 -0.0537
 7948W        W24422   3.170   0.001   4.950  0.3029  0.2586 -0.4374
 7949W        W24423   1.462   3.592  13.660  0.0835 -0.0494  0.0234
 7950W        W24424  14.272   9.105   3.921  0.0624  0.0081 -0.0872
 7951W        W24425   4.157   6.704   0.166  0.0342 -0.1417  0.2109
 7952W        W24426   3.821  14.184   2.843  0.0113  0.0447  0.1086
 7953W        W24427   2.234  14.061  13.229  0.2905 -0.0074 -0.1009
 7954W        W24428   7.964  11.423   3.249  0.0996 -0.0270 -0.1016
 7955W        W24429  18.374  10.077  11.206 -0.2823 -0.1477  0.0095
 7956W        W24430  13.631  13.874   0.473 -0.1391  0.4114 -0.0617
 7957W        W24431  15.683   7.340   0.003 -0.0023  0.0998 -0.3765
 7958W        W24432  18.268   9.842   2.416 -0.2800  0.1228  0.0997
 7959W        W24433  16.689   6.213  12.362 -0.2681  0.1306 -0.3953
 7960W        W24434   4.526  17.220   1.501  0.1662  0.0002  0.2537
 7961W        W24435   6.085   9.912  10.905 -0.0219 -0.0438  0.1173
 7962W        W24436   3.375  11.943  11.121 -0.4069  0.1303  0.2932
 7963W        W24437   9.626  19.135   5.272 -0.2002 -0.3005 -0.3598
 7964W        W24438  17.147   4.629  12.256  0.0658 -0.0735 -0.3239
 7965W        W24439   8.717   9.284  13.161 -0.0731 -0.3180 -0.4612
 7966W        W24440  18.048  12.150   0.156  0.0190 -0.3212  0.0796
 7967W        W24441  18.907   5.157   4.004  0.0718 -0.0240 -0.1154
 7968W        W24442   0.431  11.154  13.604 -0.0651 -0.2686 -0.0221
 7969W        W24443   9.959  10.372   3.915  0.4746  0.1107 -0.2856
 7970W        W24444   6.698  10.318   5.505 -0.0148 -0.2591 -0.1921
 7971W        W24445   4.789  18.803   6.070 -0.1142  0.1492  0.4498
 7972W        W24446  16.710   8.778  10.907 -0.0087  0.0031  0.2719
 7973W        W24447   2.102   3.221   3.323  0.0728 -0.0341  0.0193
 7974W        W24448  16.665   1.629   2.289 -0.1578 -0.0096  0.1973
 7975W        W24449  12.503   2.866  12.059 -0.0932 -0.0797 -0.1718
 7976W        W24450   1.224   1.585  12.900  0.2235  0.2846  0.0542
 7977W        W24451  11.987   0.538   4.106 -0.0386  0.0615 -0.1940
 7978W        W24452   0.085  17.360   2.239  0.0412  0.5331  0.1408
 7979W        W24453   1.161   1.916   1.975 -0.0972 -0.0114  0.1241
 7980W        W24454  14.938  13.965  14.609  0.1974 -0.0468  0.3763
 7981W        W24455  12.674  13.808   0.366  0.3310 -0.1383 -0.0443
 7982W        W24456   1.502   7.562   2.128 -0.1323 -0.2153 -0.0809
 7983W        W24457  15.506   8.610   4.292 -0.2998  0.2784 -0.0341
 7984W        W24458   3.531  16.202   5.062  0.0456  0.1561  0.2641
 7985W        W24459  17.642   1.547  14.654  0.0284  0.0025 -0.1423
 7986W        W24460  15.985  12.222  11.268  0.0740 -0.1580 -0.0002
 7987W        W24461  10.501   7.539   2.516 -0.1494 -0.0669 -0.0873
 7988W        W24462  16.864  18.820   0.139  0.4455  0.1992  0.4282
 7989W        W24463   3.857   2.375   5.389  0.1946  0.0869  0.2564
 7990W        W24464  10.570  16.533   9.875  0.0434 -0.3674 -0.0735
 7991W        W24465  15.898  11.349   0.771 -0.0018  0.0634  0.4421
 7992W        W24466   0.302  11.200  14.692 -0.1471  0.2146 -0.4048
 7993W        W24467  12.986   1.131   4.903  0.0921  0.2817 -0.2876
 7994W        W24468   2.150   0.417   0.531  0.1811  0.2453 -0.2093
 7995W        W24469  18.219   9.301  12.027  0.1095  0.3967 -0.1830
 7996W        W24470  17.908  16.096   5.153  0.0462 -0.0715  0.0756
 7997W        W24471  13.595  15.209  12.671 -0.1749 -0.0122  0.1504
 7998W        W24472  17.735   9.231  10.320 -0.0416  0.0583  0.0170
 7999W        W24473   8.124   1.772  14.909  0.0362 -0.2709  0.0223
 8000W        W24474  11.442  11.707   0.705 -0.1900  0.0892  0.2013
 8001W        W24475   5.894   2.602   3.222  0.1002  0.3002 -0.1572
 8002W        W24476   6.526   9.106  13.519  0.2684 -0.1296 -0.4896
 8003W        W24477   5.530  16.591   4.114 -0.0299  0.1452 -0.1267
 8004W        W24478   9.826  18.425  14.163 -0.0661 -0.1665  0.2648
 8005W        W24479   3.953  17.220  14.681 -0.0399 -0.0718 -0.0516
 8006W        W24480   9.819  18.894   2.686 -0.2218 -0.4326 -0.1879
 8007W        W24481   1.523  11.943   4.657  0.0312 -0.0073 -0.0595
 8008W        W24482  13.774   1.432   2.069 -0.1388  0.0738 -0.3736
 8009W        W24483   9.479   0.113   2.395 -0.2207  0.1541  0.0932
 8010W        W24484   6.657  14.742  11.702 -0.0932  0.0125  0.2086
 8011W        W24485  17.990  10.108  13.971  0.2054  0.1503 -0.2132
 8012W        W24486   9.964   9.115   3.718 -0.4149  0.2189 -0.1889
 8013W        W24487   0.838  18.579  11.513  0.4145  0.0236 -0.1197
 8014W        W24488  10.126   4.397   3.312 -0.0266 -0.1587  0.1724
 8015W        W24489  16.641   2.387   2.893 -0.0758  0.1562  0.4212
 8016W        W24490   1.369  11.272   0.331  0.2518 -0.1712  0.0114
 8017W        W24491   6.708   1.846   2.352 -0.3881 -0.1402  0.0543
 8018W        W24492  15.180  14.220   5.266 -0.1123 -0.0328 -0.1355
 8019W        W24493  12.804  17.888   0.608  0.0457  0.0535  0.2680
 8020W        W24494   1.607  13.601   1.564  0.1621 -0.0252 -0.0354
 8021W        W24495   9.760   4.386   0.874  0.0045 -0.3210  0.1798
 8022W        W24496  11.664   4.481  13.373  0.0996  0.1511 -0.0246
 8023W        W24497   6.949   5.604   3.677 -0.1121  0.2296  0.2248
 8024W        W24498  14.986   9.483  11.241 -0.1812 -0.1067  0.2203
 8025W        W24499   3.528   5.190  11.393  0.1686 -0.0004 -0.0009
 8026W        W24500  19.077  15.723   0.539  0.0961  0.0202 -0.0953
 8027W        W24501   5.051  18.566   1.527 -0.2553  0.1285 -0.1454
 8028W        W24502  17.388   0.733  12.758  0.3633  0.1168 -0.2385
 8029W        W24503  17.718   4.287   2.016  0.2711  0.3080 -0.0872
 8030W        W24504  13.093  16.075   4.933  0.0062 -0.3318  0.1561
 8031W        W24505   6.635  16.521  13.078  0.0264  0.1334 -0.0255
 8032W        W24506  18.881   7.602  14.393  0.2231 -0.0121 -0.6640
 8033W        W24507  11.623   3.086  14.041  0.2183 -0.1754  0.1382
 8034W        W24508   7.884   2.422  11.103  0.0907  0.1289 -0.1043
 8035W        W24509   1.781  16.137  13.465 -0.2457 -0.1289  0.3324
 8036W        W24510  16.998   2.727  12.108 -0.2008 -0.1134  0.1285
 8037W        W24511   0.597   6.149  11.092  0.2209  0.0314 -0.3697
 8038W        W24512   5.385  15.327   0.345  0.0206 -0.1201  0.1437
 8039W        W24513  13.268   4.510   1.599  0.0461 -0.1013  0.0659
 8040W        W24514  14.336   4.971   2.980 -0.1014 -0.3996 -0.3209
 8041W        W24515   5.396   8.402   1.720  0.0459 -0.2489 -0.2327
 8042W        W24516   6.970   2.896  13.732 -0.1626  0.1050 -0.0952
 8043W        W24517   5.348  18.980  11.877 -0.0676  0.0653  0.0621
 8044W        W24518   9.906  11.389   4.511  0.2112  0.1843 -0.0835
 8045W        W24519   4.625  10.075   9.812 -0.0524  0.2417  0.4303
 8046W        W24520  14.749  11.160   3.908  0.1971 -0.0437  0.1924
 8047W        W24521   9.882  18.049  12.224  0.0076  0.1249 -0.4415
 8048W        W24522   5.430   3.877  11.428 -0.2851 -0.1175 -0.1047
 8049W        W24523   6.010   2.291   0.749 -0.0297 -0.0126 -0.1467
 8050W        W24524  15.510   3.726   3.525  0.0015 -0.2941 -0.1785
 8051W        W24525  16.752  13.145  11.244 -0.1914  0.2931  0.2577
 8052W        W24526   8.462   6.850  11.570 -0.1434  0.2255 -0.0726
 8053W        W24527  11.102  18.805   1.409 -0.0428 -0.2050  0.0503
 8054W        W24528   0.478  18.857   0.051 -0.0315  0.1785  0.2480
 8055W        W24529   4.698   6.528  11.979 -0.1503 -0.0215 -0.2961
 8056W        W24530   5.040   9.213  13.383 -0.2775  0.1918 -0.2233
 8057W        W24531   2.048   5.211  10.635 -0.2754  0.0887  0.0952
 8058W        W24532  12.257   4.474   5.509  0.1327 -0.2292  0.3919
 8059W        W24533   0.413   3.277   0.467 -0.0084  0.1170 -0.1993
 8060W        W24534  16.163  14.898  11.946  0.1889 -0.0061 -0.2557
 8061W        W24535  10.958  17.105   2.038  0.2627  0.0647 -0.2755
 8062W        W24536  11.664   3.220   5.145  0.0241 -0.1928 -0.0872
 8063W        W24537   6.717   2.778  15.050  0.2650 -0.3106 -0.2691
 8064W        W24538   8.805   7.804  12.416 -0.0283  0.0642 -0.1246
 8065W        W24539  16.225   1.680  12.428 -0.1084  0.0928 -0.2211
 8066W        W24540  15.521  10.214   4.274 -0.0632 -0.1865  0.1078
 8067W        W24541   4.564   7.938  11.703 -0.0906 -0.1486 -0.1208
 8068W        W24542  14.829  18.815  14.756 -0.1600 -0.0455  0.2535
 8069W        W24543   8.235   4.095  11.442  0.1891  0.2914 -0.0569
 8070W        W24544   2.265  15.819   3.076  0.0919  0.2596  0.1710
 8071W        W24545  16.347  17.973   4.429 -0.1999 -0.0487  0.1285
 8072W        W24546  15.594  14.578  11.621  0.2929  0.0121 -0.1404
 8073W        W24547  14.826   4.707   2.988 -0.2032  0.1921  0.3039
 8074W        W24548   5.506  11.717   0.293 -0.0528 -0.0428  0.2162
 8075W        W24549   2.418  13.638   4.580 -0.3308 -0.1214  0.1374
 8076W        W24550  10.831  14.097  12.197 -0.1921 -0.0341  0.0222
 8077W        W24551   5.831   7.188   9.823  0.2527  0.0915 -0.4106
 8078W        W24552   1.948   8.137   3.429  0.0420 -0.0037 -0.2236
 8079W        W24553   2.026  17.438   1.041 -0.1780 -0.0584 -0.0875
 8080W        W24554   7.769   4.156   0.940 -0.2843 -0.3602 -0.1387
 8081W        W24555  17.612  12.780   3.911 -0.4478  0.0230  0.3571
 8082W        W24556   3.649   6.497   2.107  0.2671 -0.3010 -0.1826
 8083W        W24557  15.150   9.634  12.253  0.1169  0.0658  0.1247
 8084W        W24558   3.937  11.013  11.662  0.1053 -0.3157  0.1030
 8085W        W24559   9.185  12.125  12.826  0.0649 -0.2027  0.1189
 8086W        W24560  13.543   8.890   4.130 -0.2144  0.3101  0.2693
 8087W        W24561   2.799   8.169   5.331 -0.0541 -0.3516  0.0827
 8088W        W24562  11.247  18.638  12.294 -0.2230  0.0371 -0.2056
 8089W        W24563  14.307   5.763   0.472  0.0896 -0.4602  0.2214
 8090W        W24564   6.245  10.266  14.428  0.2056  0.2065 -0.0803
 8091W        W24565  16.293  13.073   2.817 -0.0765 -0.4350  0.1642
 8092W        W24566   4.759   8.025  14.853  0.0746 -0.0685  0.0912
 8093W        W24567   3.598   0.486  13.657 -0.3375 -0.2226 -0.1336
 8094W        W24568  10.300   0.441   0.591  0.2123 -0.0428 -0.0393
 8095W        W24569  10.143  11.651  11.896 -0.0333 -0.2010 -0.0115
 8096W        W24570  11.278  16.899  12.709  0.2870 -0.3210  0.0500
 8097W        W24571   6.066   9.354   3.792 -0.0428 -0.1667 -0.0948
 8098W        W24572  17.756  17.121   4.696  0.0600 -0.3910 -0.1534
 8099W        W24573   1.262   3.134  11.649  0.0857 -0.3159 -0.2534
 8100W        W24574   4.190   7.791  10.847  0.2955  0.3087  0.0783
 8101W        W24575  11.377   3.453   0.062  0.0767 -0.1976 -0.1548
 8102W        W24576  14.428  18.677  15.145  0.1605 -0.0369  0.0767
 8103W        W24577   5.079   2.103  11.933  0.1738  0.0398  0.0269
 8104W        W24578  12.453  14.984   2.671  0.3316  0.0055 -0.0076
 8105W        W24579  15.776  11.236   9.722 -0.0161  0.5003  0.2887
 8106W        W24580   6.567  11.554  12.062 -0.0506  0.3887 -0.4652
 8107W        W24581   8.733  11.593   3.962 -0.2314 -0.0124  0.2391
 8108W        W24582  11.439   2.104   3.539  0.0379 -0.2659 -0.0896
 8109W        W24583   0.443  15.688   0.691  0.0041 -0.1778 -0.0134
 8110W        W24584   3.690   3.615  11.696  0.0880  0.1232  0.0228
 8111W        W24585  13.236   2.521   2.949 -0.0627 -0.0528  0.3831
 8112W        W24586   6.404  14.328   1.297 -0.0478 -0.0091 -0.0491
 8113W        W24587   2.249  10.805  12.643  0.1075 -0.1674 -0.1105
 8114W        W24588  16.861  16.829  14.880 -0.1008  0.0558 -0.1108
 8115W        W24589   9.131   5.771  11.820  0.1560 -0.2873  0.0525
 8116W        W24590   1.083   0.191  15.014  0.1935 -0.1342  0.0387
 8117W        W24591   2.993   1.554   3.373 -0.2538 -0.4121 -0.1380
 8118W        W24592   4.662   0.360  13.112 -0.0388 -0.1267 -0.0631
 8119W        W24593   4.280   5.661  11.040  0.2184  0.0268 -0.3359
 8120W        W24594  16.741  13.842  14.933 -0.0572  0.1792  0.1297
 8121W        W24595   2.895  13.157   0.103  0.0027 -0.3498  0.1150
 8122W        W24596  16.940   1.663  10.728  0.1228  0.2182 -0.1387
 8123W        W24597  17.653  18.983   4.170 -0.0841 -0.0876  0.0158
 8124W        W24598  15.839   4.914  12.390  0.0762  0.0300  0.2510
 8125W        W24599   3.899  14.420   4.570 -0.2650  0.0441  0.0130
 8126W        W24600   7.623   0.131  11.875  0.1614  0.0131  0.2036
 8127W        W24601   4.241   4.772   1.683 -0.1770 -0.0023 -0.1275
 8128W        W24602   5.911  14.592   1.381 -0.1067 -0.1694  0.2077
 8129W        W24603  18.058  16.988   0.542 -0.2047  0.1723 -0.0060
 8130W        W24604   8.822   8.303  14.094  0.0010  0.2731  0.1511
 8131W        W24605  15.966   6.304   3.519 -0.0953  0.0851 -0.0881
 8132W        W24606   9.060   3.295  13.196  0.0762 -0.1835 -0.3385
 8133W        W24607   1.893   3.748   0.835 -0.0623  0.0510  0.3144
 8134W        W24608   7.941   3.179  13.538  0.2286 -0.0914  0.2710
 8135W        W24609  11.316  17.732   1.390  0.3899  0.1493  0.1138
 8136W        W24610   3.546  12.077   3.889  0.0875 -0.1060 -0.1671
 8137W        W24611  16.809   3.404   1.264  0.3103  0.0210  0.0919
 8138W        W24612  12.494  17.392  14.271  0.1341  0.0573  0.0334
 8139W        W24613  14.153  16.234   3.845 -0.0025 -0.1210 -0.1206
 8140W        W24614   5.268  15.763  15.097  0.4082  0.0174  0.1491
 8141W        W24615   9.327   0.429  14.725  0.1024 -0.2170  0.2075
 8142W        W24616  11.931   1.628   1.206  0.0436 -0.0596 -0.3727
 8143W        W24617   8.498  13.255  10.931  0.0196  0.1820 -0.1941
 8144W        W24618   9.853  15.492  14.774 -0.0933  0.1236 -0.0534
 8145W        W24619   3.498   7.306   1.622 -0.0357 -0.2214 -0.1580
 8146W        W24620   2.987   4.651   1.709  0.0950 -0.0117  0.0324
 8147W        W24621  12.063  11.208   1.952 -0.1853  0.1768 -0.1562
 8148W        W24622   6.447  16.140  13.263 -0.0774  0.0487 -0.3393
 8149W        W24623   2.741   2.794   5.020  0.3688 -0.0793  0.0704
 8150W        W24624  18.820  19.017  11.321 -0.1653  0.0224  0.1455
 8151W        W24625   7.423  13.578  10.838  0.0984  0.0129 -0.1480
 8152W        W24626   8.610   4.922  13.711  0.1563  0.1668 -0.0633
 8153W        W24627  15.614   1.718  12.411 -0.1313  0.3800  0.2901
 8154W        W24628   2.786  12.045  10.832  0.0062  0.1159 -0.0371
 8155W        W24629  11.777  12.286   3.971 -0.0952 -0.1584 -0.1935
 8156W        W24630   4.360   2.526   4.022  0.1467  0.0449  0.0406
 8157W        W24631  10.615   1.539  14.779  0.0698 -0.1206 -0.0899
 8158W        W24632  17.120   3.749  14.126 -0.3423 -0.1448  0.3061
 8159W        W24633  11.103  16.554  11.747  0.3675  0.1173 -0.1400
 8160W        W24634   0.623  12.081  14.038  0.0369 -0.2917 -0.0178
 8161W        W24635   7.789   5.747  11.117  0.2184  0.4518  0.0908
 8162W        W24636  11.251   1.401  12.274 -0.3524  0.1296 -0.1242
 8163W        W24637  13.420  19.024  10.746 -0.0244 -0.3126 -0.0051
 8164W        W24638   7.655  17.441  13.567 -0.1089 -0.0469  0.0581
 8165W        W24639   8.797  16.593  13.313  0.2917 -0.0495 -0.0296
 8166W        W24640  12.398   9.237   5.963 -0.1590  0.3603  0.3460
 8167W        W24641   3.577  15.763  11.480  0.1540 -0.0632  0.3322
 8168W        W24642  17.720   4.300  10.795 -0.2198  0.0539 -0.0049
 8169W        W24643  18.975  10.213  13.004 -0.1508  0.0846 -0.1116
 8170W        W24644   6.398   1.400  11.330  0.1572  0.2013 -0.1162
 8171W        W24645   7.355  16.484  14.951 -0.1587  0.1045  0.2007
 8172W        W24646   7.996   8.430  12.422 -0.0817 -0.1373  0.2289
 8173W        W24647   5.930   5.608  13.283 -0.0837 -0.1409  0.2811
 8174W        W24648  13.299  10.460  11.124  0.2663  0.0699  0.2177
 8175W        W24649  10.605  17.232   2.859  0.4338 -0.2904 -0.1573
 8176W        W24650  14.916  17.204  10.755 -0.1176 -0.2495 -0.2900
 8177W        W24651   3.668  18.862   3.807  0.0158 -0.1779  0.0547
 8178W        W24652  10.120   7.535  14.343  0.3926 -0.0379 -0.1543
 8179W        W24653   8.992   2.951  11.145 -0.2940  0.1656 -0.3447
 8180W        W24654   0.131  14.436   4.902 -0.0329  0.2102 -0.0608
 8181W        W24655   1.263  15.199   0.981  0.0047 -0.0479  0.0915
 8182W        W24656  17.211   0.854  13.992 -0.1984 -0.0037 -0.0422
 8183W        W24657  11.311   8.689   0.609 -0.1092 -0.0976  0.3556
 8184W        W24658  12.952   9.579   1.885  0.1415 -0.1447 -0.1476
 8185W        W24659  10.233   4.322   0.954  0.3511 -0.4416 -0.0311
 8186W        W24660  11.729   4.725   1.721  0.0721  0.0565  0.2104
 8187W        W24661  12.025  10.427   0.681 -0.0619  0.2027  0.1822
 8188W        W24662   6.208  14.518   5.079 -0.2047  0.0621 -0.1289
 8189W        W24663   7.151  15.314   4.362 -0.1591 -0.2161 -0.0349
 8190W        W24664  10.464   1.075  12.989 -0.0989 -0.0757  0.0552
 8191W        W24665  18.837  16.123   4.137 -0.0295  0.1633  0.2421
 8192W        W24666   7.529  17.016   4.788 -0.0990  0.0562 -0.0314
 8193W        W24667   5.163  14.956  12.691  0.4048  0.0251  0.0804
 8194W        W24668   6.681   8.282  10.953 -0.0667 -0.1214 -0.0540
 8195W        W24669  16.514   6.103  12.891  0.0703  0.1089  0.1236
 8196W        W24670   2.721   1.716  11.620  0.0495  0.0200 -0.4445
 8197W        W24671  13.742   9.166  15.062 -0.2444  0.4063 -0.0188
 8198W        W24672  16.034   1.552   2.016 -0.3041 -0.0834  0.0267
 8199W        W24673  13.531   6.155   1.205  0.0534  0.2755 -0.0180
 8200W        W24674   2.041   7.669  12.789  0.1414  0.2536  0.2532
 8201W        W24675  14.827  18.505   2.895  0.3441 -0.1623  0.0063
 8202W        W24676   3.422  13.817  14.181  0.1585  0.1484  0.0143
 8203W        W24677   2.297  18.734   2.864  0.0086 -0.1266  0.0730
 8204W        W24678  12.882   0.803   2.857 -0.1925 -0.2037  0.1243
 8205W        W24679   0.221   3.630   2.750  0.0682  0.0918 -0.0330
 8206W        W24680   2.133  11.197  13.264  0.0053  0.3665  0.0210
 8207W        W24681  17.208  12.566   4.303  0.0636  0.0450 -0.0068
 8208W        W24682  10.136  15.301  11.701  0.3110 -0.2254  0.1594
 8209W        W24683  16.943   2.459  12.590  0.0201 -0.1168  0.0081
 8210W        W24684   1.731  15.318  15.139 -0.0567  0.0411  0.1975
 8211W        W24685  14.054  17.178   2.125  0.1687 -0.0380 -0.2038
 8212W        W24686  10.228   4.401  13.274 -0.0447  0.0756 -0.1873
 8213W        W24687   6.286   9.650   9.473  0.2319  0.0885 -0.0038
 8214W        W24688   1.257  12.068  13.318  0.1184 -0.0725 -0.0411
 8215W        W24689  18.241  11.077  12.346  0.2101  0.1469  0.3378
 8216W        W24690  14.084  15.732  14.811 -0.1421  0.0952  0.3013
 8217W        W24691   2.807   2.947  12.154  0.0238  0.2184 -0.0242
 8218W        W24692   7.964   5.801  13.977 -0.0453 -0.1038  0.4105
 8219W        W24693  14.194   6.852   3.960  0.0929  0.1727  0.1100
 8220W        W24694   4.473  17.166   4.743  0.0108  0.4086 -0.0725
 8221W        W24695   3.420  13.474  14.706 -0.0254  0.1931 -0.2325
 8222W        W24696   7.849  10.457   4.201  0.0160  0.2049  0.2246
 8223W        W24697   2.798  10.858  12.971  0.1947  0.2286  0.1002
 8224W        W24698  12.704  18.083   1.265  0.0717 -0.1981 -0.1174
 8225W        W24699   0.724   4.536   0.691  0.2067 -0.0393  0.1209
 8226W        W24700   2.192   9.647  12.222  0.1008  0.0010 -0.1085
 8227W        W24701   1.700   1.200   0.555 -0.1117  0.2733  0.0088
 8228W        W24702  17.335  18.823   4.598  0.2048 -0.3397  0.0989
 8229W        W24703  13.870  15.054  14.097  0.0180  0.1078 -0.1001
 8230W        W24704   3.559   7.257  14.193  0.2341  0.0734  0.1315
 8231W        W24705   9.467  14.143   4.212  0.0740  0.1668 -0.2386
 8232W        W24706   7.736   9.925   4.916 -0.2224 -0.1063 -0.1107
 8233W        W24707  10.327  13.213   2.066 -0.1161 -0.1365 -0.0167
 8234W        W24708   8.078   8.966   1.365  0.1004 -0.1117  0.0462
 8235W        W24709   1.250  10.796   1.357 -0.0562  0.2473 -0.1836
 8236W        W24710  12.599   9.250  11.892  0.1644  0.2808  0.0971
 8237W        W24711  17.106  15.605  12.364  0.0456 -0.0226  0.2737
 8238W        W24712  16.830   9.710   4.352  0.0655 -0.0889 -0.1800
 8239W        W24713  13.278  11.496  13.564 -0.1376 -0.0093  0.2413
 8240W        W24714   0.842   6.757  11.983  0.0902 -0.1596 -0.0659
 8241W        W24715  13.580   2.028  14.047 -0.2956  0.0799 -0.0900
 8242W        W24716  12.126   7.511   2.199 -0.0638 -0.1039  0.1207
 8243W        W24717   1.489   6.019  11.003 -0.1341  0.2582  0.1540
 8244W        W24718  13.428   6.963   4.509 -0.1057  0.0177  0.5147
 8245W        W24719  15.304  12.313  13.724 -0.1018 -0.1746 -0.0785
 8246W        W24720  13.325   6.534  11.069 -0.1198  0.0080  0.1148
 8247W        W24721   3.523   3.124   4.691 -0.0246 -0.0700 -0.0024
 8248W        W24722   8.441   4.443   2.586 -0.0371  0.2051  0.0483
 8249W        W24723   2.772  18.045  12.549  0.0878 -0.2268  0.1000
 8250W        W24724   2.227  18.524   0.963 -0.0163 -0.1814 -0.2207
 8251W        W24725   2.367  15.600  10.730  0.3945  0.0876 -0.1569
 8252W        W24726  12.166  17.910   2.314 -0.0896  0.3039  0.0997
 8253W        W24727   1.336   6.855  12.139  0.0583  0.1889  0.1624
 8254W        W24728   1.380  16.747   1.149 -0.3479 -0.0852 -0.0284
 8255W        W24729   6.648   5.028   2.326  0.2363 -0.1710  0.2468
 8256W        W24730  12.455  15.048  14.063  0.1506  0.1071  0.4197
 8257W        W24731   6.548   2.154  10.916 -0.2260 -0.2328  0.1824
 8258W        W24732   2.515  12.983  12.539  0.0978  0.0993 -0.1655
 8259W        W24733  10.282   3.000  14.296 -0.3472 -0.0688 -0.3756
 8260W        W24734   4.694   0.355   0.537  0.2856  0.1723 -0.1852
 8261W        W24735   9.244   1.739  11.088  0.2399 -0.2803  0.1498
 8262W        W24736   2.591  17.192   1.058  0.0397  0.0326 -0.1943
 8263W        W24737  16.153   4.116  11.276 -0.1426  0.0247 -0.1457
 8264W        W24738   1.078  19.019  14.360  0.1041  0.1621 -0.3487
 8265W        W24739  17.242   9.741   4.570 -0.1374  0.1164  0.1975
 8266W        W24740  17.083   1.154   9.487 -0.0240 -0.1289  0.2619
 8267W        W24741   4.159  13.316   4.554 -0.0189  0.0402  0.0680
 8268W        W24742   9.669   3.832  10.654 -0.0397  0.0065  0.3369
 8269W        W24743  10.063   3.183   1.222  0.0402  0.0146 -0.1602
 8270W        W24744   6.546  13.308   3.899 -0.0401 -0.0614  0.0922
 8271W        W24745   6.438   9.401   3.281  0.2928  0.0520 -0.1257
 8272W        W24746   0.006   8.348   0.312  0.1408 -0.3538 -0.1168
 8273W        W24747  15.459  13.749   0.068  0.0243 -0.2929 -0.2574
 8274W        W24748  17.521  18.052  13.346 -0.3873  0.2654 -0.0604
 8275W        W24749  10.281   2.673   3.025  0.0667 -0.0007  0.1776
 8276W        W24750   1.414   2.178   5.069 -0.0850  0.0849 -0.2025
 8277W        W24751  11.803   2.750  11.229 -0.1268  0.1965  0.0163
 8278W        W24752  11.450  12.166   2.193 -0.0941  0.1955 -0.0395
 8279W        W24753   6.283  16.993  14.648 -0.0600  0.3106 -0.1858
 8280W        W24754  15.827  18.916   1.439 -0.0777  0.0403 -0.0853
 8281W        W24755  16.270   4.821   3.443 -0.0696  0.2689 -0.1291
 8282W        W24756   5.745   9.851  12.116  0.2347  0.2917  0.3917
 8283W        W24757   6.443   6.458  12.511  0.0776 -0.5083 -0.0371
 8284W        W24758   5.792   2.521  10.942 -0.1467  0.0278  0.3000
 8285W        W24759  16.410   1.588  10.757 -0.0046  0.3899  0.2145
 8286W        W24760   6.683   5.035   1.029 -0.1435  0.1442  0.0416
 8287W        W24761   0.575  12.971   3.664  0.3216  0.0348  0.0831
 8288W        W24762   3.354   2.712   1.935  0.5313 -0.1359  0.0262
 8289W        W24763   8.695   0.755  13.533  0.1379 -0.1736 -0.3137
 8290W        W24764  18.879   1.788   1.080  0.0504  0.1336 -0.1697
 8291W        W24765  16.388  13.279  13.828  0.2841  0.2317 -0.3066
 8292W        W24766   0.224   1.256  13.340  0.0129  0.1580  0.0089
 8293W        W24767  15.140  15.812  12.623  0.0359  0.2027 -0.2660
 8294W        W24768   9.216   9.197   4.372 -0.3667  0.3385  0.2349
 8295W        W24769   0.577  17.070   2.503  0.2086  0.1650 -0.2543
 8296W        W24770   0.648  13.251  10.834  0.0401  0.3296  0.1819
 8297W        W24771  16.200   4.261  14.292  0.2823  0.2029 -0.3016
 8298W        W24772   6.631  14.530   2.142 -0.2461 -0.1824 -0.2005
 8299W        W24773   2.652  17.417   1.699 -0.0145  0.1765  0.2892
 8300W        W24774   6.993   1.610   4.455 -0.0991 -0.2453  0.0878
 8301W        W24775   1.388  14.033   4.438  0.2753  0.2849  0.0385
 8302W        W24776   5.735   5.727  13.701 -0.0858  0.1194  0.1659
 8303W        W24777  12.785   2.181   0.157  0.0143 -0.0930  0.2398
 8304W        W24778  18.864   7.834  11.070  0.0344 -0.0711  0.3106
 8305W        W24779  17.204  17.197   4.399 -0.2072  0.2740  0.0390
 8306W        W24780  18.263  13.049   3.500  0.0695 -0.0157  0.3404
 8307W        W24781  15.329   1.629   0.520 -0.5455  0.5762 -0.0619
 8308W        W24782  11.619  10.080   4.823  0.1000 -0.1289  0.0683
 8309W        W24783   1.016   0.999   4.927  0.0837  0.0877  0.0790
 8310W        W24784  14.066   6.105   4.082  0.0425 -0.1391  0.1719
 8311W        W24785   4.913  12.197  13.193 -0.2616  0.1962  0.0558
 8312W        W24786   1.753   1.058  12.916  0.2532  0.0297 -0.0367
 8313W        W24787   4.756   9.247  12.951  0.0096 -0.1257  0.1048
 8314W        W24788  10.076  18.817  10.928 -0.2968  0.1847 -0.4291
 8315W        W24789   1.639   5.749  14.566 -0.2063  0.1458 -0.0304
 8316W        W24790  13.946  17.173  10.901  0.0595 -0.0023  0.0421
 8317W        W24791   7.512   1.529   2.849  0.0135 -0.1093  0.0115
 8318W        W24792   6.365   4.063  13.869  0.2043  0.0323 -0.2275
 8319W        W24793   5.931   1.947  12.064  0.1224 -0.1900 -0.3725
 8320W        W24794   2.755  12.622  13.777  0.0925 -0.0805  0.1849
 8321W        W24795   9.544  14.714   5.039  0.3670  0.0941 -0.2580
 8322W        W24796   8.306   8.941  13.151 -0.1580 -0.0952 -0.1656
 8323W        W24797   1.578  11.740  14.096 -0.0791  0.2120  0.0915
 8324W        W24798  14.361   1.375   3.235 -0.0400  0.3779 -0.2282
 8325W        W24799  19.036  13.722  11.096 -0.1881 -0.1189 -0.2523
 8326W        W24800  17.746   4.794  14.931  0.0960  0.0146 -0.1411
 8327W        W24801   6.902   5.584   9.711 -0.1462  0.1374  0.0749
 8328W        W24802   5.320   2.684   3.214 -0.0005 -0.4700  0.1959
 8329W        W24803  14.812   2.412  13.880 -0.0181 -0.0348  0.0960
 8330W        W24804   7.059  13.077  13.001 -0.1713  0.2078  0.0261
 8331W        W24805  12.999   4.294   2.078 -0.0754  0.0288 -0.2769
 8332W        W24806   3.227  14.077  10.054 -0.3306  0.0782  0.0933
 8333W        W24807   3.407  17.869   5.293 -0.0574 -0.0178 -0.2144
 8334W        W24808  14.009  12.829  12.842 -0.1376  0.2876  0.0302
 8335W        W24809  11.981  18.808  10.210 -0.2683 -0.2269 -0.0122
 8336W        W24810  15.219  10.555   3.112  0.2722 -0.1924 -0.2140
 8337W        W24811  14.059   8.285  14.995  0.0642 -0.4735 -0.1931
 8338W        W24812   3.707   4.788  14.584  0.0738 -0.2777  0.1268
 8339W        W24813  11.434  12.226   0.142 -0.1540 -0.0161  0.0833
 8340W        W24814  15.582  17.175  12.591  0.0984  0.3386  0.1132
 8341W        W24815   9.333  18.446   4.138 -0.0892 -0.0420  0.0917
 8342W        W24816   6.801  12.497  15.026 -0.0425 -0.0654 -0.4069
 8343W        W24817   6.697  15.788   0.320  0.3434 -0.3027  0.0813
 8344W        W24818   8.682  17.233   1.154  0.0778 -0.2113  0.1757
 8345W        W24819   8.440   2.069  13.649  0.0007  0.2879  0.3015
 8346W        W24820   4.432   4.298  11.902  0.0119  0.0982 -0.1424
 8347W        W24821  12.498   6.060   2.889 -0.1569  0.0595  0.1162
 8348W        W24822  12.472   0.829  14.783  0.3872 -0.1679  0.2538
 8349W        W24823   8.013  18.707   0.173 -0.1477  0.2118 -0.1464
 8350W        W24824  14.841  17.504  10.000  0.2192  0.2596  0.4614
 8351W        W24825   4.589  18.809   2.822 -0.0449 -0.3585 -0.3012
 8352W        W24826  17.809   4.116   1.452 -0.0913 -0.1756 -0.0506
 8353W        W24827   2.319   4.331  14.692 -0.1956  0.2957 -0.2117
 8354W        W24828   2.653  16.713  14.521  0.0269 -0.1162  0.0332
 8355W        W24829   5.771  11.290  14.039 -0.3033  0.1290 -0.0061
 8356W        W24830   5.709   6.664   2.714 -0.0976  0.1809  0.0440
 8357W        W24831   1.079  11.096  14.727 -0.5056 -0.1480 -0.0744
 8358W        W24832  17.906   4.996   0.759  0.1076 -0.4026 -0.3768
 8359W        W24833   7.846  15.683   5.549  0.3584  0.2239  0.2457
 8360W        W24834  15.500   0.523   0.277 -0.1208 -0.0135 -0.0340
 8361W        W24835   8.970  11.296   1.058 -0.0225 -0.1273 -0.3600
 8362W        W24836  16.350   7.085   5.042 -0.0931  0.1608  0.2715
 8363W        W24837  17.921   8.824   1.887  0.2284  0.1643  0.3192
 8364W        W24838  15.228   6.650   2.520  0.0624  0.2278  0.0494
 8365W        W24839  15.537   6.423  10.507  0.1512 -0.1236  0.5664
 8366W        W24840  13.248  12.278  12.955 -0.3174 -0.1667 -0.2895
 8367W        W24841   8.340  16.784  11.997  0.1662 -0.2375  0.0462
 8368W        W24842   6.546   1.011   2.981  0.2630  0.1445  0.6277
 8369W        W24843   8.741   2.464   2.267 -0.0333  0.1065  0.2200
 8370W        W24844   5.000  15.728  10.797  0.3626  0.1881  0.4199
 8371W        W24845   6.718   8.872  12.076  0.4012 -0.3358  0.0606
 8372W        W24846  11.452  15.867  14.568 -0.0254 -0.1900  0.1270
 8373W        W24847   0.971  14.323   0.602  0.4505 -0.0085  0.2589
 8374W        W24848  14.184   0.035  11.304 -0.1579 -0.0820 -0.1026
 8375W        W24849   2.243  13.761  10.484 -0.1340 -0.0319 -0.3220
 8376W        W24850   7.232   6.828   0.639 -0.0148 -0.1552 -0.0960
 8377W        W24851  15.486  13.435  11.543  0.1406  0.1610 -0.0845
 8378W        W24852   3.983   9.176   0.986  0.2159  0.0515  0.1084
 8379W        W24853   4.724   4.389   4.334 -0.0465 -0.2516  0.1653
 8380W        W24854  17.968   9.334  12.437  0.1822 -0.2601 -0.0118
 8381W        W24855   4.937   0.891  10.583 -0.3274 -0.1849 -0.1452
 8382W        W24856   9.249  14.715  12.023 -0.0058 -0.2589  0.1021
 8383W        W24857  12.256  10.103  13.722 -0.0855  0.1420 -0.0349
 8384W        W24858   7.833   2.874  11.991  0.0359  0.2255 -0.0871
 8385W        W24859   3.458   2.639  11.607 -0.1735  0.0114  0.1860
 8386W        W24860  16.113  18.088   3.926 -0.0618  0.3986  0.0650
 8387W        W24861  13.197  17.924   3.051 -0.2145 -0.0987 -0.1077
 8388W        W24862  14.461  17.666   1.747  0.0874  0.2532  0.2987
 8389W        W24863   1.258   8.889  14.119  0.0180  0.0715  0.0299
 8390W        W24864  16.786   0.209   2.599  0.2908  0.1606 -0.2440
 8391W        W24865  17.359   7.718  13.110  0.1130  0.2068  0.3699
 8392W        W24866  18.284  12.960   5.015  0.3204  0.1140  0.2078
 8393W        W24867  12.853  17.418   0.334  0.0306 -0.3854 -0.0529
 8394W        W24868   3.491  17.129  13.921 -0.1770  0.1381  0.0969
 8395W        W24869   9.984   0.679   4.309 -0.0906 -0.0248 -0.0660
 8396W        W24870   3.536   7.334   4.393  0.0472 -0.3521 -0.0262
 8397W        W24871  15.051   5.639  12.880 -0.0412  0.0505  0.0870
 8398W        W24872   1.677   2.228   1.120  0.0605  0.1188  0.3931
 8399W        W24873   4.880  10.714  11.190  0.0113 -0.3281 -0.0282
 8400W        W24874  17.194  12.231   5.241 -0.0203 -0.2750 -0.0944
 8401W        W24875  17.678  11.065  10.662 -0.0125  0.4657  0.3456
 8402W        W24876  14.342  14.677  12.863  0.1671  0.1110 -0.1774
 8403W        W24877   1.311  17.698   4.053 -0.1185 -0.0862 -0.1661
 8404W        W24878  13.714   3.185   4.456  0.3998  0.0221  0.1572
 8405W        W24879  10.076  16.894  13.801 -0.2709  0.1538 -0.1304
 8406W        W24880  13.945   6.637   3.080 -0.1447  0.1844 -0.0959
 8407W        W24881   4.930   5.215   1.970  0.0614 -0.2029  0.0390
 8408W        W24882  11.155  16.710  14.276  0.3860 -0.0747  0.1757
 8409W        W24883   7.818   3.042   4.560  0.0963  0.1025 -0.0333
 8410W        W24884  10.965  10.725  11.428  0.1793 -0.0933 -0.2088
 8411W        W24885   2.018   0.369  13.507  0.1924  0.0530 -0.0629
 8412W        W24886   6.729  14.398  12.218 -0.2308 -0.1951 -0.4350
 8413W        W24887  13.413  18.699   9.995  0.1607 -0.0270 -0.0867
 8414W        W24888  14.501  12.338   1.747  0.1385  0.2446 -0.2114
 8415W        W24889  17.004  18.999   2.817  0.1242  0.0316  0.1698
 8416W        W24890   0.616  16.160   5.246 -0.1205 -0.1290  0.0626
 8417W        W24891   8.658  12.607   5.068  0.1761  0.2529 -0.0315
 8418W        W24892   1.103  17.848  12.205 -0.1822  0.1662  0.1340
 8419W        W24893   6.860   8.068  14.781  0.1432  0.0553  0.1050
 8420W        W24894  17.466   1.956   2.060  0.0020  0.2536  0.0761
 8421W        W24895  14.256  13.233   1.622 -0.0163 -0.0913 -0.1054
 8422W        W24896  18.755   0.612  13.976  0.0953  0.0421 -0.1977
 8423W        W24897  15.336   8.177  12.790 -0.0712  0.1303  0.0305
 8424W        W24898  17.622   0.816   4.355 -0.4047 -0.0050  0.0002
 8425W        W24899  17.723  15.594  10.687  0.0379  0.3584  0.0181
 8426W        W24900   7.817  13.320  12.301  0.0633  0.1659 -0.3216
 8427W        W24901   4.392  16.705   1.296  0.1347 -0.1253  0.1399
 8428W        W24902   4.493   0.028  14.080  0.3063  0.3264  0.0679
 8429W        W24903   5.794  17.869   3.772 -0.0344 -0.1858  0.3975
 8430W        W24904  11.424  13.061  13.683 -0.3525  0.1266  0.0943
 8431W        W24905   8.746  14.096   0.076 -0.0744 -0.1633 -0.1033
 8432W        W24906  18.159   0.016   1.726  0.0331  0.4229  0.0726
 8433W        W24907   2.030  10.799  11.440 -0.1872 -0.3650  0.0246
 8434W        W24908  16.363   3.620  14.748  0.0712 -0.1197 -0.2577
 8435W        W24909   3.536   1.129   2.848  0.1194 -0.0469  0.3434
 8436W        W24910  10.178  14.373   2.978  0.1096 -0.1379 -0.0958
 8437W        W24911  12.674   8.196  15.066  0.1700 -0.0746  0.0408
 8438W        W24912   2.872   7.915   0.174 -0.4685 -0.2316  0.0547
 8439W        W24913  11.364  18.959  14.418 -0.0659  0.0283  0.1101
 8440W        W24914   1.817   2.821   0.439  0.1585 -0.1240 -0.0745
 8441W        W24915  18.564   2.992   9.787 -0.1720  0.2066 -0.2521
 8442W        W24916  10.952   1.302   2.033  0.1581 -0.1300 -0.3039
 8443W        W24917   0.164   8.988  13.162 -0.0145  0.0112 -0.1177
 8444W        W24918  13.482  14.632   3.437 -0.2201 -0.0985 -0.4281
 8445W        W24919  14.623  13.519   9.969 -0.0522  0.1460 -0.1502
 8446W        W24920   9.084  15.484  11.044  0.0487  0.0649  0.5661
 8447W        W24921  15.523   9.745  11.053  0.0279  0.2872 -0.3374
 8448W        W24922  17.608   3.886  14.315 -0.1127  0.0490  0.1433
 8449W        W24923  12.271   3.007   1.225  0.1163  0.1400  0.2206
 8450W        W24924  17.886  14.742  11.693 -0.2264  0.4266  0.2753
 8451W        W24925   7.229   9.222  10.894 -0.1264 -0.2516 -0.1004
 8452W        W24926  12.252  10.712   1.999 -0.0853 -0.0048  0.3012
 8453W        W24927   3.886  13.326  10.795 -0.0548  0.0058  0.0223
 8454W        W24928   4.126   3.927  10.491 -0.0057 -0.2563  0.2971
 8455W        W24929  18.997   8.155  14.617 -0.1100  0.2200 -0.0353
 8456W        W24930  18.573  14.032  13.137 -0.0751  0.2272  0.0014
 8457W        W24931  18.104   9.369   2.562 -0.1794  0.0399 -0.0072
 8458W        W24932   3.086   3.269  14.163 -0.0547  0.1080 -0.1466
 8459W        W24933   3.813   9.954   3.505  0.0190 -0.0438 -0.2191
 8460W        W24934   5.731   1.044   5.412  0.0258 -0.0234  0.1268
 8461W        W24935   8.264   7.261   2.491 -0.0322 -0.0196 -0.0071
 8462W        W24936  13.432   8.829  13.396  0.1508 -0.1398 -0.2501
 8463W        W24937   6.341  16.465  14.615  0.1893 -0.0163 -0.0300
 8464W        W24938  10.170   4.741  12.954  0.2720  0.0862  0.0792
 8465W        W24939   5.864   9.465  12.891  0.1139 -0.4367  0.0745
 8466W        W24940  10.360   6.796   0.869  0.2766  0.1579 -0.2676
 8467W        W24941   2.851   2.878   4.085 -0.0172 -0.0219 -0.1488
 8468W        W24942   2.283  12.468   2.606 -0.0865  0.1602 -0.2821
 8469W        W24943   9.634   4.019   1.151 -0.2333 -0.3102  0.0376
 8470W        W24944   0.963  13.712  14.440 -0.1177 -0.3053  0.0369
 8471W        W24945   2.495  15.974  14.939 -0.1092  0.0149  0.0317
 8472W        W24946  17.998  16.469  14.902  0.3093 -0.1228 -0.1671
 8473W        W24947  17.341   2.980  13.803 -0.1715 -0.0435  0.0390
 8474W        W24948  18.181  15.819   4.762 -0.0017 -0.1261 -0.2061
 8475W        W24949  12.084  11.628   0.666 -0.2752  0.1158  0.3336
 8476W        W24950  18.260  11.620  12.513 -0.0612 -0.0436 -0.0661
 8477W        W24951   2.155   0.883   3.231  0.1260  0.0709  0.0118
 8478W        W24952   0.916   3.712   2.934 -0.2150  0.1659  0.0969
 8479W        W24953   4.126   7.677   9.187 -0.0546  0.5547 -0.0219
 8480W        W24954  15.031   1.889   2.761 -0.2855  0.1154 -0.2136
 8481W        W24955  13.367   2.671   1.714 -0.1617 -0.0643  0.3593
 8482W        W24956   0.378   9.188   2.134  0.0751 -0.0025  0.0132
 8483W        W24957   7.676   8.722  13.761  0.1894 -0.0670  0.0341
 8484W        W24958  17.396  17.932   3.400 -0.2188  0.2740  0.2563
 8485W        W24959  17.566  16.139  11.581  0.3186  0.3545 -0.0685
 8486W        W24960   5.119   9.222   4.680 -0.4816  0.1539  0.3203
 8487W        W24961  18.430  13.810   2.010  0.1447  0.1905  0.2675
 8488W        W24962  12.101   7.033  14.796  0.0981 -0.2626 -0.1534
 8489W        W24963   0.844  10.471  10.708  0.0281  0.0221 -0.0726
 8490W        W24964   2.266   3.018  11.898  0.1919 -0.1217 -0.2768
 8491W        W24965  10.950   0.087  11.713 -0.1087  0.3293  0.0337
 8492W        W24966   1.790   8.086  13.983  0.0824  0.0878 -0.0170
 8493W        W24967   0.135  14.551  12.721 -0.3629 -0.0448  0.2084
 8494W        W24968   4.956   7.091  11.447  0.0629 -0.1206 -0.1465
 8495W        W24969  19.112   6.560  12.387  0.2382 -0.2678  0.2950
 8496W        W24970  13.017   4.324   1.196 -0.3102  0.1223 -0.0585
 8497W        W24971   6.640  13.489  14.306  0.1002 -0.0385  0.1632
 8498W        W24972  17.261   2.481  13.732 -0.1012 -0.0717 -0.0770
 8499W        W24973   5.671   8.103   9.417 -0.1739  0.1097 -0.1349
 8500W        W24974  17.681   7.200   9.682 -0.0499  0.1239 -0.0454
 8501W        W24975   5.170   2.174   0.155  0.1925  0.2507  0.1222
 8502W        W24976  17.802   0.844  11.373 -0.1447 -0.1199 -0.2108
 8503W        W24977  15.828   3.688   0.873 -0.0088  0.1008 -0.4214
 8504W        W24978   6.048   2.094   4.507  0.1798  0.2371  0.2010
 8505W        W24979   9.353  12.700  14.731 -0.1131  0.0189 -0.0968
 8506W        W24980  10.268   9.144   3.142 -0.0085 -0.2732  0.0997
 8507W        W24981  10.478   3.161   3.011  0.0233  0.4756 -0.2806
 8508W        W24982   5.816  17.305  14.949  0.1060 -0.5977  0.1600
 8509W        W24983   3.604  10.306  10.956  0.0064 -0.0394 -0.1452
 8510W        W24984  14.063  17.237  13.859 -0.0599  0.2212  0.0509
 8511W        W24985   0.723   8.304  13.739 -0.0455  0.1184 -0.2265
 8512W        W24986  14.165  10.337   1.472  0.0823 -0.2811  0.0977
 8513W        W24987   3.976  11.219   0.983  0.1694  0.1165  0.0190
 8514W        W24988   1.282  16.235   4.057  0.0939  0.0720  0.1363
 8515W        W24989   5.436   3.415  11.757 -0.0992  0.1497 -0.1295
 8516W        W24990   7.361  13.978   0.955 -0.0154 -0.0635 -0.1446
 8517W        W24991   1.759   3.414   0.465 -0.3961 -0.0216  0.4065
 8518W        W24992   8.491  13.821   1.786  0.0711 -0.2877 -0.4314
 8519W        W24993  18.929   8.923  14.229 -0.1547 -0.0938  0.3728
 8520W        W24994   0.553   0.177   4.616 -0.0257  0.4426  0.3871
 8521W        W24995   0.079  10.832  14.440 -0.2172  0.1388 -0.0433
 8522W        W24996  14.266  17.036   5.296 -0.0430  0.0943 -0.1434
 8523W        W24997   6.302   0.891  11.463 -0.0306  0.0568 -0.0319
 8524W        W24998   1.020   9.383   2.012 -0.1976 -0.0433 -0.0634
 8525W        W24999   7.160  18.067  12.404 -0.0926  0.0512 -0.3004
 8526W        W25000   6.367  17.192  11.187 -0.0132  0.2222 -0.2020
 8527W        W25001   4.717   7.000  14.845 -0.0325  0.0913 -0.0453
 8528W        W25002  15.462   4.283   3.908  0.1106 -0.0093 -0.1723
 8529W        W25003   5.779   3.543   2.957  0.0823  0.1227 -0.1868
 8530W        W25004   0.137   0.573  14.091 -0.2285  0.0372  0.2425
 8531W        W25005   8.511   5.601  10.519  0.2794  0.1714 -0.1658
 8532W        W25006   8.496   1.230  10.306  0.3159 -0.3309  0.2450
 8533W        W25007  14.371   0.107   2.690  0.1594  0.2137  0.2931
 8534W        W25008  10.671  16.800  13.830 -0.1597  0.0736  0.3354
 8535W        W25009  14.356   0.753  11.032 -0.0420  0.0269  0.1335
 8536W        W25010  12.366  15.285  11.673  0.0492 -0.0589 -0.0440
 8537W        W25011   7.186   8.472  14.643 -0.0587  0.1182 -0.2229
 8538W        W25012   0.499   2.618   1.480  0.4242  0.1568  0.1024
 8539W        W25013  17.279   6.042  14.141  0.3027  0.1505 -0.1636
 8540W        W25014   0.472  13.520  14.985  0.3694 -0.0475 -0.1939
 8541W        W25015   7.247   0.447  14.424  0.1941  0.0096 -0.1054
 8542W        W25016  17.596  10.546   9.917 -0.1969  0.0553 -0.0086
 8543W        W25017   2.102  11.568   2.158 -0.0291  0.2107  0.2228
 8544W        W25018   9.876   2.912   4.006 -0.0848  0.0005 -0.3978
 8545W        W25019  15.192   6.146  14.739 -0.1529  0.2803  0.0257
 8546W        W25020  10.593  18.573   2.006 -0.0409 -0.0724 -0.0929
 8547W        W25021   8.733  17.238   4.410  0.1384 -0.1926  0.2907
 8548W        W25022  11.084   1.482  14.902 -0.0400  0.0725 -0.0274
 8549W        W25023   2.474   5.560   0.961  0.2545 -0.3336  0.0805
 8550W        W25024   2.393   9.008  10.591 -0.3060 -0.2655  0.0094
 8551W        W25025   5.894   9.965   0.599  0.1598 -0.0347 -0.1659
 8552W        W25026  14.343  12.951   2.919 -0.2506 -0.2084  0.2719
 8553W        W25027   9.254   1.875   3.830 -0.0726  0.1490  0.0689
 8554W        W25028   2.209   1.920   0.103 -0.3278  0.2965  0.1375
 8555W        W25029  15.912  18.008   2.459  0.0190 -0.3870 -0.2756
 8556W        W25030   0.040   6.121   9.823 -0.0218 -0.0172  0.0785
 8557W        W25031   4.107   3.233   2.834 -0.1148  0.1445 -0.1103
 8558W        W25032  14.104  14.941   1.178 -0.2366  0.2752  0.0926
 8559W        W25033   4.502   6.490   9.989  0.2316 -0.2696  0.1183
 8560W        W25034   2.788  16.321  11.247  0.2238 -0.3746  0.1564
 8561W        W25035  12.337  12.310   4.029  0.0999  0.0062 -0.4046
 8562W        W25036  18.232   9.199   3.087 -0.1146  0.1024 -0.2258
 8563W        W25037   8.488   9.840  10.565  0.1983  0.1853 -0.1432
 8564W        W25038   1.279  10.365   0.041 -0.1674  0.0188 -0.1835
 8565W        W25039  14.079  14.975  15.093  0.3241  0.1562  0.1278
 8566W        W25040   8.542  17.053  14.548  0.1297  0.1268 -0.0257
 8567W        W25041  13.926  10.328   3.100  0.0607  0.1859  0.0563
 8568W        W25042   3.650   0.856   1.298 -0.0377  0.1812  0.1078
 8569W        W25043   5.870  18.205  13.005  0.0219 -0.1575  0.2842
 8570W        W25044   3.301  14.488  11.921  0.0924 -0.3099 -0.3734
 8571W        W25045   8.934  11.818  12.477 -0.1329  0.0921  0.2702
 8572W        W25046  14.280   2.330  11.610 -0.0521  0.0321 -0.1445
 8573W        W25047  14.558  14.836   5.043  0.2077  0.0020 -0.1793
 8574W        W25048   4.477   9.694  13.453  0.2832 -0.1722  0.1509
 8575W        W25049  13.667  10.985   3.967  0.0217 -0.0764 -0.0479
 8576W        W25050   8.599  12.848  12.687  0.1126  0.2705  0.1655
 8577W        W25051   8.735  12.498   0.700 -0.2761  0.1878 -0.0276
 8578W        W25052  10.090  12.060   3.740 -0.0874  0.3416 -0.0515
 8579W        W25053  11.272  11.467  12.469 -0.1790  0.1483 -0.1736
 8580W        W25054  16.028   6.377  14.740  0.0285  0.1010  0.1323
 8581W        W25055  15.762  10.942   0.223 -0.2167 -0.0513 -0.0028
 8582W        W25056   3.713  12.100   5.274  0.4710  0.0831 -0.0282
 8583W        W25057  16.878  12.017  12.567  0.1269 -0.4288  0.0433
 8584W        W25058   5.687   6.462  11.278 -0.1658 -0.4037 -0.2781
 8585W        W25059   6.961  14.732   0.480  0.0441 -0.1417 -0.2168
 8586W        W25060  14.741  13.951   0.466 -0.1467  0.2096  0.2799
 8587W        W25061  10.260   6.177  14.579  0.2146 -0.0910 -0.1290
 8588W        W25062   6.040   1.019   3.030  0.2228  0.1258  0.1461
 8589W        W25063  15.907   2.103  12.414 -0.2158  0.1532 -0.2270
 8590W        W25064   8.508  12.184   4.755 -0.0847  0.0702  0.2747
 8591W        W25065  12.540  16.352  13.387  0.1155 -0.0404 -0.0637
 8592W        W25066   3.946  16.270   4.164  0.4270  0.1162 -0.2408
 8593W        W25067   4.421  13.487   1.567 -0.3140 -0.2523 -0.0608
 8594W        W25068  12.422  18.164   0.141 -0.0154  0.0186 -0.2205
 8595W        W25069   8.258   7.891  10.803 -0.2624  0.0049 -0.3121
 8596W        W25070   9.724  15.033   2.298  0.0616 -0.1616 -0.1428
 8597W        W25071  14.907  14.097   5.712 -0.0287  0.1596 -0.0669
 8598W        W25072   9.403  11.906   4.999  0.2584 -0.1801 -0.1969
 8599W        W25073   1.466  11.591   1.492 -0.1100 -0.3658 -0.0649
 8600W        W25074   4.128  16.687   3.351 -0.0055 -0.1945 -0.3482
 8601W        W25075   7.090   7.259   5.720  0.2068 -0.1324  0.0696
 8602W        W25076  14.912   1.955  11.117  0.1094  0.0574 -0.1099
 8603W        W25077  16.386   6.482  14.336 -0.0178  0.0434  0.1370
 8604W        W25078   7.932   9.432   2.082  0.1253  0.2722  0.0617
 8605W        W25079  10.981  18.204   0.730 -0.0549  0.0508  0.1733
 8606W        W25080   8.883  10.172  10.532 -0.2261  0.0563  0.0065
 8607W        W25081  17.212   9.336  13.360  0.1138  0.1485  0.1908
 8608W        W25082   1.771  10.864  12.512  0.2875  0.0699  0.0833
 8609W        W25083   4.681  18.266  14.507 -0.1018 -0.2670 -0.0679
 8610W        W25084   6.786   8.090  13.796  0.0858  0.0249 -0.0466
 8611W        W25085  19.136   7.910  13.533 -0.4915  0.1298  0.0668
 8612W        W25086   8.123   2.186  10.282  0.1888 -0.0063 -0.2373
 8613W        W25087   4.091  19.156  14.920  0.0065 -0.2492  0.1880
 8614W        W25088   2.388  16.795  12.468  0.0503 -0.3693 -0.2632
 8615W        W25089   6.224   0.811   5.400  0.1828 -0.1505  0.0792
 8616W        W25090  15.784  17.485   9.667 -0.2517 -0.0558 -0.2854
 8617W        W25091   8.218   8.112   5.075  0.1852 -0.1833 -0.1485
 8618W        W25092   7.125  13.232   2.560 -0.2043  0.1756  0.1173
 8619W        W25093  14.548  10.298  11.766  0.2592  0.0924 -0.1153
 8620W        W25094  11.905  14.570   1.614  0.2207 -0.0465 -0.1158
 8621W        W25095  13.554   3.107   3.120 -0.2747  0.5622  0.0514
 8622W        W25096  12.307  17.816   1.066  0.0955  0.1658  0.2172
 8623W        W25097   9.737  11.743  13.741  0.2024  0.2159  0.1732
 8624W        W25098  10.406   5.854   0.849 -0.1068  0.0018 -0.3959
 8625W        W25099  18.190   9.041  11.208 -0.0552  0.0147  0.1032
 8626W        W25100  10.211   6.307   1.807  0.0060 -0.0463  0.2102
 8627W        W25101   2.365  15.383   3.875  0.1902 -0.0708 -0.0141
 8628W        W25102   6.203   6.482  10.464 -0.2351 -0.2025  0.3563
 8629W        W25103  12.255   5.296   5.155 -0.0008 -0.3004  0.2150
 8630W        W25104   3.310  14.120   3.209 -0.5509 -0.3028  0.0640
 8631W        W25105  16.762  18.254  11.810  0.1429  0.0354  0.0212
 8632W        W25106  17.910   8.197  12.350  0.2578  0.0601  0.1090
 8633W        W25107   2.173   4.506   3.752 -0.0974  0.0369 -0.0727
 8634W        W25108  12.533   4.011  12.982 -0.0912  0.1327  0.1484
 8635W        W25109  11.744   9.294   2.072  0.0117 -0.0450 -0.3511
 8636W        W25110  11.291   8.632  12.319  0.3070 -0.0490 -0.2968
 8637W        W25111  10.979   5.066   0.839 -0.0165  0.1427 -0.5003
 8638W        W25112  15.184  11.759   0.579  0.2496  0.2591 -0.3441
 8639W        W25113   2.971  14.300  13.340 -0.1355  0.1367  0.1415
 8640W        W25114   7.159   3.848   0.212 -0.1076  0.0676  0.0988
 8641W        W25115  11.764  11.075  11.300  0.2171  0.3331 -0.2418
 8642W        W25116  18.475   4.359  14.367 -0.0243 -0.0053  0.2842
 8643W        W25117   6.289  16.785  11.522  0.2542  0.1170 -0.0970
 8644W        W25118  12.793  13.921  13.557  0.1709 -0.1772  0.1751
 8645W        W25119   5.422  16.774  10.775 -0.1841  0.3262 -0.0932
 8646W        W25120  13.258   7.990   3.791  0.1995  0.0241  0.0597
 8647W        W25121  19.071  10.232   4.455 -0.1737  0.2833 -0.0346
 8648W        W25122   3.715  17.687   4.894  0.1206 -0.0112  0.3287
 8649W        W25123  15.043  13.638  13.859  0.2196  0.1879 -0.0534
 8650W        W25124   1.668  15.387   4.646  0.1089 -0.2185  0.0485
 8651W        W25125   8.141  15.956   3.015  0.0429 -0.1602  0.0010
 8652W        W25126  15.536  10.297  11.084 -0.0401 -0.1823 -0.2296
 8653W        W25127  16.348  15.173  10.644 -0.0578  0.1084 -0.4394
 8654W        W25128  10.248   9.137  13.740  0.1525  0.1028  0.1936
 8655W        W25129   5.109  16.099   2.709 -0.3530  0.0388 -0.1338
 8656W        W25130   4.863  17.717  14.555 -0.1360  0.0720 -0.2936
 8657W        W25131   1.942  16.415  11.542 -0.0426 -0.1590  0.2506
 8658W        W25132   4.017  16.889   0.973  0.2643 -0.0190  0.2089
 8659W        W25133  14.604   5.288  10.196 -0.0446  0.1033 -0.0833
 8660W        W25134   3.677   7.424   2.999 -0.0547 -0.1813  0.3837
 8661W        W25135   9.667   4.404   4.702  0.0063 -0.2386  0.2343
 8662W        W25136  12.940   0.914  13.578 -0.0870  0.1214 -0.0824
 8663W        W25137   4.843   3.487   3.847  0.1019 -0.1239 -0.0307
 8664W        W25138   3.054  13.250  11.668  0.1340 -0.3942  0.0273
 8665W        W25139  14.347  18.369   2.513 -0.0067 -0.3113 -0.0531
 8666W        W25140  12.157   2.182  14.111  0.2326 -0.2306 -0.1703
 8667W        W25141   0.078  13.413   1.235 -0.0970 -0.0531 -0.2289
 8668W        W25142  13.010  12.776   2.298  0.0473 -0.0786  0.1360
 8669W        W25143  18.136  19.054  14.228  0.0528  0.0280 -0.1297
 8670W        W25144   2.233  16.302   0.088  0.1095 -0.0898 -0.1125
 8671W        W25145   4.330   6.501  13.210  0.3056  0.0983 -0.1407
 8672W        W25146  14.323  16.665   3.132  0.0336 -0.0816 -0.1414
 8673W        W25147  18.862  13.536  13.423 -0.0056  0.1184 -0.0768
 8674W        W25148   1.776   7.581  14.719  0.2057 -0.1173  0.1188
 8675W        W25149  14.514  18.658   9.579  0.0905  0.0612  0.0213
 8676W        W25150  18.324   3.370  13.910 -0.0085 -0.1917  0.0343
 8677W        W25151  13.968  11.259   3.447  0.3869  0.0603 -0.1831
 8678W        W25152   4.205   4.226  11.013 -0.0824  0.2402 -0.1198
 8679W        W25153  13.362  17.230   1.251  0.3393  0.0547 -0.0268
 8680W        W25154   2.498   5.897   4.674 -0.1182 -0.1133  0.3473
 8681W        W25155   2.235   5.656  12.007  0.1627  0.0316 -0.2552
 8682W        W25156  13.797  10.793   4.827  0.0637  0.1521 -0.4613
 8683W        W25157  11.654  17.720   0.849  0.0883  0.0965 -0.1421
 8684W        W25158   7.068   5.750  12.892 -0.0889  0.0892  0.2231
 8685W        W25159   6.290  15.365  12.770  0.0252 -0.0280 -0.1566
 8686W        W25160   1.306   4.395   1.916  0.0809 -0.1329 -0.0703
 8687W        W25161  14.561   4.596  10.526 -0.1547  0.1320 -0.2208
 8688W        W25162   5.619   0.111  12.629  0.0780  0.2259  0.1473
 8689W        W25163  14.973  13.411   0.054  0.2704 -0.0572  0.1225
 8690W        W25164  11.497  18.319   3.485  0.0562 -0.1358 -0.1159
 8691W        W25165   1.903  17.579   5.521 -0.2822 -0.4514  0.1046
 8692W        W25166   9.650  13.927   0.318  0.0497 -0.2338 -0.0423
 8693W        W25167   6.482   6.783   2.324  0.2168 -0.3940 -0.3155
 8694W        W25168  14.750  17.761   9.564 -0.0877 -0.0960 -0.3043
 8695W        W25169  18.052   6.045  14.875 -0.1798  0.2193  0.2774
 8696W        W25170  17.709  13.706  14.084 -0.1022  0.3016 -0.2352
 8697W        W25171   6.215   5.510   3.138 -0.0092  0.0287  0.2690
 8698W        W25172  11.892  14.200   2.119  0.0158  0.1553 -0.0650
 8699W        W25173  17.381   7.775   1.305  0.0152  0.2493  0.0677
 8700W        W25174   2.444   8.036  11.505 -0.1704  0.0702  0.0307
 8701W        W25175  10.239  16.146   4.427 -0.2995 -0.2363 -0.0615
 8702W        W25176   8.081   5.409  12.521 -0.1588  0.1053  0.2107
 8703W        W25177   5.447  15.099  10.874  0.1530  0.1244 -0.1593
 8704W        W25178  18.141  10.310   3.040 -0.0929 -0.0904  0.0106
 8705W        W25179   9.924   2.117   0.026 -0.2030 -0.2618  0.1920
 8706W        W25180   2.815  16.430  13.546  0.1726  0.1461  0.0807
 8707W        W25181   1.014  12.939   0.544  0.0153 -0.0453  0.1957
 8708W        W25182   7.558   4.367   2.536  0.1274  0.1290 -0.3885
 8709W        W25183   6.264  14.190   2.266 -0.1593  0.1983 -0.3389
 8710W        W25184   3.783   6.555   9.601 -0.2466 -0.1776 -0.0982
 8711W        W25185  12.964   0.116   2.600  0.2184 -0.1164  0.2009
 8712W        W25186   7.209  16.598   0.742  0.1466  0.0933 -0.1748
 8713W        W25187  12.343   4.574  10.471 -0.0796 -0.1829 -0.1319
 8714W        W25188   8.313  19.068  10.734 -0.1216  0.2540 -0.2488
 8715W        W25189   9.934  12.760   2.003 -0.2378 -0.3717  0.1095
 8716W        W25190  11.839   6.773  10.801  0.0828  0.1122  0.1522
 8717W        W25191  13.342  10.221   2.347 -0.1041  0.3574  0.1504
 8718W        W25192  17.513   7.220  12.906  0.2642 -0.0464  0.1748
 8719W        W25193  13.461   7.195   3.500 -0.1229  0.2522  0.1557
 8720W        W25194  15.834  19.109  13.884 -0.2098 -0.0230 -0.0436
 8721W        W25195  15.418  15.712   0.114 -0.1646 -0.0792 -0.0325
 8722W        W25196   6.824   2.736   4.262 -0.2670 -0.0103 -0.0882
 8723W        W25197  11.255  15.080   1.377  0.0833  0.2412 -0.0350
 8724W        W25198  16.410  15.153  12.981  0.0017  0.0404 -0.1541
 8725W        W25199  16.923   9.566  10.593 -0.1967  0.0817  0.2123
 8726W        W25200   9.372   3.531   2.884 -0.0238 -0.1623 -0.1174
 8727W        W25201  12.735  16.958  14.235 -0.2096  0.4812  0.2968
 8728W        W25202  15.942   4.844   4.126 -0.1721 -0.5100 -0.2273
 8729W        W25203   9.238  10.970   1.377  0.3646  0.0866 -0.1994
 8730W        W25204   6.946  11.259  13.401  0.0141  0.0786 -0.0322
 8731W        W25205  15.031   2.588   2.425  0.3534  0.0441 -0.2203
 8732W        W25206   6.748  11.720   3.921  0.0538 -0.2002  0.1454
 8733W        W25207   5.902  12.739  10.792  0.4231  0.1189 -0.0681
 8734W        W25208  11.743   0.386   9.648  0.1728  0.0093  0.2042
 8735W        W25209   2.181   0.380   1.782  0.2185  0.3507 -0.2721
 8736W        W25210   3.343   6.204  11.570 -0.5882  0.3370 -0.1016
 8737W        W25211   8.789  17.281   3.515 -0.1894  0.2704  0.0367
 8738W        W25212   2.491  14.681   0.202  0.1801 -0.0474  0.2345
 8739W        W25213   5.479  16.994   2.792  0.0517  0.0365 -0.0205
 8740W        W25214  17.320  17.324  12.062  0.2525 -0.2843 -0.0449
 8741W        W25215   2.463   2.873   0.622 -0.3121 -0.0519 -0.0650
 8742W        W25216  11.749  18.094   0.196  0.2884  0.0758  0.0161
 8743W        W25217  14.673  16.320  13.134  0.0153  0.1155 -0.1072
 8744W        W25218  17.086  10.474   2.629  0.0419 -0.1678 -0.1337
 8745W        W25219   2.835  17.554   4.906  0.3208  0.1837  0.0928
 8746W        W25220  11.332  17.617   4.572  0.0760  0.3693 -0.0019
 8747W        W25221   6.474  10.370   4.591 -0.2751 -0.2055  0.4087
 8748W        W25222  18.124   4.522   2.961 -0.1252  0.0530 -0.0187
 8749W        W25223  14.408  16.757   4.522 -0.1280  0.3599 -0.1843
 8750W        W25224  17.000   2.274  11.223 -0.1008  0.1373  0.0132
 8751W        W25225   4.010   2.928   4.056  0.1596  0.1393 -0.0820
 8752W        W25226   0.561   2.501   2.028  0.2469 -0.4069  0.0229
 8753W        W25227  11.933  17.931  12.224  0.1082  0.2576 -0.1928
 8754W        W25228  18.192   1.122   0.659  0.0622 -0.2657 -0.0725
 8755W        W25229  13.031   5.858  12.210 -0.3118 -0.2280 -0.0759
 8756W        W25230   0.316   2.117  14.516 -0.0238 -0.0043  0.0345
 8757W        W25231   0.033   0.663  10.869  0.4197 -0.2822 -0.1059
 8758W        W25232   1.818  18.436  11.376  0.0937 -0.0747  0.0326
 8759W        W25233   8.600   5.570  14.366 -0.2093  0.2615 -0.0342
 8760W        W25234  15.322  19.078  13.031  0.1600 -0.0065  0.1718
 8761W        W25235   6.159   8.562   0.734  0.2133  0.0790  0.0491
 8762W        W25236  15.681  14.000  11.752  0.0184 -0.1451 -0.0115
 8763W        W25237  15.647  18.736  12.459 -0.6110  0.1730 -0.0570
 8764W        W25238   2.240   0.443  11.254  0.1408 -0.2031 -0.3816
 8765W        W25239   9.681   0.804  11.723  0.0390 -0.5069 -0.0306
 8766W        W25240   6.399  15.728   2.186 -0.1012 -0.2498  0.0135
 8767W        W25241  10.814   6.401  13.604  0.0546  0.1546 -0.0820
 8768W        W25242   2.865  14.429  13.849  0.2545  0.1099 -0.2469
 8769W        W25243  15.930   8.073   9.424 -0.1448 -0.2321 -0.1282
 8770W        W25244  12.217  13.078   5.646  0.0048  0.0413  0.2210
 8771W        W25245  10.290   9.852  12.163  0.0056  0.0587 -0.0439
 8772W        W25246   6.217   6.229   3.793  0.0152  0.0657 -0.0393
 8773W        W25247   6.444  14.817   1.169  0.2832 -0.1861 -0.2310
 8774W        W25248   2.957  17.438   0.890 -0.0419 -0.0931 -0.3113
 8775W        W25249  14.532  15.610  12.728 -0.3496 -0.0206  0.2584
 8776W        W25250   7.487  11.543  14.306 -0.0254  0.0935  0.1590
 8777W        W25251  14.697   6.507  12.329  0.1863  0.4697 -0.0580
 8778W        W25252   8.565   0.410   2.495  0.0215 -0.0625 -0.1669
 8779W        W25253   8.434   2.108  13.164 -0.1035 -0.0140 -0.0411
 8780W        W25254   7.492  14.797   3.316 -0.2546 -0.0957 -0.0972
 8781W        W25255  12.259   0.206   1.146 -0.0103  0.2228  0.3280
 8782W        W25256  16.456   5.039  11.069 -0.3509 -0.1733 -0.2412
 8783W        W25257  12.379  12.575   5.070  0.1878  0.0629  0.3385
 8784W        W25258  16.936   5.247   1.048 -0.1223 -0.2088 -0.1175
 8785W        W25259  14.597  12.084  12.452 -0.1159  0.0732 -0.1154
 8786W        W25260   0.129  14.889   3.947  0.0961  0.2169  0.2076
 8787W        W25261  17.518   2.971  11.754  0.0183  0.0738 -0.1717
 8788W        W25262   8.585  14.249   0.535  0.2242  0.2325 -0.2017
 8789W        W25263  14.129   8.623   4.583 -0.0549 -0.0825  0.1628
 8790W        W25264  17.555   1.665  10.694 -0.0526  0.0476 -0.1907
 8791W        W25265   1.114   8.089   9.970  0.3774 -0.1935 -0.2010
 8792W        W25266   4.551   1.026  13.659 -0.1916 -0.2881  0.0220
 8793W        W25267   0.878   5.200   4.632  0.2294  0.0440  0.0390
 8794W        W25268  10.710   9.187  12.650 -0.0410 -0.2068 -0.0440
 8795W        W25269  15.915  18.313   2.859 -0.2393  0.1185  0.0746
 8796W        W25270  15.423  11.477  10.883  0.4182 -0.4310 -0.3079
 8797W        W25271  14.907  15.996  10.887 -0.0128  0.0118  0.1759
 8798W        W25272  11.954   3.979   1.900  0.1928 -0.2099  0.0889
 8799W        W25273   4.407  12.681   4.467  0.1972  0.3660  0.3391
 8800W        W25274   8.134  17.502  11.052  0.0089 -0.3894 -0.0071
 8801W        W25275  13.268   6.799  12.691 -0.2101 -0.1011  0.2863
 8802W        W25276  18.872  15.632   4.032 -0.1901  0.1476  0.0020
 8803W        W25277   0.267  17.515  14.365  0.2526 -0.1366  0.0472
 8804W        W25278  10.572  19.044  10.485  0.0767 -0.1284  0.1537
 8805W        W25279  18.263  19.147  13.713  0.0096  0.0089  0.3323
 8806W        W25280  12.768  15.420   0.520 -0.0924 -0.2854  0.0068
 8807W        W25281   3.078  11.021   4.341  0.0282  0.2793  0.3617
 8808W        W25282  14.595   3.323  11.203 -0.0603 -0.2796 -0.0266
 8809W        W25283   3.853   1.312   1.934 -0.3339  0.1440  0.0342
 8810W        W25284   1.035  13.559   4.988 -0.0151 -0.0847  0.1096
 8811W        W25285   4.359   5.045  11.398  0.0106 -0.3419 -0.0656
 8812W        W25286   1.845  12.492   1.796 -0.0271  0.2465 -0.0165
 8813W        W25287  10.001  12.776  11.129 -0.0852  0.0847 -0.2571
 8814W        W25288  12.107   9.759   0.193  0.1359 -0.0520  0.1935
 8815W        W25289  11.043   4.458  13.664 -0.0026 -0.3362  0.1968
 8816W        W25290  17.712   8.343   1.986 -0.2029  0.1507  0.2506
 8817W        W25291   3.674   8.400   2.120 -0.0408 -0.0996  0.0690
 8818W        W25292  16.732   0.312   3.339 -0.1829  0.0923 -0.1755
 8819W        W25293   0.885  18.403   4.275 -0.3250 -0.0452  0.3102
 8820W        W25294   3.631   5.894  14.166 -0.0367  0.1875 -0.2877
 8821W        W25295  15.655   6.015  13.182 -0.2251  0.0993  0.0072
 8822W        W25296   5.722  13.568  11.811 -0.0028 -0.2195 -0.0598
 8823W        W25297  16.988  14.866  13.191 -0.1459 -0.1043 -0.1860
 8824W        W25298   3.315  17.907   2.331 -0.1968 -0.0818  0.0676
 8825W        W25299   6.017  14.021   3.208  0.2710  0.1272  0.0038
 8826W        W25300   8.331  16.942   3.452  0.1471 -0.0855  0.2168
 8827W        W25301   3.197   6.862  15.146  0.2832 -0.2699  0.1060
 8828W        W25302  15.748  11.614   3.971 -0.0635  0.2541  0.0302
 8829W        W25303  10.598  15.615   5.399  0.3369  0.0384  0.3229
 8830W        W25304   0.240   1.468  11.424 -0.0398 -0.0488  0.0868
 8831W        W25305  16.691  18.163  11.336 -0.2215  0.1161  0.3407
 8832W        W25306   0.094   5.643  13.541 -0.1509 -0.1593 -0.0684
 8833W        W25307  19.072  12.559   4.072 -0.0058 -0.0799 -0.1295
 8834W        W25308  10.845   8.536  13.458  0.3005 -0.1047 -0.0325
 8835W        W25309  12.573  13.787  11.652 -0.1715 -0.0955  0.0340
 8836W        W25310  13.090   0.726  11.351  0.0850 -0.2206  0.0294
 8837W        W25311  11.994   2.480   3.556 -0.1194 -0.1147 -0.4473
 8838W        W25312   1.044  16.197   1.778  0.2147 -0.2454  0.0930
 8839W        W25313   3.434   0.857   5.526 -0.2824  0.1019 -0.3177
 8840W        W25314  10.463  18.026  10.797  0.2310 -0.1096  0.2945
 8841W        W25315  17.433  18.608  12.741  0.0183 -0.0935 -0.1214
 8842W        W25316   7.747   6.073  10.419 -0.1257  0.1592 -0.1902
 8843W        W25317   1.313   9.851  12.589  0.2467 -0.5550  0.0505
 8844W        W25318  14.092   7.913   0.879 -0.0379 -0.0569  0.1801
 8845W        W25319   5.384  13.341  13.758 -0.0585 -0.2530 -0.0304
 8846W        W25320   0.358   7.499   1.621  0.1653  0.2426  0.4002
 8847W        W25321   5.855  13.794   0.603 -0.1088 -0.2067  0.0104
 8848W        W25322   0.848   0.565   3.512 -0.0583  0.0587  0.0339
 8849W        W25323   9.802   4.418   1.467 -0.1314 -0.1037  0.1083
 8850W        W25324  12.871  10.950  10.091 -0.0895  0.2308  0.0913
 8851W        W25325   3.621   6.752   1.616 -0.0928  0.3016  0.1248
 8852W        W25326   9.136  10.716   1.917 -0.1348 -0.1574  0.0492
 8853W        W25327   2.609  16.813   4.506  0.2873  0.1193  0.0667
 8854W        W25328   4.232   6.398   3.051 -0.0842  0.4659  0.0997
 8855W        W25329   3.280   4.697   5.618 -0.1070  0.1200  0.1529
 8856W        W25330  17.827  13.564  11.011  0.4887 -0.3878  0.0807
 8857W        W25331   5.873   9.173   1.222  0.0035  0.1982  0.1277
 8858W        W25332  12.237   8.396  13.808 -0.1613  0.3384  0.3410
 8859W        W25333   8.306  18.868  14.772 -0.1836  0.0377  0.4482
 8860W        W25334   6.000  13.606   1.024  0.1063  0.4449  0.1573
 8861W        W25335   4.747   0.892  11.297  0.2766  0.2661  0.0982
 8862W        W25336   8.637   6.224   0.035  0.0764 -0.3521 -0.0051
 8863W        W25337  15.549  10.510  14.029 -0.2815 -0.2153 -0.0547
 8864W        W25338   2.555   9.639  11.392  0.0165 -0.2495  0.1322
 8865W        W25339   4.384   5.585   5.216  0.0656 -0.0710  0.0542
 8866W        W25340  14.929   5.479  13.456 -0.1585  0.0098 -0.1357
 8867W        W25341   2.127  13.411  12.675  0.0031  0.0787 -0.1522
 8868W        W25342  14.419  10.412   4.299  0.0674  0.1022 -0.1673
 8869W        W25343  10.039  13.711  14.785 -0.1234 -0.1565 -0.0047
 8870W        W25344  15.596  16.416  13.712  0.3612 -0.0102 -0.0508
 8871W        W25345  15.329  19.063  13.613 -0.1658 -0.3354 -0.2936
 8872W        W25346   3.155  12.751  13.990 -0.1377  0.3613 -0.2931
 8873W        W25347   6.222  14.821   4.242 -0.1280  0.0361 -0.2381
 8874W        W25348  17.295  16.663   3.786 -0.1554  0.1543  0.0359
 8875W        W25349  10.736  16.159  12.627  0.0417  0.0400  0.1294
 8876W        W25350   6.074   1.089  11.873  0.1610 -0.1368 -0.1574
 8877W        W25351   7.971   5.057  14.935  0.1039 -0.0129 -0.1328
 8878W        W25352   8.770  14.710   0.264 -0.1215  0.3222  0.2634
 8879W        W25353  18.452   0.610   4.073 -0.2419  0.0202  0.2799
 8880W        W25354  11.775   8.459   5.699 -0.2862  0.1294  0.0291
 8881W        W25355   1.355  16.767  12.266  0.0722 -0.2373  0.0041
 8882W        W25356   8.096   1.943  11.042 -0.2729  0.1336  0.1162
 8883W        W25357   3.912  17.565   4.078  0.1197 -0.2379 -0.0427
 8884W        W25358   2.457  12.399   0.003 -0.2419 -0.0331  0.1012
 8885W        W25359  11.629   8.034   2.951 -0.0986  0.1757 -0.4920
 8886W        W25360  15.033   9.801   1.789 -0.0231 -0.2524 -0.2079
 8887W        W25361  12.490  17.752  12.475 -0.0622 -0.0195 -0.0764
 8888W        W25362   0.334   2.049  11.639 -0.3124  0.0661  0.1359
 8889W        W25363  12.281   7.904   1.859 -0.0954 -0.0341 -0.0144
 8890W        W25364  14.590   5.985  12.501  0.2479 -0.1595 -0.4717
 8891W        W25365  11.627  16.483   3.742 -0.2145  0.1099 -0.2329
 8892W        W25366  14.969   1.966  14.252  0.3017  0.1952  0.3134
 8893W        W25367   9.281  10.213   1.964  0.1435 -0.0775 -0.2376
 8894W        W25368   9.070   9.252   2.789  0.0568  0.2500  0.1230
 8895W        W25369   3.206   7.081   1.259 -0.3084  0.2331 -0.0267
 8896W        W25370   4.762   4.297   5.419  0.0500 -0.4299 -0.1860
 8897W        W25371  10.554   5.387   5.266 -0.0597 -0.2344  0.0176
 8898W        W25372  18.750   0.219  11.728 -0.3555  0.1432 -0.0213
 8899W        W25373   7.015   4.809   9.427  0.1146 -0.1021 -0.1641
 8900W        W25374   5.846  17.677  12.341  0.0945  0.0588 -0.0209
 8901W        W25375   7.314  14.389   0.547  0.2877  0.0456 -0.0533
 8902W        W25376   5.361  16.240  12.161  0.2613  0.1824  0.0987
 8903W        W25377  13.908  12.047  11.122 -0.1578 -0.0220  0.0766
 8904W        W25378  11.677   7.248   3.398  0.1621 -0.0171  0.0286
 8905W        W25379   5.153   2.963   1.593 -0.2228  0.0880 -0.0219
 8906W        W25380  14.163   3.341  14.755 -0.0691 -0.2964 -0.3718
 8907W        W25381   4.004  12.976   2.173  0.0401 -0.2014 -0.1466
 8908W        W25382   5.067   8.040  11.783 -0.2774  0.3062 -0.1911
 8909W        W25383   2.520   6.313   5.602 -0.1498  0.0712 -0.1281
 8910W        W25384  10.839  14.368  12.738 -0.1328 -0.1156  0.1927
 8911W        W25385  14.719  14.207   1.388  0.1426  0.0864 -0.0359
 8912W        W25386  13.179  16.061  15.032  0.1905 -0.0006  0.2207
 8913W        W25387   3.167  18.855  14.475  0.2634  0.1840 -0.2853
 8914W        W25388  15.930  17.020  12.926  0.0550  0.2229 -0.2778
 8915W        W25389  16.495   0.785  12.126  0.0017  0.3448  0.2194
 8916W        W25390  16.947   5.877  13.193 -0.0949  0.0417  0.1911
 8917W        W25391   8.625  12.675  14.286 -0.1651 -0.0636  0.1636
 8918W        W25392   6.090   9.235  14.682  0.0419 -0.0923  0.0147
 8919W        W25393   7.569  13.577   2.945 -0.0202  0.2653  0.1938
 8920W        W25394  15.689  18.242   1.209 -0.2889  0.1367  0.0197
 8921W        W25395   5.991   7.383  15.105  0.0508  0.1483  0.3258
 8922W        W25396  14.831  15.130   0.711  0.1070  0.0961  0.1149
 8923W        W25397  16.277   4.973   1.701 -0.4453  0.2631 -0.0819
 8924W        W25398   2.482   3.558   4.953 -0.1024  0.2565 -0.1739
 8925W        W25399   4.613   8.793   3.113  0.1928 -0.0086  0.3399
 8926W        W25400  11.987  11.970   3.466  0.1507  0.1950  0.1277
 8927W        W25401   2.673   3.461   2.844  0.2321  0.2524  0.1241
 8928W        W25402  16.392  18.933  13.715  0.1708  0.0850  0.0410
 8929W        W25403   1.159   5.463  11.455 -0.0333  0.1441 -0.2750
 8930W        W25404   2.843  10.628  13.401 -0.0144 -0.1178 -0.1834
 8931W        W25405   4.662   1.855  12.716 -0.0330 -0.3088  0.3282
 8932W        W25406   0.880   6.179   4.081 -0.0818 -0.1273 -0.2658
 8933W        W25407   6.365  11.393  10.712  0.1431  0.1271 -0.1059
 8934W        W25408   0.158  12.989   2.169 -0.1167 -0.0083  0.1589
 8935W        W25409  17.144  12.522  12.376 -0.1890 -0.0639 -0.0718
 8936W        W25410  10.487   6.178   5.834  0.1436 -0.3604  0.1331
 8937W        W25411  14.782  13.332   2.217  0.0808  0.0597  0.0587
 8938W        W25412   2.567   8.911  13.338 -0.0148  0.1406 -0.1449
 8939W        W25413  11.641   0.953  12.942 -0.0384  0.2089 -0.0633
 8940W        W25414  12.239  11.755  14.255  0.0528 -0.2596 -0.2881
 8941W        W25415  16.073  18.782   2.275 -0.2661  0.2318  0.3623
 8942W        W25416   5.101   8.352   4.193  0.1745 -0.2285 -0.2648
 8943W        W25417   1.503  10.902   0.909 -0.2484 -0.0357 -0.1515
 8944W        W25418   3.958  12.811   0.165 -0.2672  0.0535  0.2317
 8945W        W25419   0.661   3.689   1.960 -0.1602 -0.0579 -0.0565
 8946W        W25420  15.250  15.385   1.243 -0.2734  0.1473 -0.1155
 8947W        W25421   2.408  12.548   2.140 -0.0232 -0.2375 -0.1634
 8948W        W25422  16.983   9.865  11.830  0.0893  0.2099  0.0896
 8949W        W25423  12.599  16.848   9.826  0.0683  0.2260  0.1292
 8950W        W25424   6.486  12.696  13.359  0.1662 -0.4287  0.0750
 8951W        W25425   6.468   6.000  10.738 -0.0025  0.0050 -0.1680
 8952W        W25426   7.258   3.592  11.632 -0.0655 -0.2089 -0.2128
 8953W        W25427   8.637   9.642  11.017  0.0551  0.2108  0.0414
 8954W        W25428  13.881  14.587  12.790 -0.2894  0.1572 -0.0409
 8955W        W25429  15.422  13.907  12.993 -0.2198  0.0857  0.0826
 8956W        W25430   8.429  11.110   4.923 -0.0516  0.0165 -0.1075
 8957W        W25431  17.170   4.990  11.705 -0.3126 -0.0669  0.2643
 8958W        W25432  17.900  12.432  13.986  0.1479  0.0260  0.1873
 8959W        W25433  15.597   6.400  10.981 -0.0880  0.4693 -0.0961
 8960W        W25434  12.706  16.013   3.884 -0.1040 -0.0307  0.0947
 8961W        W25435   5.930   4.628   2.985 -0.0317  0.2717  0.0843
 8962W        W25436   7.243   6.381  11.576 -0.3204  0.2558 -0.4006
 8963W        W25437   9.134   2.918   2.347 -0.1689 -0.0964 -0.2127
 8964W        W25438   7.376   3.943  12.030  0.1187 -0.1960 -0.0571
 8965W        W25439   3.154  15.290  12.757 -0.1502 -0.2322  0.0506
 8966W        W25440   2.042  14.277   2.029  0.3758  0.3227  0.0055
 8967W        W25441  10.587  10.955  13.765  0.3426 -0.1328 -0.0542
 8968W        W25442   6.558  18.171  13.469 -0.4202 -0.3370  0.1619
 8969W        W25443   3.310  13.071   1.846  0.1647  0.3058  0.1950
 8970W        W25444   3.360   1.417  12.866 -0.1413 -0.1141  0.0678
 8971W        W25445   7.313   4.289   3.379 -0.1412 -0.3141 -0.4322
 8972W        W25446  15.859   3.906   4.887 -0.1782  0.0560 -0.0775
 8973W        W25447  12.544  13.214   1.642 -0.0593 -0.0763 -0.0261
 8974W        W25448  18.397  10.288  11.669 -0.1111  0.2671 -0.0764
 8975W        W25449  10.478  10.759  10.698 -0.0004  0.0931  0.3227
 8976W        W25450   8.483   9.277   1.484  0.0007 -0.2776  0.1722
 8977W        W25451  13.876   3.449   1.264  0.1361  0.1963  0.1260
 8978W        W25452  11.746   6.960   1.556 -0.3354  0.1464  0.0396
 8979W        W25453   8.592   7.117  10.612  0.1328  0.4109 -0.0757
 8980W        W25454   1.055   6.621   4.212  0.0085 -0.2140  0.1776
 8981W        W25455  17.437   1.316   2.643 -0.1716  0.2260 -0.2822
 8982W        W25456   9.842  18.742   0.971 -0.0981 -0.1086  0.1679
 8983W        W25457  17.382  12.875   4.811  0.1326 -0.0439 -0.0528
 8984W        W25458  11.094  12.476   1.305 -0.0139 -0.1534 -0.1419
 8985W        W25459   9.946  12.628  12.278 -0.0697  0.0158 -0.1104
 8986W        W25460  15.562  18.784   0.565  0.3034 -0.1863 -0.0358
 8987W        W25461   6.084   6.926  12.801 -0.2748  0.0891 -0.0501
 8988W        W25462   3.255  10.095   4.018 -0.0119  0.1322 -0.0833
 8989W        W25463   6.255   7.849  13.588 -0.1298  0.1223  0.1006
 8990W        W25464   4.576   8.532   3.602 -0.0802  0.0411  0.0031
 8991W        W25465   3.878   3.447  14.772  0.0629 -0.1937 -0.2286
 8992W        W25466   0.443  14.742   3.109 -0.1957  0.0226  0.2579
 8993W        W25467   9.746  13.335   3.948  0.0375 -0.1084  0.0088
 8994W        W25468  13.751   4.425  10.231 -0.3057  0.3142 -0.3405
 8995W        W25469   1.105  10.876   2.719  0.0314 -0.0753  0.0772
 8996W        W25470  17.768  12.598   1.994  0.2329  0.0158  0.0235
 8997W        W25471   4.368   3.081   3.250 -0.1973  0.0817  0.3818
 8998W        W25472   7.943   5.590  10.615  0.2487 -0.1434  0.0541
 8999W        W25473  15.208   6.699  13.874  0.1373  0.2730  0.1154
 9000W        W25474   7.622   7.155   3.125  0.1144  0.0458  0.1022
 9001W        W25475  16.058   0.428  13.572  0.1212 -0.0622 -0.2101
 9002W        W25476  10.588   3.339  14.252 -0.1507 -0.1951  0.1701
 9003W        W25477   1.907  14.872   1.328  0.4382  0.1566 -0.0828
 9004W        W25478   7.269  16.256   3.066 -0.0144 -0.0502  0.1973
 9005W        W25479  16.788   6.794   9.465 -0.1967  0.0865  0.2354
 9006W        W25480  11.406  17.345   2.475  0.1174  0.0956  0.0411
 9007W        W25481  18.877   0.680  11.699  0.0656 -0.3599  0.0057
 9008W        W25482   5.850   4.271   3.387  0.0897  0.2872  0.0111
 9009W        W25483  12.004  13.966   1.163 -0.1695  0.3709  0.0027
 9010W        W25484   5.910  16.924  13.085  0.0544  0.2788 -0.1795
 9011W        W25485   0.182   0.043   5.094 -0.1070  0.0056  0.2748
 9012W        W25486  18.107   4.016  10.470  0.2322 -0.2354 -0.0779
 9013W        W25487   8.089  16.690  13.892  0.4581  0.0344  0.0949
 9014W        W25488  19.152   7.878   1.666 -0.0292 -0.1738  0.0221
 9015W        W25489   0.740  15.650   5.217  0.1135  0.1330  0.2504
 9016W        W25490   1.942   3.337   3.794 -0.0414  0.0428 -0.1352
 9017W        W25491  12.003   0.061   4.276  0.2258 -0.3658  0.0576
 9018W        W25492  17.985   1.077   1.921 -0.3251 -0.2513 -0.1555
 9019W        W25493   1.380   6.605  12.766 -0.1174  0.0449 -0.1201
 9020W        W25494  14.610  16.315   4.790 -0.0356 -0.1566 -0.3380
 9021W        W25495  14.733   8.417  10.956 -0.0711 -0.2907  0.0109
 9022W        W25496   1.103  10.751  11.155  0.1148  0.2789 -0.0167
 9023W        W25497   3.994  16.831   4.755 -0.0374  0.1474  0.0687
 9024W        W25498   8.862   4.741   1.091 -0.1329  0.1589  0.1395
 9025W        W25499   3.768   4.872   3.021  0.2733 -0.1284 -0.1973
 9026W        W25500   8.311   7.917  11.567  0.2495  0.3197 -0.1232
 9027W        W25501  11.581   6.553  12.007 -0.0375 -0.2950 -0.2153
 9028W        W25502   9.490  14.749   3.122  0.0506 -0.1663  0.2049
 9029W        W25503   1.759   3.432   2.920  0.0337  0.0051  0.0731
 9030W        W25504  16.371  13.373   1.928 -0.2302  0.0640  0.1902
 9031W        W25505   4.175  14.239  13.076 -0.0705 -0.1086  0.0495
 9032W        W25506   3.604   9.478  12.039  0.1950  0.1078 -0.1780
 9033W        W25507  11.526  12.693  15.087 -0.1514  0.3430 -0.1387
 9034W        W25508   3.752   0.314  12.753  0.3310  0.3891  0.0288
 9035W        W25509  11.224   2.220   2.174 -0.0956  0.2615 -0.0368
 9036W        W25510   3.479   5.092  10.207 -0.1576  0.1066  0.0700
 9037W        W25511   7.059   9.494  12.917  0.0432  0.0323 -0.1922
 9038W        W25512  17.474   1.564   3.416  0.0035  0.0992  0.0527
 9039W        W25513  12.382  16.751  12.360  0.0777  0.0038  0.2333
 9040W        W25514   4.967   3.083   4.189  0.2358  0.1962  0.2323
 9041W        W25515   7.030  15.604   0.060 -0.1530 -0.0442 -0.4057
 9042W        W25516  11.705   6.449   3.052  0.2952  0.1173  0.4794
 9043W        W25517   8.956   6.211   3.203  0.0423  0.3496  0.0767
 9044W        W25518  13.663   2.239  12.655 -0.1548 -0.1025  0.2078
 9045W        W25519  16.557   7.011  12.426 -0.1419 -0.0424 -0.4008
 9046W        W25520  11.649   0.928   3.909 -0.1399  0.1528 -0.2273
 9047W        W25521  13.529   4.497   2.975 -0.1410  0.3359 -0.1143
 9048W        W25522   3.251  11.566  11.457  0.2977  0.1448 -0.1404
 9049W        W25523  18.486  18.282  11.388  0.0811  0.1594  0.1687
 9050W        W25524  11.034  16.190   2.535 -0.2962  0.0189 -0.1081
 9051W        W25525   2.439   8.083   1.078  0.2564 -0.0857 -0.1213
 9052W        W25526  12.729   9.647  11.348  0.1522  0.1411 -0.0468
 9053W        W25527  16.614  15.069   3.523  0.4590 -0.0597  0.3923
 9054W        W25528  12.407   4.813  14.135 -0.1914  0.1243  0.1601
 9055W        W25529  14.254   9.318  15.124  0.0161 -0.0648 -0.2191
 9056W        W25530   4.897   6.880  14.401 -0.3045 -0.0769 -0.1510
 9057W        W25531   5.708  17.553  14.195 -0.1317  0.0508 -0.1827
 9058W        W25532   6.133  11.503   4.569 -0.1097 -0.0530  0.0694
 9059W        W25533   8.765   8.026  10.687 -0.5317  0.3423 -0.1037
 9060W        W25534  15.597  13.203   1.279 -0.2756  0.2561  0.0229
 9061W        W25535  11.087  13.822   3.037  0.0783 -0.3985  0.2410
 9062W        W25536   3.509  16.021   2.439  0.4522 -0.0296 -0.1956
 9063W        W25537  16.770   4.660  13.078 -0.1750  0.2366  0.0858
 9064W        W25538  16.289  14.197   1.869 -0.1013  0.0586 -0.2167
 9065W        W25539   0.035  18.740   2.931 -0.0642  0.4127  0.2425
 9066W        W25540   3.738  11.618  11.354 -0.0651 -0.1743 -0.0829
 9067W        W25541   3.012  17.949   0.917  0.1084  0.0273  0.1052
 9068W        W25542  14.501  12.853   3.444  0.1154  0.1032  0.3103
 9069W        W25543   0.343  16.719   5.205  0.0218 -0.0193 -0.2173
 9070W        W25544   8.199   8.920   5.454 -0.2120 -0.2389  0.2945
 9071W        W25545  12.526   5.050   1.077 -0.2805 -0.1132 -0.2788
 9072W        W25546   8.927  14.095   2.626  0.1902  0.0191 -0.3237
 9073W        W25547   9.080  12.986   2.937  0.2656 -0.1615  0.4699
 9074W        W25548   7.820   0.540   3.757 -0.4922 -0.1127  0.1205
 9075W        W25549   6.593  18.049  12.690 -0.2380  0.1901  0.2494
 9076W        W25550   3.037   9.054   2.019 -0.4057 -0.5021 -0.1294
 9077W        W25551  11.237   2.554  10.625 -0.2590  0.0103 -0.0275
 9078W        W25552  16.077   5.392   1.934  0.0385 -0.0600  0.1228
 9079W        W25553  16.272  16.266  13.208 -0.1393  0.1294 -0.0568
 9080W        W25554  10.414   7.852   4.629  0.0424  0.2506  0.1164
 9081W        W25555  11.095  17.238   9.438 -0.1056 -0.0663 -0.1604
 9082W        W25556   7.680  16.253   1.754 -0.0936  0.1081 -0.3131
 9083W        W25557   3.622  16.302  14.100 -0.0957  0.0092 -0.2699
 9084W        W25558   2.539   1.722  12.096  0.3160 -0.2848  0.1550
 9085W        W25559  14.866  18.626   1.303 -0.0516  0.3487  0.0806
 9086W        W25560  12.870   6.462   2.944 -0.1996 -0.1439  0.4012
 9087W        W25561  13.273  11.361   1.227 -0.0059 -0.0327 -0.0800
 9088W        W25562   7.557   6.764   1.636  0.0444  0.0219 -0.2263
 9089W        W25563  14.940  17.726   1.149 -0.0895  0.0848 -0.1245
 9090W        W25564  17.128   1.374   3.724  0.2984  0.3165 -0.1484
 9091W        W25565   2.295  10.793  10.150 -0.2347  0.1938  0.0195
 9092W        W25566  10.263   3.675   4.514  0.1793 -0.1948 -0.1483
 9093W        W25567   5.275   4.630   1.128 -0.0533  0.3305 -0.0488
 9094W        W25568  17.144   1.018   5.147  0.0501  0.3201 -0.2040
 9095W        W25569  12.636  15.846  12.450 -0.1224 -0.3562 -0.0568
 9096W        W25570   9.902  12.640  13.350 -0.0475  0.3114  0.0939
 9097W        W25571   7.273  17.037   2.179 -0.1631  0.0769  0.0831
 9098W        W25572  10.451   0.706   3.509  0.2732 -0.0051  0.1878
 9099W        W25573  13.647   3.607   4.651 -0.0477  0.0620 -0.1315
 9100W        W25574  16.397   7.378   2.329  0.1300 -0.1801 -0.1877
 9101W        W25575   3.715  13.211   0.494  0.4334 -0.0040 -0.1402
 9102W        W25576  13.635   3.237  13.483  0.1387  0.4349  0.0498
 9103W        W25577  16.999   9.072   5.326  0.0371  0.1943 -0.3626
 9104W        W25578   2.339   3.480  12.302 -0.2457  0.3036  0.2464
 9105W        W25579   7.455  13.186  12.727  0.3639 -0.0841 -0.1243
 9106W        W25580  12.024   6.900  12.530  0.3241  0.0689  0.0603
 9107W        W25581  12.116  18.892  13.934 -0.4678 -0.1250 -0.0081
 9108W        W25582   5.793  11.806   4.334  0.1005 -0.2016 -0.2034
 9109W        W25583   8.081   1.833  13.912  0.1951 -0.0528  0.0212
 9110W        W25584  10.731  12.723   0.743 -0.2366  0.1335 -0.1763
 9111W        W25585  18.580   0.146  12.404  0.0058  0.2050  0.2248
 9112W        W25586  15.526  13.018  12.670  0.1704  0.0265  0.0089
 9113W        W25587   1.597   7.849  13.214 -0.1776 -0.2035 -0.1159
 9114W        W25588  16.404   7.330  14.881 -0.2639 -0.1084  0.2706
 9115W        W25589  18.294   5.062  11.084 -0.1106  0.4734  0.5924
 9116W        W25590   1.531  16.525   9.654 -0.0601 -0.0663  0.0211
 9117W        W25591  12.752   7.087  13.450  0.4319  0.0204  0.4295
 9118W        W25592  18.845  16.550   1.033  0.2021  0.1757 -0.1010
 9119W        W25593   3.480   3.009  14.908  0.1106 -0.3406 -0.2860
 9120W        W25594  17.663   0.630   1.881 -0.2526  0.1269  0.1548
 9121W        W25595   4.735   6.130  10.213 -0.0214  0.0397 -0.0312
 9122W        W25596  14.229   5.369  11.278  0.0603  0.2972 -0.1186
 9123W        W25597  10.149   9.914  15.051 -0.0674  0.0208 -0.4687
 9124W        W25598   7.481   8.077   0.833  0.0852  0.2526 -0.1245
 9125W        W25599   5.666   9.234  11.195 -0.0578  0.1645 -0.0204
 9126W        W25600   1.763  12.464   3.653 -0.0392  0.4197  0.2282
 9127W        W25601  14.644  15.375  13.499  0.0950  0.3062 -0.1201
 9128W        W25602  17.801   3.147   2.811  0.4039  0.0629 -0.3436
 9129W        W25603  12.058  14.807  12.372  0.0110  0.2379 -0.1640
 9130W        W25604   6.355   3.189  11.317 -0.0385 -0.0623 -0.1273
 9131W        W25605  13.472   6.510   1.598 -0.2673  0.3277  0.1170
 9132W        W25606   5.396   6.370  13.280  0.1212 -0.1994 -0.1385
 9133W        W25607  15.363  16.118  12.280  0.0290 -0.2918  0.3176
 9134W        W25608  14.258  12.083  11.542 -0.0961 -0.1205 -0.0814
 9135W        W25609  12.334  12.363   1.126 -0.2336  0.0734 -0.1630
 9136W        W25610   6.641  15.083   4.393  0.1363 -0.4215  0.0691
 9137W        W25611   4.000  12.388  15.084  0.3502  0.0953  0.1103
 9138W        W25612  14.303  16.009  13.071  0.1136 -0.1510  0.3302
 9139W        W25613   1.475   4.171  10.411 -0.0886 -0.0373 -0.3053
 9140W        W25614   0.581   5.495   3.738  0.1902  0.0558 -0.4608
 9141W        W25615   5.241  18.431   0.602 -0.0635  0.1592 -0.0303
 9142W        W25616   8.555   7.274   4.160 -0.0423 -0.1422 -0.0074
 9143W        W25617  10.540  16.217  11.038  0.1441 -0.6411 -0.1861
 9144W        W25618  14.021   4.624   3.373 -0.1088 -0.0040 -0.0887
 9145W        W25619  10.108  13.554  14.228 -0.0418 -0.1633  0.0976
 9146W        W25620   7.908   5.076  10.715  0.2024 -0.0429  0.0279
 9147W        W25621   1.025  17.887   6.027  0.2398  0.0160  0.3708
 9148W        W25622   3.095   3.470   0.345 -0.0922  0.0190  0.2527
 9149W        W25623  13.393  13.352   0.112  0.1116 -0.1729 -0.0330
 9150W        W25624  11.157   2.148   0.844 -0.0830  0.0978  0.0659
 9151W        W25625  13.302  11.724  12.832 -0.1319 -0.1818 -0.0030
 9152W        W25626   9.429  12.305  14.436  0.1440  0.0044 -0.0454
 9153W        W25627  15.808   9.722  14.367  0.1695  0.1226 -0.1916
 9154W        W25628  14.964   1.208   9.923  0.0413  0.1701 -0.1741
 9155W        W25629   3.191  13.223   9.857 -0.3767 -0.1021  0.1022
 9156W        W25630   6.327  17.274   4.274  0.3533 -0.0071 -0.0520
 9157W        W25631  13.181  17.032  15.030  0.2110  0.3529  0.5952
 9158W        W25632  16.114  11.795   0.868  0.0776 -0.2283  0.1390
 9159W        W25633  15.737  15.653   1.129  0.1590 -0.0143  0.0964
 9160W        W25634   2.338  18.439   3.358  0.0036 -0.0183  0.3694
 9161W        W25635   8.892   6.587   2.383  0.3898 -0.1695 -0.0193
 9162W        W25636  12.253   8.930  13.948  0.3324 -0.2257 -0.1391
 9163W        W25637   4.089  10.732   1.702  0.1351 -0.0409  0.3494
 9164W        W25638   4.982   0.050  11.024 -0.0923  0.2507 -0.2247
 9165W        W25639   4.707   1.180  10.931 -0.4026  0.2263 -0.2891
 9166W        W25640  16.557  19.123  14.940 -0.0004  0.1790 -0.0610
 9167W        W25641  15.545   5.112  14.080  0.0906  0.0920  0.3885
 9168W        W25642   1.648  11.306  11.290 -0.4607 -0.3137 -0.0333
 9169W        W25643  19.137   9.115   5.213  0.2355  0.3825  0.5232
 9170W        W25644   1.041  16.516  13.564  0.1268  0.0995  0.0529
 9171W        W25645  13.293  12.351   3.146 -0.3197 -0.3558 -0.1552
 9172W        W25646  18.662   8.246  11.362 -0.0287  0.1163 -0.0994
 9173W        W25647  19.035  16.031   1.918 -0.0109  0.2093 -0.0265
 9174W        W25648  13.101  16.844  10.328  0.3129 -0.1462  0.1415
 9175W        W25649  14.622   1.496   2.380 -0.1818  0.0070  0.0478
 9176W        W25650   9.309  11.600   0.924 -0.0539 -0.1657 -0.2420
 9177W        W25651  13.970  17.085   0.692  0.3427  0.4034 -0.3216
 9178W        W25652   2.082   5.727   4.244 -0.1662 -0.0159 -0.2372
 9179W        W25653  16.239  17.950   3.430  0.1766 -0.0445 -0.2813
 9180W        W25654   1.368   3.508   4.539 -0.1722 -0.1423  0.3228
 9181W        W25655   6.238  14.658  13.977  0.3657 -0.2248 -0.0370
 9182W        W25656  11.646   5.572   4.646 -0.1362  0.1222 -0.0062
 9183W        W25657  14.975  10.480   1.083 -0.1135 -0.1921  0.1312
 9184W        W25658  17.636  17.987  10.522  0.1794  0.1679  0.2109
 9185W        W25659   5.039   2.088   5.131 -0.0830 -0.6341 -0.0500
 9186W        W25660   9.876  13.998  13.113  0.1831 -0.1408  0.1866
 9187W        W25661  14.071   1.269  11.944  0.1296 -0.0452 -0.2564
 9188W        W25662  11.405   2.974   1.125 -0.0343 -0.0641  0.1746
 9189W        W25663  19.011  16.831  13.354 -0.1100  0.2104  0.0214
 9190W        W25664   4.636   2.025  12.177  0.2694 -0.1832  0.0907
 9191W        W25665  19.075   2.212  10.734 -0.1675 -0.3277 -0.1505
 9192W        W25666   0.541   5.485   4.893  0.1292  0.0384 -0.0419
 9193W        W25667   5.104  17.878   2.376 -0.2524 -0.0356  0.3067
 9194W        W25668  12.153   0.230  12.616 -0.2389  0.0199 -0.1143
 9195W        W25669   1.709   5.707   3.470 -0.1465  0.0487  0.0933
 9196W        W25670  13.330  19.154   4.142  0.2344  0.1441 -0.0124
 9197W        W25671  13.105   6.734   1.457  0.0617  0.0452  0.1407
 9198W        W25672   6.737   1.851  12.091 -0.0864  0.1594  0.0038
 9199W        W25673  16.622   7.560  14.333 -0.0446 -0.3972  0.3390
 9200W        W25674  16.183   3.880   1.698 -0.3410 -0.0556  0.1734
 9201W        W25675  13.355   9.583   1.537  0.4762 -0.1344  0.4523
 9202W        W25676  13.170  13.775   0.105  0.1096  0.1303  0.0459
 9203W        W25677  15.266   5.648  14.716  0.0172 -0.2112 -0.2099
 9204W        W25678   8.350   4.216  11.942  0.3002  0.2353 -0.1077
 9205W        W25679  14.187   7.739   4.199  0.2140 -0.0244 -0.0881
 9206W        W25680  15.027   8.712   0.206  0.0549  0.1599  0.2432
 9207W        W25681   8.001  16.575   5.445 -0.0928  0.1421 -0.1158
 9208W        W25682  18.961  17.351  10.889 -0.5365  0.1069  0.0290
 9209W        W25683   2.322   7.125   4.345  0.1157  0.0595 -0.0304
 9210W        W25684  11.682  13.483  11.002 -0.2980 -0.0688 -0.0562
 9211W        W25685   1.482  11.073  13.301 -0.1383 -0.0056 -0.0134
 9212W        W25686   0.468  16.907  12.248 -0.1419 -0.2605 -0.0998
 9213W        W25687   5.132   8.795   1.509 -0.0628 -0.0125 -0.0378
 9214W        W25688  10.289  10.511   4.618  0.0532 -0.3113 -0.2493
 9215W        W25689  11.141   5.723   4.813 -0.0829  0.0565  0.1165
 9216W        W25690  17.707   3.344  11.049  0.0885 -0.0597 -0.1984
 9217W        W25691  17.782   9.531   3.122  0.0134 -0.1388 -0.0140
 9218W        W25692  11.445  14.805  14.443 -0.2733 -0.1391 -0.1713
 9219W        W25693   6.351  11.002   1.494 -0.0698  0.0971  0.0255
 9220W        W25694  10.707  13.480  11.024  0.0437  0.1028 -0.0836
 9221W        W25695  10.217   7.722  12.294 -0.1123 -0.2500  0.0869
 9222W        W25696  13.072  18.980   0.425 -0.2506 -0.1132  0.3906
 9223W        W25697   1.153   2.424  12.952 -0.0784 -0.2253  0.3814
 9224W        W25698   7.700  14.978   2.365 -0.1929 -0.1769 -0.1791
 9225W        W25699   0.748  13.247  12.957  0.1424 -0.0554 -0.0070
 9226W        W25700   0.684  10.946  13.954  0.2320 -0.0452  0.1714
 9227W        W25701   9.787   7.094  10.852  0.1927 -0.2465  0.2920
 9228W        W25702  15.250  10.340  12.781 -0.0805  0.1087  0.1284
 9229W        W25703  15.283   2.656  14.855  0.0116  0.1293 -0.3268
 9230W        W25704  16.702   7.322   4.195 -0.2110 -0.1476  0.0526
 9231W        W25705   6.132   2.548   4.598 -0.0176 -0.0002  0.0295
 9232W        W25706  18.067   5.018  13.399  0.0476  0.0166  0.2742
 9233W        W25707  11.776  12.749  14.645  0.4414 -0.1251 -0.0121
 9234W        W25708   0.748  10.847   4.168  0.4913  0.0866  0.2510
 9235W        W25709  10.911   5.802   1.079  0.2549  0.2997 -0.0907
 9236W        W25710  13.494   0.541   0.673 -0.2860 -0.0009 -0.5482
 9237W        W25711   6.605  15.400  13.309 -0.0515  0.5200  0.1519
 9238W        W25712  13.524   1.688  11.350  0.0893 -0.0094 -0.0155
 9239W        W25713  13.656  13.748   2.091 -0.1248 -0.3014 -0.1620
 9240W        W25714  13.473   9.252   1.917 -0.0370  0.4310 -0.3066
 9241W        W25715  17.494   0.030  11.131 -0.1199  0.1016  0.0358
 9242W        W25716   8.534   1.076   4.581  0.0827 -0.0681 -0.0072
 9243W        W25717  15.513  11.557  14.217  0.4173  0.2001 -0.0243
 9244W        W25718   2.643   3.254   0.963 -0.1235  0.1244 -0.0117
 9245W        W25719  14.372   1.915  10.786 -0.1122  0.1190  0.1318
 9246W        W25720  12.379   4.965   5.493 -0.1960 -0.1162 -0.0675
 9247W        W25721   2.209  14.720  11.854 -0.2050  0.3397  0.0993
 9248W        W25722  14.818  17.816   4.364 -0.0436  0.1799 -0.2750
 9249W        W25723  15.351  14.754  13.483  0.1153 -0.1525 -0.0677
 9250W        W25724   1.019   2.300   3.267  0.0147  0.3102  0.2578
 9251W        W25725   0.765   0.042  12.356 -0.1766  0.1858  0.0979
 9252W        W25726   6.987   3.616   4.640 -0.1313  0.3289 -0.1107
 9253W        W25727   3.201   0.253  13.875 -0.1404  0.1320  0.4214
 9254W        W25728   4.850  12.770   1.874 -0.1720 -0.1019 -0.1473
 9255W        W25729   6.802   5.887   1.223 -0.1210 -0.0904  0.3381
 9256W        W25730  17.385   6.597  13.039 -0.0720 -0.0603 -0.0381
 9257W        W25731   5.100   8.793  11.645 -0.0972  0.0649  0.2241
 9258W        W25732   4.599   5.432  14.250  0.0305  0.1141  0.1492
 9259W        W25733   7.957  14.365  11.451 -0.1833 -0.1023 -0.0453
 9260W        W25734   5.424  12.385   9.386  0.3348  0.1302 -0.3185
 9261W        W25735   8.552   8.660   2.168 -0.0487 -0.2773  0.0099
 9262W        W25736   3.745  16.725  13.845 -0.3059 -0.2046 -0.1510
 9263W        W25737  16.250  15.525  11.583 -0.0624 -0.1712  0.2532
 9264W        W25738   5.204  17.487   0.202 -0.1386 -0.1411  0.1627
 9265W        W25739   6.437  12.911   4.767  0.1371 -0.2588  0.2296
 9266W        W25740   1.591   4.807  12.075 -0.0459 -0.0632  0.0564
 9267W        W25741  14.354  11.886   1.552 -0.0585  0.0783  0.0140
 9268W        W25742   2.260   4.839  10.965  0.1630 -0.1199 -0.1788
 9269W        W25743   5.503   6.237   2.395 -0.0091  0.0635  0.0315
 9270W        W25744   5.539   7.141   2.288  0.1493 -0.3854 -0.0922
 9271W        W25745  16.844  14.047   1.882  0.1350 -0.0635 -0.1264
 9272W        W25746  13.592   3.070   0.523 -0.0720 -0.0627 -0.0267
 9273W        W25747  14.149   5.184   2.471  0.0402  0.0881  0.3178
 9274W        W25748  12.471  17.236   2.911 -0.1865 -0.1605  0.1873
 9275W        W25749   2.340   1.409   2.367  0.0723  0.0487 -0.1747
 9276W        W25750  17.772  11.193  14.449  0.0627 -0.4991 -0.1484
 9277W        W25751  18.134  15.298   5.803  0.2455  0.1121 -0.0740
 9278W        W25752   8.307   3.748   4.584 -0.0184 -0.0443  0.1922
 9279W        W25753  11.910  10.235   1.873 -0.0909 -0.0806 -0.1123
 9280W        W25754  18.341  14.803   1.378  0.1325 -0.1088 -0.1690
 9281W        W25755  17.732   6.964  12.087 -0.2406  0.1780 -0.1454
 9282W        W25756   9.181  16.178   0.652 -0.0068 -0.2727 -0.1898
 9283W        W25757  13.964   8.827  13.363  0.0265 -0.2460  0.0376
 9284W        W25758  17.749   9.373   1.241  0.0972  0.1038  0.0254
 9285W        W25759  12.639  14.792  11.323  0.1907  0.1185  0.4126
 9286W        W25760  18.968   6.910  12.788 -0.0346 -0.1431 -0.2569
 9287W        W25761   6.035  11.924   1.703 -0.0003  0.0392 -0.2669
 9288W        W25762  12.087   8.280   4.276 -0.0040  0.2340 -0.1288
 9289W        W25763   7.455   0.913   3.993  0.2199 -0.3063  0.1366
 9290W        W25764   8.678   9.897   3.947  0.1130  0.3125 -0.1905
 9291W        W25765  14.697   5.844  14.787  0.2796  0.5834  0.0736
 9292W        W25766   9.615  18.184  13.126  0.0889 -0.0218 -0.1175
 9293W        W25767   9.481   8.287  12.720  0.3553 -0.2972 -0.2389
 9294W        W25768  17.583  13.529   0.088 -0.4131 -0.1801 -0.0976
 9295W        W25769  14.546   4.877  12.807 -0.1984 -0.4823 -0.1976
 9296W        W25770  15.745   3.068  12.474 -0.4578  0.2059 -0.1598
 9297W        W25771   4.205   4.515   0.408 -0.2306  0.3162  0.1738
 9298W        W25772  16.790  17.224   3.295  0.2292  0.2495 -0.1813
 9299W        W25773   8.012   0.378  11.662 -0.2426  0.2748 -0.3186
 9300W        W25774  16.512  10.355  11.616  0.0164  0.0303 -0.2151
 9301W        W25775  12.224  16.110  14.814 -0.1710 -0.0455  0.1281
 9302W        W25776  10.547   8.649   3.396  0.2280 -0.0782 -0.1322
 9303W        W25777   3.957  12.301   4.872 -0.0073  0.0399 -0.0267
 9304W        W25778   0.518   8.598  14.108 -0.1218  0.1444 -0.0976
 9305W        W25779   1.263  16.023  13.414  0.2424 -0.3652  0.3044
 9306W        W25780   0.021  11.309   3.142 -0.2280  0.0078  0.4522
 9307W        W25781  16.261  17.293   3.337  0.2132 -0.2315 -0.1093
 9308W        W25782  18.491  11.348   0.026 -0.2664  0.1690  0.0061
 9309W        W25783   9.363   3.425   2.400 -0.0554 -0.0016 -0.0736
 9310W        W25784   8.476  16.867   1.502 -0.4232 -0.1027  0.0409
 9311W        W25785   0.537  17.350   0.181 -0.1415  0.0049  0.4485
 9312W        W25786  15.511  13.650   9.967  0.4496  0.1544 -0.2224
 9313W        W25787  18.935  11.150  14.979 -0.1187 -0.2636  0.3528
 9314W        W25788   7.591   3.617  13.053  0.2099 -0.0086  0.0666
 9315W        W25789  12.948  16.330   4.237  0.1226  0.4294  0.1530
 9316W        W25790   9.181   7.557  14.169 -0.0336 -0.1953 -0.1330
 9317W        W25791   4.186  14.480  12.420 -0.3302 -0.0943  0.2270
 9318W        W25792   5.189  13.305  12.113 -0.0625  0.1610 -0.3118
 9319W        W25793  13.680   3.843  11.066  0.0675  0.0790  0.1440
 9320W        W25794   4.691  15.708   0.914  0.0710  0.2484 -0.0864
 9321W        W25795  10.428   2.034   9.719 -0.0531 -0.2791 -0.0946
 9322W        W25796  11.854   9.964   5.274  0.1009 -0.0556 -0.2756
 9323W        W25797  17.655  13.024   0.170  0.4555 -0.0499  0.0636
 9324W        W25798  15.990  13.644   3.719 -0.2245 -0.0284  0.0352
 9325W        W25799   6.520   2.944  13.104  0.0284  0.2525 -0.0406
 9326W        W25800  15.977  11.477  11.687  0.1147  0.2347 -0.2340
 9327W        W25801   3.254  19.123   3.720  0.0015  0.2145 -0.3416
 9328W        W25802   7.445   5.004   2.632  0.1377 -0.0472 -0.0805
 9329W        W25803   7.682   3.599   1.091  0.2261  0.2780 -0.0881
 9330W        W25804   4.265  11.641   1.905 -0.0633 -0.0534 -0.0638
 9331W        W25805   3.006   1.248   5.627  0.0881 -0.0960 -0.0337
 9332W        W25806  15.773   5.071  11.040 -0.0324 -0.0968  0.1678
 9333W        W25807  13.601   0.876  14.756 -0.1920 -0.1369  0.1810
 9334W        W25808  18.594  12.992  12.197  0.0465  0.4429  0.0775
 9335W        W25809  16.695   9.052  11.372 -0.0710  0.0038  0.2692
 9336W        W25810   8.304  11.407  15.128 -0.0554 -0.2424 -0.0547
 9337W        W25811   0.216  14.377   4.012 -0.0216  0.3141  0.0246
 9338W        W25812   6.380   5.289   4.771 -0.1396 -0.1400 -0.1883
 9339W        W25813  11.560  18.502  11.532  0.2275 -0.2477  0.2475
 9340W        W25814  12.435   6.822  10.724  0.2305  0.2120 -0.1312
 9341W        W25815   4.618   4.898   4.346 -0.1024  0.1597  0.2153
 9342W        W25816   6.492   2.755  12.403  0.1370  0.0683 -0.2324
 9343W        W25817  16.378  17.430   0.225 -0.0734  0.0052  0.2910
 9344W        W25818   3.740  17.591  13.783 -0.0234  0.0385  0.0033
 9345W        W25819   4.681  16.473   0.339 -0.2283  0.0861 -0.2373
 9346W        W25820   8.676   6.488  12.929  0.0666 -0.4143 -0.1299
 9347W        W25821  14.476   9.549   3.759 -0.1730 -0.1958  0.1338
 9348W        W25822   2.620   4.405   2.986  0.1487 -0.1426  0.1014
 9349W        W25823   2.364   0.936   0.010 -0.0962  0.0449  0.1143
 9350W        W25824  13.141   1.500   4.640  0.0159 -0.0779 -0.2593
 9351W        W25825   9.504   8.814   1.508  0.2981  0.0955  0.2273
 9352W        W25826  18.876   8.257  12.772  0.1037 -0.0985  0.1610
 9353W        W25827   3.251   1.424   2.064  0.2069 -0.2154  0.2324
 9354W        W25828  12.383  12.706  13.315 -0.1852 -0.1063 -0.1073
 9355W        W25829   0.950  13.980  14.050 -0.1501  0.3315 -0.0130
 9356W        W25830  13.977  11.902   2.552  0.1148  0.1158  0.3406
 9357W        W25831   6.693  17.906  12.199  0.0678 -0.0649  0.2319
 9358W        W25832   9.798   5.813   3.742 -0.1267  0.1414  0.1840
 9359W        W25833  12.663  15.886   0.914  0.1396  0.3002 -0.2358
 9360W        W25834   1.311  17.429  11.039  0.1287 -0.0236  0.3913
 9361W        W25835   9.733  10.616  12.836  0.0363 -0.1322 -0.0034
 9362W        W25836   7.852  10.966   4.139  0.1093  0.0128 -0.0004
 9363W        W25837   7.151   3.387  12.290 -0.4747  0.1890 -0.0602
 9364W        W25838   1.824  14.816  12.530  0.2080  0.1666  0.2393
 9365W        W25839  11.763   1.208  15.059 -0.1710  0.0677 -0.3305
 9366W        W25840  11.784   9.336   4.265 -0.3373  0.0351 -0.0018
 9367W        W25841   9.162  12.677  12.732  0.1072  0.1929 -0.1119
 9368W        W25842   0.934  10.338   4.057  0.0351 -0.0857 -0.0462
 9369W        W25843  10.804  11.680  11.348  0.0560  0.2404 -0.0669
 9370W        W25844   3.478  10.446   1.883 -0.0440 -0.3402 -0.0880
 9371W        W25845  13.384   7.116   1.652  0.0759  0.3119  0.1448
 9372W        W25846  13.235  12.553  11.764  0.0359 -0.2157 -0.0826
 9373W        W25847  10.715   7.004  11.704  0.2125  0.0304 -0.0724
 9374W        W25848   9.489   1.148   1.795 -0.1376 -0.0714  0.2583
 9375W        W25849   6.373  10.038  11.354  0.2484 -0.0127  0.2049
 9376W        W25850  13.305  14.989   4.470  0.0383 -0.0322 -0.1589
 9377W        W25851   8.107   3.435   1.304 -0.1001  0.3048  0.0242
 9378W        W25852   6.435   0.808   0.663 -0.2716  0.1614 -0.1889
 9379W        W25853  13.333  10.763  10.003 -0.0809 -0.3328  0.1746
 9380W        W25854   5.941  14.959   2.652  0.1992  0.1330 -0.2314
 9381W        W25855  16.908  12.114   1.213  0.0622  0.1966 -0.0645
 9382W        W25856   6.151   5.161   1.148 -0.0969  0.1993 -0.0561
 9383W        W25857   8.748   8.615   4.499  0.2546  0.0756  0.0864
 9384W        W25858  18.995   4.234  14.188  0.3188  0.0462  0.4154
 9385W        W25859   3.170  12.499   9.350  0.0259 -0.0618  0.1744
 9386W        W25860   1.535  15.980  12.890  0.1309 -0.2130 -0.3055
 9387W        W25861  13.401  16.551   2.021 -0.0830 -0.0824  0.0166
 9388W        W25862  16.221  17.412   2.146 -0.0239  0.0907  0.2924
 9389W        W25863   2.428   9.918   1.036 -0.0012  0.0253  0.2567
 9390W        W25864   1.991   4.301   4.861 -0.2101 -0.2716  0.2810
 9391W        W25865   4.260  13.444  14.105  0.4779 -0.0183  0.0827
 9392W        W25866  17.433  14.458   1.096  0.1413  0.1341  0.3070
 9393W        W25867  10.693  15.918  11.442  0.3739  0.3593  0.0190
 9394W        W25868  14.539   1.131   1.449  0.1759  0.0258 -0.6390
 9395W        W25869  10.330  13.671   2.303  0.1093 -0.0115  0.2699
 9396W        W25870  11.829  13.303   0.302  0.1805 -0.0221 -0.0318
 9397W        W25871  12.962   0.044  10.747  0.1081  0.3403 -0.0871
 9398W        W25872   9.091  16.378  12.067 -0.2720  0.2219 -0.2762
 9399W        W25873   5.595   2.893  13.362 -0.2114 -0.1163  0.1016
 9400W        W25874   2.957  15.247   0.362 -0.1359 -0.0561 -0.1555
 9401W        W25875   3.676   8.056   3.242 -0.0616  0.1056 -0.2209
 9402W        W25876   0.522   3.966  11.270 -0.0926  0.1553 -0.1653
 9403W        W25877   4.854  11.050  10.459 -0.2677  0.0691  0.2486
 9404W        W25878  14.641   4.214   0.517 -0.0320  0.2402 -0.1677
 9405W        W25879   9.672   2.074   1.895 -0.1354 -0.1166 -0.0457
 9406W        W25880  15.745   6.071   2.226  0.1080  0.0202  0.0817
 9407W        W25881  14.629   5.660   0.873  0.4209  0.1148  0.1005
 9408W        W25882   2.265  17.219  12.266  0.0824 -0.0452  0.2752
 9409W        W25883   0.852  11.952   3.989 -0.0716 -0.0291 -0.2015
 9410W        W25884   5.622  15.405   3.643 -0.3561  0.1568  0.2523
 9411W        W25885   6.277   6.790   0.592 -0.0445 -0.0284  0.0261
 9412W        W25886   7.396   2.117   5.924 -0.0517  0.2094  0.4949
 9413W        W25887  12.811  16.773   9.231  0.0653 -0.0113  0.0398
 9414W        W25888   3.554  13.269   2.852  0.0878 -0.1788  0.2350
 9415W        W25889   2.528   7.368   3.765  0.0182 -0.1013 -0.1266
 9416W        W25890  17.637  14.169   2.577 -0.0416 -0.2562 -0.2747
 9417W        W25891  17.070   4.266   3.791 -0.2127  0.0748 -0.0662
 9418W        W25892   8.860  12.024   1.710  0.3542 -0.2488  0.1233
 9419W        W25893  13.323   3.091  14.239  0.2000 -0.0429  0.1544
 9420W        W25894  13.002  10.409   1.433  0.3455  0.0527 -0.0551
 9421W        W25895  13.497   0.144  13.125 -0.0235 -0.2164  0.3974
 9422W        W25896  10.136   2.930  14.798 -0.3058 -0.3827 -0.2468
 9423W        W25897  14.457  11.255  13.417 -0.0890  0.2992 -0.1178
 9424W        W25898   8.656  11.641  13.450  0.1295 -0.0313 -0.4600
 9425W        W25899  17.718  14.876   5.149  0.0703  0.0259 -0.0553
 9426W        W25900   4.081   1.196  14.589  0.0618  0.1911  0.2786
 9427W        W25901  11.088   0.551  13.450 -0.3685  0.0522 -0.0932
 9428W        W25902   0.060  11.578  13.601 -0.0820  0.0068  0.1950
 9429W        W25903   0.493  13.084   0.396 -0.1243  0.3452 -0.2266
 9430W        W25904   2.794   4.153  13.819 -0.5403  0.4682  0.0020
 9431W        W25905  12.023   4.242  12.817  0.3429  0.1219 -0.1673
 9432W        W25906   3.315  12.475   2.676 -0.2706 -0.2606 -0.0770
 9433W        W25907   4.756   5.639  11.094  0.0328 -0.0603 -0.4332
 9434W        W25908   1.792   1.873  12.607 -0.2111 -0.3466  0.0833
 9435W        W25909  12.949   6.101  13.968 -0.3136  0.4857  0.1641
 9436W        W25910  11.110   9.460   4.344  0.1434 -0.0093 -0.3404
 9437W        W25911  10.527   2.652  14.694 -0.2577 -0.0321 -0.0027
 9438W        W25912   4.810  10.609  14.981  0.1362 -0.0118  0.1215
 9439W        W25913   2.552  18.089   1.144 -0.1909 -0.2677 -0.3281
 9440W        W25914  11.972   4.497  12.384 -0.0378 -0.0149 -0.0290
 9441W        W25915  15.896   6.364   0.096 -0.2445  0.0780  0.1182
 9442W        W25916   3.241   9.858  12.213 -0.0181  0.2575  0.0201
 9443W        W25917   3.521   6.707   1.087 -0.2368 -0.1430 -0.1842
 9444W        W25918  17.474  17.695  11.091  0.1245 -0.0302  0.0922
 9445W        W25919  15.728  15.203  12.288 -0.1409  0.4767 -0.0208
 9446W        W25920   5.901   0.000   2.883  0.0165  0.2286  0.1934
 9447W        W25921  13.603   4.587   5.254 -0.2001  0.0241 -0.1269
 9448W        W25922  10.857   3.319  13.711  0.1940  0.0459  0.2078
 9449W        W25923   1.710   2.695   0.924  0.2996  0.0673  0.0618
 9450W        W25924  13.509   5.905   0.760 -0.1447  0.3503  0.0843
 9451W        W25925  17.801  17.467   1.149  0.1482 -0.0012 -0.3572
 9452W        W25926   1.576  10.473  12.263  0.0971  0.0327  0.0226
 9453W        W25927   1.273  12.009   3.792  0.2054 -0.2936  0.2492
 9454W        W25928  17.432  10.695  13.762 -0.2567 -0.0039 -0.0813
 9455W        W25929  12.714  11.445  15.145  0.2177  0.0313  0.1063
 9456W        W25930  13.180   8.349  12.368 -0.4161  0.0082 -0.0354
 9457W        W25931   1.934   1.413   4.054 -0.3821  0.0218  0.2878
 9458W        W25932  10.281  11.124   2.443  0.0597  0.2216  0.0230
 9459W        W25933  10.334   6.866   1.798  0.2564 -0.2261  0.3440
 9460W        W25934   7.075   7.016   5.222 -0.2468 -0.2679  0.3267
 9461W        W25935  16.660  16.224   0.755 -0.0967 -0.0392  0.0289
 9462W        W25936  16.959  18.129  14.119  0.2520  0.0658 -0.0940
 9463W        W25937  11.511  18.236  12.464 -0.2347 -0.1474  0.0310
 9464W        W25938   1.971  14.573   0.372 -0.0463  0.0321 -0.2217
 9465W        W25939   6.292  11.901   1.116 -0.2121 -0.0368 -0.0865
 9466W        W25940   7.139  14.029  12.368 -0.1109 -0.0875 -0.3255
 9467W        W25941  16.849   0.323  14.779  0.1863  0.3140  0.2493
 9468W        W25942   6.121  11.460  10.303  0.3622 -0.0776  0.1239
 9469W        W25943  15.537   3.080  13.081 -0.3201 -0.2098 -0.1591
 9470W        W25944  16.139   9.795   1.049  0.3329  0.0121  0.1000
 9471W        W25945   1.620   6.001   1.052  0.3453  0.1677  0.3668
 9472W        W25946   3.217  10.681  10.058 -0.0485  0.1493  0.2271
 9473W        W25947   8.710   2.695   3.271 -0.1442  0.1710 -0.0071
 9474W        W25948   1.359   2.982   4.520 -0.1185  0.1435  0.0830
 9475W        W25949  14.609  17.097  11.855  0.2792  0.0799  0.0775
 9476W        W25950  16.846  18.062  15.116  0.2156  0.0212 -0.1683
 9477W        W25951  17.252   3.765   3.702 -0.1008  0.1522  0.1782
 9478W        W25952   5.424   3.196   3.118  0.1828  0.1640  0.0406
 9479W        W25953  14.992   0.752  14.024  0.1534 -0.2791 -0.2239
 9480W        W25954   4.360  14.986  15.059 -0.1976 -0.1244  0.1303
 9481W        W25955  18.930  16.924   2.918  0.3236  0.2290  0.1362
 9482W        W25956   2.541  12.553  12.067  0.4936 -0.0778 -0.1167
 9483W        W25957  18.567  12.987   2.265  0.1320 -0.4411  0.1736
 9484W        W25958   6.287  13.053   1.854 -0.0686 -0.1515 -0.0483
 9485W        W25959  15.605   2.999  15.114  0.2288  0.0989 -0.1331
 9486W        W25960   1.075   4.726  10.986  0.2838  0.2729  0.1428
 9487W        W25961   5.746  16.343  14.647 -0.2674 -0.1589  0.0031
 9488W        W25962   0.845  18.383  13.023  0.0865  0.0833 -0.0444
 9489W        W25963   4.338  13.277  12.170  0.0566  0.0402  0.1664
 9490W        W25964   6.594   1.331   2.253 -0.0696  0.0141  0.0260
 9491W        W25965  13.925  10.313   4.499  0.2035  0.3684 -0.0096
 9492W        W25966  13.009  18.947   1.451 -0.0110  0.0385  0.0681
 9493W        W25967   2.684   3.048   2.627 -0.0555  0.2687  0.0276
 9494W        W25968   1.158  17.772   5.017  0.0371 -0.0587 -0.0322
 9495W        W25969   7.723   5.024  12.518 -0.0621  0.1072  0.1400
 9496W        W25970   6.883   2.275   4.153 -0.2219  0.0272 -0.1282
 9497W        W25971  12.457  14.681   0.628  0.0147  0.0909  0.0860
 9498W        W25972   3.482  18.690  13.229 -0.1446 -0.1783  0.1747
 9499W        W25973   9.335  18.223   3.415 -0.3055 -0.3042 -0.2173
 9500W        W25974  11.979  18.813  13.357 -0.2524  0.0796  0.0679
 9501W        W25975   8.432   7.925   1.625  0.1216 -0.0151 -0.0730
 9502W        W25976   8.965  13.517  13.917  0.2156 -0.0561 -0.2054
 9503W        W25977   9.138   8.468   3.301 -0.1476 -0.2158 -0.2361
 9504W        W25978   9.151  18.184  14.588  0.2144 -0.2144 -0.1076
 9505W        W25979  14.333   6.330   0.626  0.0386  0.0442  0.0516
 9506W        W25980  12.563   1.349   1.829 -0.1673  0.1720  0.1214
 9507W        W25981  15.539  16.712   1.142 -0.0847 -0.0062  0.2957
 9508W        W25982   1.113   9.836   0.848 -0.0454 -0.2650  0.1174
 9509W        W25983   8.809   1.794   3.506  0.0419 -0.3424  0.1796
 9510W        W25984   7.287   3.868  10.294  0.0830  0.0071 -0.0314
 9511W        W25985   4.533  15.694  10.941 -0.0037 -0.2108 -0.0846
 9512W        W25986  11.070   6.818   0.804 -0.1793  0.0261 -0.1658
 9513W        W25987  13.634  10.367   2.685 -0.0234 -0.4731 -0.0456
 9514W        W25988  11.329  12.242   2.673 -0.2121  0.1899 -0.0192
 9515W        W25989   1.336   4.634  10.539  0.0957  0.0093  0.1252
 9516W        W25990   7.720   8.164  12.796  0.0464  0.0131 -0.0256
 9517W        W25991   4.439  16.951  11.520 -0.2238 -0.1226 -0.3572
 9518W        W25992  14.147  18.201  14.461 -0.1878  0.0393  0.0497
 9519W        W25993   3.974   2.633   2.100  0.3217 -0.0622 -0.0443
 9520W        W25994   4.104   3.583   5.380 -0.1414 -0.1616 -0.1758
 9521W        W25995   9.302  10.726   0.065 -0.2961 -0.5678  0.3127
 9522W        W25996  11.504  12.427   5.702  0.1565 -0.0357 -0.2954
 9523W        W25997   3.643   5.711  11.661 -0.4092 -0.1240  0.0916
 9524W        W25998   0.690   4.248  13.203 -0.1918 -0.0396 -0.0643
 9525W        W25999   2.569   6.621  11.119  0.1199 -0.2197  0.0890
 9526W        W26000  16.049   5.401   0.581  0.3391 -0.4168  0.2595
 9527W        W26001  14.278  15.413   4.963 -0.2568  0.2846  0.0300
 9528W        W26002  10.428  11.930   0.436  0.0087 -0.0536  0.1447
 9529W        W26003  12.774   2.640   2.410  0.2870 -0.2199 -0.1129
 9530W        W26004   8.009  13.652   2.539 -0.0080  0.3552 -0.1875
 9531W        W26005  11.428  15.201   4.557  0.1638 -0.1685  0.2217
 9532W        W26006  11.725  10.853   2.826 -0.1057  0.1422 -0.3174
 9533W        W26007  16.332   8.518   2.497 -0.1156  0.4873 -0.0858
 9534W        W26008   9.996  13.564   0.401 -0.0764 -0.1832  0.1819
 9535W        W26009  16.038   2.618  10.958  0.0096 -0.0144 -0.0247
 9536W        W26010   3.072   7.491   4.172  0.2268 -0.0969  0.3157
 9537W        W26011   4.456   2.623   1.782 -0.3321 -0.1502 -0.3398
 9538W        W26012  14.204  12.247  14.938  0.0531  0.0428 -0.2416
 9539W        W26013  14.654   9.592   2.106  0.1327  0.1054  0.0891
 9540W        W26014  12.447   6.313   3.872 -0.0692 -0.0593  0.3423
 9541W        W26015   5.761  18.448  14.457 -0.4171 -0.0311  0.1151
 9542W        W26016  10.448   8.224   3.672 -0.0038 -0.2927 -0.1889
 9543W        W26017   5.614  16.256  11.717  0.0283 -0.3532 -0.1206
 9544W        W26018  12.518   6.948  11.590  0.5323  0.2339  0.1360
 9545W        W26019   5.723   1.524   3.923  0.1173  0.0087 -0.0880
 9546W        W26020   4.397   5.029  14.875 -0.1145 -0.1848  0.0732
 9547W        W26021   5.882  16.445  12.931  0.2057 -0.0819  0.1116
 9548W        W26022   8.745  12.246   1.170 -0.1554  0.1491 -0.4010
 9549W        W26023   3.321   9.878  11.145  0.1061  0.2056 -0.0733
 9550W        W26024   9.003   8.352  11.977  0.0294  0.0950 -0.2335
 9551W        W26025  11.639  16.589  11.822  0.3450  0.3857  0.0063
 9552W        W26026  13.940  14.081  14.476  0.0466 -0.3287  0.0128
 9553W        W26027   8.376   8.698   1.070  0.1657 -0.0108 -0.3061
 9554W        W26028   2.689  10.245  11.813  0.1929 -0.2158  0.0092
 9555W        W26029  13.417   8.158   1.321  0.0707  0.1248  0.1639
 9556W        W26030   1.503   9.652   2.191  0.0350 -0.3011 -0.2652
 9557W        W26031  12.924  18.170  14.841 -0.0589 -0.0017  0.0320
 9558W        W26032  11.308  17.372  13.661  0.2390 -0.0535 -0.0505
 9559W        W26033   5.660   4.935   3.229  0.1496  0.0118 -0.0037
 9560W        W26034  12.402  17.857   1.572  0.2311  0.3585 -0.1156
 9561W        W26035  15.212   1.646  11.486  0.1367  0.2622  0.2031
 9562W        W26036  14.384  15.673   0.437 -0.2876  0.1140 -0.0311
 9563W        W26037  16.503   0.100  13.353  0.0943 -0.0576  0.0077
 9564W        W26038  11.553   0.814   9.462  0.0913  0.2729  0.0744
 9565W        W26039   0.279   3.140  11.999 -0.1224  0.1639  0.1869
 9566W        W26040   8.640  13.008   0.885  0.3717 -0.0615  0.0000
 9567W        W26041   9.836   4.518  10.955  0.3805  0.4012 -0.1817
 9568W        W26042   1.162  17.372  13.038 -0.2209 -0.1955 -0.4966
 9569W        W26043  11.753  12.434   3.511  0.0690 -0.1100  0.1921
 9570W        W26044  10.921  12.070  13.010  0.2688 -0.3341  0.0108
 9571W        W26045  11.776   4.846   3.827 -0.0525  0.0644 -0.1548
 9572W        W26046  10.408   5.652  13.833  0.1804 -0.0231 -0.0540
 9573W        W26047  15.357  13.617  11.117  0.1107  0.0886 -0.1596
 9574W        W26048  17.522   8.893  13.586 -0.0485  0.2131 -0.1313
 9575W        W26049   0.395   7.520  14.570 -0.0842 -0.0743 -0.0002
 9576W        W26050   2.247   5.903   2.322  0.0024  0.2293  0.1557
 9577W        W26051  13.732  11.155  11.293  0.0088  0.1279  0.1330
 9578W        W26052   7.056   3.223   2.122  0.0078 -0.4516 -0.1343
 9579W        W26053   6.513  10.030  11.851  0.1092 -0.0433 -0.3333
 9580W        W26054   7.101   1.737  11.756 -0.1419 -0.1208  0.0039
 9581W        W26055   0.406   3.595   0.030 -0.3697  0.5232  0.2371
 9582W        W26056  12.277   2.551   0.958 -0.2413 -0.1448 -0.3342
 9583W        W26057  11.186   0.069  13.529 -0.1044 -0.2093 -0.0114
 9584W        W26058   4.142   8.903   2.853  0.3023 -0.0484  0.0085
 9585W        W26059  17.331  13.433   2.017  0.2815 -0.0291 -0.2171
 9586W        W26060  13.585   5.757  10.540 -0.1785  0.2350  0.1513
 9587W        W26061  14.687  15.317   2.376 -0.0373 -0.1759  0.4209
 9588W        W26062  10.814  18.513   1.101  0.1415  0.0132 -0.0659
 9589W        W26063   6.026  11.586  13.696 -0.1390 -0.1692  0.0860
 9590W        W26064  12.067   9.109   3.853 -0.1176  0.0311 -0.0838
 9591W        W26065   0.410  16.090   0.455 -0.0832 -0.3855 -0.1489
 9592W        W26066   6.946  13.569  13.386  0.1735  0.0491 -0.1417
 9593W        W26067  16.979  12.188  13.169  0.2766 -0.1385  0.0645
 9594W        W26068   8.428  16.084  12.568 -0.3474  0.0478 -0.2285
 9595W        W26069  14.837   2.496  12.326  0.0547 -0.2867  0.0243
 9596W        W26070  17.242  11.611   0.622  0.1562  0.0072  0.0324
 9597W        W26071   0.125  11.275  11.943 -0.3065 -0.1440 -0.0739
 9598W        W26072   5.938   3.995   0.855 -0.6428 -0.2882  0.2448
 9599W        W26073  15.984   0.456  14.560  0.0273 -0.3730  0.2376
 9600W        W26074   6.349  15.807   5.216 -0.0808 -0.1736 -0.2617
 9601W        W26075   0.353   9.112   4.099 -0.2370  0.0604  0.2560
 9602W        W26076  15.358   6.755   1.109 -0.0616  0.1619 -0.0557
 9603W        W26077  16.013   1.470  10.982 -0.1397  0.0874 -0.0525
 9604W        W26078   6.880   0.787   0.872 -0.1879 -0.0670  0.2871
 9605W        W26079   9.641  15.940   1.732 -0.0929 -0.2272 -0.1520
 9606W        W26080   5.403   8.022   3.970 -0.0651 -0.1999 -0.1820
 9607W        W26081  10.187  15.770   5.880 -0.0874  0.1288 -0.0327
 9608W        W26082  17.769   3.863  15.033 -0.1034 -0.2423  0.0132
 9609W        W26083  13.628   5.077   2.137  0.3242 -0.1284  0.0885
 9610W        W26084   0.663   3.970   4.736 -0.0393 -0.2121  0.1055
 9611W        W26085  12.318   6.862  13.566 -0.0880 -0.1273  0.1398
 9612W        W26086  16.570  10.200  12.087 -0.1209 -0.0986  0.0896
 9613W        W26087   1.173  17.215   3.453  0.0881 -0.1164 -0.0377
 9614W        W26088   0.651   9.899   4.114  0.0989 -0.0087  0.2755
 9615W        W26089  14.833   7.995   1.038  0.0206 -0.0582  0.0592
 9616W        W26090  17.564   2.059  13.795 -0.1104  0.2616 -0.2039
 9617W        W26091   4.833   4.813   1.233  0.4372  0.5027 -0.1731
 9618W        W26092   4.897   9.401  10.458  0.1874 -0.3416 -0.2933
 9619W        W26093   6.296   0.571   2.799 -0.0347 -0.1322  0.0353
 9620W        W26094   6.780   7.279  13.073  0.0393 -0.0724 -0.5502
 9621W        W26095   1.995   6.167  11.087  0.1490 -0.1777 -0.1428
 9622W        W26096  15.303  14.911   0.974 -0.1965  0.1063 -0.3348
 9623W        W26097  14.314  16.389  14.060 -0.1707  0.1303  0.0448
 9624W        W26098  13.802  11.903   1.420 -0.3042 -0.1487 -0.0811
 9625W        W26099   7.856   1.438  11.042 -0.1655  0.3144 -0.4083
 9626W        W26100  13.592   8.306   3.562  0.1999  0.3357 -0.0512
 9627W        W26101  17.985   6.780  11.558 -0.1588 -0.0021 -0.0894
 9628W        W26102  14.103   1.206   0.957 -0.0002  0.3081  0.1757
 9629W        W26103  17.528   5.035  14.291 -0.1583  0.0019  0.2002
 9630W        W26104   3.052   2.068   4.527 -0.0085  0.2685 -0.3281
 9631W        W26105   6.654   1.525  13.127  0.1724 -0.0890 -0.1008
 9632W        W26106  13.072   2.203  10.475  0.0885  0.1420  0.0420
 9633W        W26107   4.638   2.177  14.367  0.2390  0.1359  0.1134
 9634W        W26108  16.848  15.316  14.721 -0.0211  0.1474  0.3626
 9635W        W26109  14.707   0.513  13.041 -0.2142  0.2168  0.1903
 9636W        W26110   4.230  16.482   2.220 -0.0269  0.0003 -0.1952
 9637W        W26111  11.093   5.335   5.352  0.0551 -0.0181  0.0112
 9638W        W26112   9.394  15.895  11.060  0.2162  0.3034  0.3515
 9639W        W26113   1.755  15.833   4.462 -0.0324  0.3874 -0.1239
 9640W        W26114   0.876  13.926   2.776 -0.0298  0.1318  0.0356
 9641W        W26115  18.325  16.255  13.314 -0.3894 -0.0947  0.3488
 9642W        W26116  11.743  15.926   2.990  0.0110 -0.0173 -0.0200
 9643W        W26117   7.481   6.507   0.258  0.2977  0.3583 -0.1201
 9644W        W26118   7.469  15.395   3.756  0.0971  0.0721 -0.2007
 9645W        W26119   1.655   9.065  11.162  0.1038  0.1355  0.0656
 9646W        W26120  10.320  12.381   5.055 -0.2016  0.3164  0.1382
 9647W        W26121   1.450  16.302   0.547 -0.0172 -0.0103 -0.0596
 9648W        W26122   7.558  14.504   2.069  0.0796 -0.0462 -0.2222
 9649W        W26123   5.961  14.646   2.271 -0.0169  0.0629  0.2006
 9650W        W26124   8.579   3.647   1.250 -0.3694 -0.0503 -0.0089
 9651W        W26125  13.343   6.534   1.000 -0.0762 -0.0914 -0.1660
 9652W        W26126  19.075   9.755   2.887  0.2968 -0.0766  0.0353
 9653W        W26127  13.662   9.749  13.334 -0.1505 -0.1091  0.1167
 9654W        W26128   6.568  13.935  15.049 -0.3432  0.1739  0.1471
 9655W        W26129   2.405  13.235   2.180  0.1601  0.0592  0.2814
 9656W        W26130   8.513   7.288  14.701 -0.1157 -0.0353 -0.0886
 9657W        W26131  10.141   7.440  14.865  0.2404 -0.0915 -0.0098
 9658W        W26132   6.060  16.699   1.012 -0.1691  0.2016 -0.3559
 9659W        W26133   2.833  11.109  12.549 -0.0883  0.4964 -0.0118
 9660W        W26134  13.343   5.001  11.428  0.0022  0.2750 -0.2706
 9661W        W26135  10.428  10.019   1.640  0.1215  0.0549  0.0683
 9662W        W26136  14.986  16.227   0.457 -0.1747 -0.3720 -0.5257
 9663W        W26137   7.003   5.150  10.703 -0.0648  0.0792  0.4404
 9664W        W26138   5.535   2.077  11.619  0.1752  0.3163 -0.0781
 9665W        W26139   3.099   7.441  11.781 -0.4799 -0.1116 -0.0547
 9666W        W26140  17.688   0.905  13.104 -0.0527  0.0719  0.0686
 9667W        W26141  13.334   7.457  11.352  0.1311 -0.2854 -0.1658
 9668W        W26142   5.401   6.063  13.689  0.0254 -0.1636 -0.3193
 9669W        W26143   4.701  19.154   5.052 -0.2118 -0.4691 -0.2964
 9670W        W26144   4.762  12.959  10.494 -0.0234 -0.1668 -0.1332
 9671W        W26145  12.824   2.966   1.430  0.1379  0.0057  0.0360
 9672W        W26146  13.615  17.681   9.818 -0.2071 -0.0820  0.3049
 9673W        W26147   8.026   2.000  12.817  0.1599  0.1838 -0.0095
 9674W        W26148   4.361   0.760   0.546 -0.2802  0.2212  0.0517
 9675W        W26149  10.871  15.257   2.940 -0.0529 -0.0359  0.2216
 9676W        W26150   6.233   7.066   3.351 -0.1271  0.0617  0.3192
 9677W        W26151  14.824   5.580   4.301  0.2303 -0.1578  0.2882
 9678W        W26152   6.555  16.027   1.789  0.0513  0.1215 -0.0531
 9679W        W26153  10.555  12.385   3.841 -0.2470 -0.1544  0.2166
 9680W        W26154  15.479   7.515  11.497  0.1582 -0.0953  0.1096
 9681W        W26155   5.852  16.434  13.882  0.1140 -0.1804 -0.0376
 9682W        W26156  15.272  14.181   0.322  0.1289 -0.1077 -0.2911
 9683W        W26157   5.232   9.611  14.320 -0.0350 -0.1826 -0.0691
 9684W        W26158  17.313  14.034   3.249  0.0002 -0.1849  0.0153
 9685W        W26159   2.517   4.934  12.644 -0.0203  0.1751 -0.2612
 9686W        W26160  10.983  14.250   0.893  0.1711  0.4990 -0.2460
 9687W        W26161   1.428   7.387  13.075 -0.0617 -0.2329  0.2744
 9688W        W26162   8.550  11.672  10.742  0.3012  0.1008 -0.1747
 9689W        W26163  15.430   1.524  13.146 -0.0705 -0.0431  0.0164
 9690W        W26164   3.205  16.094  13.390  0.2387  0.0223 -0.2130
 9691W        W26165  15.894   7.694   3.483  0.4124  0.1494 -0.2587
 9692W        W26166   4.693  16.367   2.561  0.0657  0.1363  0.1078
 9693W        W26167  10.839  10.186  11.023  0.0347 -0.1228 -0.3149
 9694W        W26168   5.882   6.576  13.222  0.2003  0.1766  0.1961
 9695W        W26169   2.612   9.315  12.762  0.0752 -0.0832  0.3363
 9696W        W26170   5.699  17.385   0.273 -0.2881  0.0964  0.0711
 9697W        W26171   3.895  10.201   0.747  0.3794  0.1519  0.2317
 9698W        W26172  16.475   0.332   1.016 -0.0588  0.0725  0.0352
 9699W        W26173   5.221   1.059   4.222 -0.1874  0.0477  0.2292
 9700W        W26174  14.747   1.799  11.707 -0.1320  0.2133  0.3157
 9701W        W26175   1.529  15.307  13.614 -0.0970  0.1073 -0.0488
 9702W        W26176  10.526   7.484  11.903 -0.2435 -0.0585 -0.1457
 9703W        W26177  12.765   1.302   1.309  0.1464  0.1425 -0.0378
 9704W        W26178  16.560   9.540   0.846 -0.1333 -0.3254 -0.1500
 9705W        W26179   8.356  14.442   0.098 -0.0821 -0.1368 -0.2812
 9706W        W26180   4.407  17.718   0.666  0.0273  0.2745 -0.0360
 9707W        W26181   4.156   0.307  13.060  0.2140  0.0129  0.2323
 9708W        W26182  14.131  15.747  11.852  0.2439  0.0289 -0.0062
 9709W        W26183   2.005  18.639  13.582  0.1629  0.2531  0.1811
 9710W        W26184   3.307   8.530   2.411 -0.2951  0.0414 -0.4529
 9711W        W26185  17.454   7.494  13.962  0.2553  0.2263 -0.0348
 9712W        W26186  11.065  12.520   5.124 -0.1875 -0.0203  0.0633
 9713W        W26187   9.946   0.591   3.461  0.1169  0.0140 -0.3109
 9714W        W26188   1.010  18.029  11.257  0.2258  0.1471  0.4103
 9715W        W26189  13.480  16.418   0.778 -0.1829  0.0401 -0.0293
 9716W        W26190   3.874  16.008  12.876  0.1556  0.1715 -0.0669
 9717W        W26191  13.599  11.248   3.121  0.0247  0.1749  0.1037
 9718W        W26192  18.719   7.857   1.032 -0.0227 -0.0363  0.1137
 9719W        W26193  16.362   0.065   3.682  0.0302  0.2249 -0.1679
 9720W        W26194   5.437  15.394   4.155 -0.2529 -0.1511 -0.0216
 9721W        W26195  10.071   3.495   1.603 -0.2549 -0.2231  0.3395
 9722W        W26196  13.497   4.435  14.340 -0.2781  0.1113 -0.2563
 9723W        W26197   3.570  18.913  11.986 -0.0974 -0.0412 -0.0412
 9724W        W26198  12.305   8.485   0.677  0.1360 -0.0684 -0.0702
 9725W        W26199  11.141   3.159   0.718 -0.1351  0.0044  0.0083
 9726W        W26200  17.634  13.269  12.099 -0.0737  0.0219  0.2686
 9727W        W26201   1.266   8.398  14.863  0.0401  0.1604 -0.2112
 9728W        W26202  14.630   2.246  11.927  0.3323  0.1028  0.1095
 9729W        W26203  15.658  14.284   2.511  0.0125 -0.1112  0.1848
 9730W        W26204  13.071  16.242   2.254  0.0240  0.2890  0.3851
 9731W        W26205   3.011  12.206   2.350  0.0547  0.0145 -0.4658
 9732W        W26206   1.911  13.333   4.281 -0.1265  0.0643 -0.0617
 9733W        W26207   5.262  11.331  14.170 -0.1172 -0.0918 -0.1903
 9734W        W26208   1.176   4.020   9.959  0.1853  0.3399 -0.3936
 9735W        W26209   1.105   4.044  11.256 -0.0452 -0.1562 -0.1136
 9736W        W26210   2.699  12.970   2.934  0.0199 -0.1468 -0.0869
 9737W        W26211  17.023   8.629  11.569  0.1460 -0.3104  0.1506
 9738W        W26212   1.980   6.102  14.357  0.0665 -0.1207 -0.0161
 9739W        W26213   0.825   4.450  14.027  0.1692  0.2456  0.3887
 9740W        W26214  14.014   5.912   0.862 -0.0303 -0.2070 -0.0320
 9741W        W26215   6.708  12.633  11.269 -0.2494 -0.1130 -0.0244
 9742W        W26216   4.069   7.544  13.001 -0.0637  0.2391 -0.1658
 9743W        W26217   0.933   2.763   1.778  0.0467  0.1904  0.1636
 9744W        W26218  13.725   9.787   4.338  0.2687  0.3709  0.2813
 9745W        W26219   9.113  13.952   4.503  0.2930 -0.0671  0.3496
 9746W        W26220  12.064   5.472  11.371 -0.0221 -0.0096  0.0803
 9747W        W26221   3.329  17.534  11.488 -0.0868  0.1263 -0.0950
 9748W        W26222  13.524  17.441   0.787 -0.4059  0.0669  0.2863
 9749W        W26223  11.382   7.499  12.702  0.3341 -0.1779  0.1390
 9750W        W26224  11.925   6.250  10.934 -0.1130 -0.0881  0.3385
 9751W        W26225   3.139  10.497   3.776 -0.0357 -0.3009 -0.0651
 9752W        W26226  15.552   4.451  14.917 -0.2003 -0.0032  0.3510
 9753W        W26227   6.033   5.447   9.998  0.2943  0.1892  0.1968
 9754W        W26228   4.274  14.747   0.840  0.1254  0.1616 -0.2018
 9755W        W26229  11.122   4.807  12.708  0.1740  0.1414  0.0646
 9756W        W26230  16.033   5.008  14.545  0.1925 -0.1281  0.2276
 9757W        W26231   1.693  14.079   3.013 -0.2659  0.2236  0.2599
 9758W        W26232  14.821   3.185  14.146 -0.1635 -0.0921  0.0034
 9759W        W26233  16.203   5.880  12.211 -0.0106 -0.1184 -0.0279
 9760W        W26234  10.090  12.505   3.999  0.0954 -0.0427 -0.0584
 9761W        W26235  16.933   1.077  14.300  0.0162 -0.0385  0.1306
 9762W        W26236  18.661   7.340   3.506  0.2738 -0.1777  0.1140
 9763W        W26237  14.466  17.591  14.035 -0.0215  0.0460 -0.2217
 9764W        W26238  10.917   6.412   4.133  0.0868 -0.0235 -0.0104
 9765W        W26239  16.691  18.506  10.279  0.0149 -0.2384  0.2755
 9766W        W26240   6.893   2.816  14.554 -0.0665  0.0018  0.1765
 9767W        W26241  12.552   7.040   4.826 -0.1421  0.0964  0.0360
 9768W        W26242   2.761  14.870  12.568  0.0685 -0.1918 -0.2160
 9769W        W26243  17.116   7.185   0.743 -0.0080  0.0398 -0.2724
 9770W        W26244   6.787  16.543   4.038 -0.2615 -0.0233 -0.2398
 9771W        W26245   4.988   7.758  10.797  0.0019  0.3268 -0.1148
 9772W        W26246  13.626   1.846   2.456 -0.1434 -0.4354 -0.0212
 9773W        W26247  12.909   4.754  10.533 -0.2175 -0.0352  0.4455
 9774W        W26248   4.746  19.058   3.605 -0.1540  0.0680  0.0986
 9775W        W26249   8.718  17.076  11.594  0.0801  0.1178 -0.2684
 9776W        W26250   2.757   9.618   4.507  0.2987 -0.0651 -0.2758
 9777W        W26251  18.690  11.896  12.443 -0.1280  0.1833 -0.2005
 9778W        W26252   8.170  13.902  11.204 -0.0513 -0.0907  0.2021
 9779W        W26253   9.640  12.310   3.164 -0.1008 -0.1799 -0.0726
 9780W        W26254  17.594   7.465  11.075 -0.0822  0.0883 -0.2810
 9781W        W26255   6.485   2.599   0.377  0.1658  0.0154  0.1706
 9782W        W26256  12.611   1.419  13.980 -0.0392  0.0765  0.0304
 9783W        W26257   3.701   6.397  14.337 -0.1514  0.1152  0.0809
 9784W        W26258  16.278   2.805   5.471  0.0596 -0.1420 -0.0514
 9785W        W26259  17.239   9.874  10.900  0.1357 -0.1539 -0.2058
 9786W        W26260   9.698   2.553   2.156  0.0510  0.1748 -0.1434
 9787W        W26261   6.819  15.331  10.888 -0.2175  0.1658 -0.2364
 9788W        W26262  15.211   4.756  14.913 -0.0959 -0.0346 -0.3105
 9789W        W26263   1.183   0.148   1.328  0.1694 -0.1375 -0.0680
 9790W        W26264  15.785   2.548   3.655 -0.1865 -0.0434 -0.0372
 9791W        W26265  15.591   3.586  14.408  0.0296 -0.2239 -0.1168
 9792W        W26266   9.311   5.405  13.432  0.1380  0.0215 -0.1017
 9793W        W26267   2.558   7.723  11.915 -0.0736 -0.1209  0.0308
 9794W        W26268  18.065  11.619   0.033  0.0404  0.1484  0.3552
 9795W        W26269   4.330   1.415   3.898  0.1597 -0.2390  0.0840
 9796W        W26270   1.502  17.168  14.227  0.0017 -0.0022  0.2940
 9797W        W26271  12.969   0.069   3.191  0.0462 -0.1281 -0.2098
 9798W        W26272   5.347  19.099   2.731  0.0568  0.0534  0.3806
 9799W        W26273   9.461  12.625  12.069  0.0765 -0.0239  0.1115
 9800W        W26274   2.768  11.002   2.416 -0.1805 -0.3051  0.0660
 9801W        W26275  11.197   5.982   3.694 -0.1131  0.0046  0.2993
 9802W        W26276  16.052   5.540   2.382 -0.0707  0.1263  0.0338
 9803W        W26277  10.015   3.264   4.631 -0.4203  0.0843  0.0783
 9804W        W26278   4.050   3.625   5.915 -0.1010  0.1376  0.2810
 9805W        W26279   2.832  10.283   1.244 -0.2194 -0.1539  0.1086
 9806W        W26280   1.396   8.877  13.529 -0.0496  0.1332  0.0022
 9807W        W26281   6.227  10.492  14.002 -0.0851 -0.0357  0.1851
 9808W        W26282  14.823   6.494  11.338 -0.1107  0.1157 -0.3075
 9809W        W26283   4.424  17.771   1.614  0.1231 -0.2515 -0.1066
 9810W        W26284   0.341  12.988   2.699 -0.0485 -0.2833  0.1550
 9811W        W26285  13.655   3.300   2.618  0.2026  0.0244 -0.0720
 9812W        W26286  15.936   6.432  13.009  0.0413 -0.2430  0.0345
 9813W        W26287  19.103   0.395  11.383  0.0163  0.0936  0.2586
 9814W        W26288   3.863   0.944   4.643  0.0632 -0.3437 -0.2720
 9815W        W26289   9.616  12.119   0.269 -0.0565 -0.0355  0.1303
 9816W        W26290   8.000   7.221  14.581  0.2731 -0.1187  0.0157
 9817W        W26291   5.224   5.051   1.625 -0.1104 -0.1061  0.3402
 9818W        W26292  16.349  14.447   1.163 -0.0058 -0.1384 -0.0916
 9819W        W26293   4.606  19.156   2.039  0.0839 -0.1752  0.0705
 9820W        W26294   8.470   5.824  14.807  0.2427 -0.0183 -0.0255
 9821W        W26295  12.945  15.944  12.008  0.4328  0.0182 -0.2101
 9822W        W26296  14.635   1.844   1.654  0.2086 -0.1513 -0.1203
 9823W        W26297   1.691   6.227  11.649  0.1165  0.1846  0.1550
 9824W        W26298   4.281  17.188   0.617  0.3471  0.0004 -0.0356
 9825W        W26299   2.413  11.531  10.938 -0.0008  0.2389 -0.0029
 9826W        W26300   7.483   3.515   2.804  0.0047  0.1330 -0.1348
 9827W        W26301  14.398   3.430   4.881 -0.2298  0.3711 -0.3309
 9828W        W26302   5.935  12.013  11.034  0.1021  0.0189  0.0208
 9829W        W26303   7.356  14.850   2.817 -0.0628  0.0098  0.0934
 9830W        W26304   4.131  16.074  14.828 -0.1364  0.1925 -0.0406
 9831W        W26305   5.139  15.164  14.154  0.0020  0.0185  0.1456
 9832W        W26306  17.314   6.331   3.790 -0.0869 -0.2182 -0.0368
 9833W        W26307  11.095  15.714   5.389 -0.0850 -0.0471  0.1959
 9834W        W26308  14.959   5.983   1.086  0.0925 -0.0220  0.1418
 9835W        W26309  12.299   7.793  12.975 -0.2010  0.4232 -0.2720
 9836W        W26310  14.198   9.040   0.347 -0.1385 -0.0992  0.0748
 9837W        W26311  11.539  14.678  12.657  0.2120  0.1120  0.0220
 9838W        W26312   9.901   0.859   2.650 -0.1967  0.3064  0.1941
 9839W        W26313  10.648  15.314  14.730  0.0751  0.1738  0.1210
 9840W        W26314  13.046   2.515   1.236 -0.4565  0.0768 -0.3967
 9841W        W26315  16.282   9.806  10.773 -0.0871  0.3980 -0.2853
 9842W        W26316  16.964  15.331  12.894  0.1798 -0.0318 -0.2191
 9843W        W26317   1.151   7.571  14.678  0.1232  0.1254 -0.0925
 9844W        W26318  11.630   3.410   2.982 -0.0713 -0.0675  0.0372
 9845W        W26319  12.239   0.383  14.879 -0.2784 -0.0054 -0.1345
 9846W        W26320   3.161  16.911   5.236  0.1598 -0.1740 -0.3134
 9847W        W26321  16.068   8.095  15.033  0.0578  0.0877 -0.0898
 9848W        W26322   4.938   1.163  13.369  0.2130  0.0775  0.0709
 9849W        W26323   2.956   9.889   3.035 -0.2311  0.0129 -0.0597
 9850W        W26324  18.512  17.404   4.574  0.2077 -0.1965 -0.2033
 9851W        W26325   3.259  11.419   3.972  0.0882  0.2583  0.0466
 9852W        W26326  14.038   2.522   1.358 -0.1223 -0.0988 -0.0245
 9853W        W26327  14.589   1.103  10.676 -0.1709 -0.1252  0.0599
 9854W        W26328  18.328  11.794   3.115 -0.0843 -0.1631  0.1027
 9855W        W26329  18.264   2.795   0.657 -0.3518  0.1678  0.0123
 9856W        W26330  11.574   6.973   2.880 -0.1607  0.1068 -0.1616
 9857W        W26331  16.519  16.096  10.843  0.3016  0.1258 -0.0057
 9858W        W26332   9.443  13.216  12.123  0.3047 -0.0743 -0.3144
 9859W        W26333   6.485  17.776  14.465 -0.2351  0.0048  0.2671
 9860W        W26334  12.488   2.350   0.498  0.0152 -0.2697 -0.0739
 9861W        W26335  18.364   4.241  10.855  0.0493 -0.2624  0.1184
 9862W        W26336  14.363  18.624  14.026  0.0929  0.0427 -0.2490
 9863W        W26337   4.326   0.376   0.923 -0.2316 -0.2252 -0.2335
 9864W        W26338   6.842  18.998   3.276  0.0305 -0.3056  0.0481
 9865W        W26339  10.213   0.483   1.696 -0.2241  0.1183 -0.1568
 9866W        W26340   5.453  13.812  13.572  0.2034  0.0087  0.3426
 9867W        W26341  11.598  14.394  10.881 -0.3946 -0.1761 -0.0342
 9868W        W26342   4.910  15.354  11.061  0.2687  0.3772 -0.1506
 9869W        W26343  14.408   1.227  14.174  0.0856  0.0553  0.0109
 9870W        W26344  14.396   2.463   3.354 -0.0055 -0.0226 -0.2137
 9871W        W26345   0.071   1.812  12.647 -0.0377  0.0314  0.1180
 9872W        W26346   5.823  11.873  12.530  0.3357  0.0589 -0.0032
 9873W        W26347   3.008   9.426  11.338  0.1069 -0.0551  0.1202
 9874W        W26348   1.632  17.724  12.749 -0.0849  0.0434  0.1305
 9875W        W26349   5.324   6.367  12.581  0.2799 -0.4482 -0.0635
 9876W        W26350  10.232   0.123  13.670  0.1816  0.0433  0.1996
 9877W        W26351  10.200  13.046  13.059 -0.0126  0.1076  0.0218
 9878W        W26352   7.657   9.588   9.720  0.0593 -0.1116  0.0050
 9879W        W26353   0.037   2.652  15.077 -0.0988 -0.0016 -0.0814
 9880W        W26354   5.811   4.606   3.724  0.3856  0.0748  0.2260
 9881W        W26355  12.203  17.703  10.396  0.1455 -0.0421  0.0054
 9882W        W26356  13.649   2.242   0.100 -0.0327 -0.3079 -0.3006
 9883W        W26357  11.138  19.157  14.010 -0.2184 -0.4014  0.1326
 9884W        W26358  10.809   8.315  11.133 -0.2662  0.2302 -0.1512
 9885W        W26359   6.297   5.892  13.487 -0.0350  0.0263  0.3402
 9886W        W26360  15.053  15.236   5.697 -0.3694  0.1125 -0.0428
 9887W        W26361  12.269  13.282   2.100 -0.0838 -0.1031  0.1257
 9888W        W26362   5.292  17.843  10.869  0.0331 -0.1866  0.0372
 9889W        W26363   6.795  16.808   3.606  0.0407  0.1091  0.2634
 9890W        W26364   5.187  18.211   3.317 -0.1820  0.0746  0.1321
 9891W        W26365   4.011   6.620  10.051 -0.2985  0.3795 -0.1729
 9892W        W26366   8.689  19.072   2.534  0.0192  0.1782 -0.3936
 9893W        W26367  16.259   0.371  12.013  0.0411 -0.0448 -0.0639
 9894W        W26368   4.521   3.335  12.064 -0.2712 -0.0452 -0.5912
 9895W        W26369   3.113  15.952   3.304  0.1291  0.0486  0.2484
 9896W        W26370   1.581   5.733   1.469  0.0720 -0.1242  0.2000
 9897W        W26371  17.227  15.292   1.383  0.3492  0.0201 -0.1318
 9898W        W26372   9.479  18.540   2.892 -0.2362 -0.0330  0.0547
 9899W        W26373   7.801  11.960   3.129 -0.2390 -0.1554 -0.2954
 9900W        W26374  18.447   1.475  14.204  0.1520  0.1438 -0.1019
 9901W        W26375   9.750  15.369  13.705 -0.1927 -0.2175  0.1495
 9902W        W26376   8.412   5.575  13.348 -0.0436  0.0889 -0.0232
 9903W        W26377  16.090   7.307   1.090 -0.2794 -0.0850  0.1578
 9904W        W26378   7.531  14.113  11.232  0.1963 -0.2514  0.1935
 9905W        W26379   3.764   4.058  11.406 -0.2873 -0.1543 -0.1424
 9906W        W26380  16.665  18.653   1.372  0.2120 -0.0184 -0.0706
 9907W        W26381  14.781  12.500  12.939 -0.0058  0.1937  0.1474
 9908W        W26382  17.169   3.034  12.613 -0.2710  0.1208  0.3740
 9909W        W26383  13.805   6.544   5.306 -0.0645 -0.0619  0.0854
 9910W        W26384   3.032   4.619  12.995 -0.1178 -0.1128 -0.3069
 9911W        W26385  13.909   4.153   1.687 -0.2261  0.1416  0.1011
 9912W        W26386  15.516   6.850  10.970 -0.0532  0.1486  0.1034
 9913W        W26387  10.175   8.930  14.491 -0.3270  0.1383 -0.2159
 9914W        W26388   1.525  15.782  10.965  0.2088 -0.3451  0.0771
 9915W        W26389   6.968   5.752   1.767 -0.1723 -0.0260 -0.1367
 9916W        W26390   5.768   0.744   3.406 -0.0716  0.1212 -0.0252
 9917W        W26391  10.317   1.060  12.480  0.0691  0.1208  0.1551
 9918W        W26392   9.088   9.927  11.134 -0.1352  0.0966  0.2601
 9919W        W26393  14.071  14.241   4.245  0.0378  0.1432  0.3331
 9920W        W26394  10.004  13.349   4.414  0.2022 -0.3116 -0.1351
 9921W        W26395   7.830  17.420  14.110  0.0088 -0.0395  0.0930
 9922W        W26396  15.054   5.925   0.078  0.0105 -0.0582  0.0484
 9923W        W26397   9.402   9.147   4.854 -0.0795  0.0802  0.2018
 9924W        W26398   4.099  13.039  13.812 -0.0142 -0.0729  0.2616
 9925W        W26399   0.606  19.026   2.296  0.0331  0.1858 -0.0316
 9926W        W26400   9.589  14.031  13.590  0.2972  0.2227  0.1577
 9927W        W26401  15.629   4.020   1.143 -0.0539 -0.0442  0.2852
 9928W        W26402  18.503  15.158   0.833 -0.2010 -0.1546 -0.2300
 9929W        W26403   0.034   3.196  12.707  0.1446 -0.4115  0.3343
 9930W        W26404  16.413   5.748   2.918 -0.2083  0.1977  0.2259
 9931W        W26405  13.671   5.562  14.847  0.2134  0.1040  0.0889
 9932W        W26406   2.983  12.348  13.455 -0.1018  0.2402  0.0825
 9933W        W26407   4.034  11.366   4.385  0.5330  0.2287 -0.2318
 9934W        W26408  16.114  10.598   0.058 -0.2299 -0.1311 -0.1170
 9935W        W26409   7.189   7.613  11.443  0.1711 -0.3205  0.1806
 9936W        W26410   3.715   7.257   0.508 -0.0523 -0.0049 -0.0612
 9937W        W26411  10.593  10.409  12.775  0.4415  0.0203 -0.0132
 9938W        W26412  11.334  13.424  10.054  0.0112  0.2139 -0.2274
 9939W        W26413   9.648   0.184   0.175 -0.2123 -0.1724  0.1707
 9940W        W26414  14.125  10.240   2.412 -0.1278 -0.0238  0.1926
 9941W        W26415   0.361   7.311  11.336 -0.1310 -0.2707 -0.2004
 9942W        W26416   8.737  17.494   1.619 -0.2828  0.3279 -0.2453
 9943W        W26417   2.911   5.574   1.209  0.0453 -0.0439  0.0683
 9944W        W26418  18.111  10.576  10.054  0.1486 -0.0189  0.0970
 9945W        W26419   3.581  15.457  11.891  0.1538  0.3980 -0.0410
 9946W        W26420  17.832   4.131   3.173  0.1341  0.3115  0.0250
 9947W        W26421  17.484   4.092   0.189  0.1820  0.0953 -0.0216
 9948W        W26422  14.936   0.071  13.297 -0.1888 -0.0777  0.1971
 9949W        W26423  15.651  17.777   2.814 -0.0560  0.3597 -0.1428
 9950W        W26424  10.317   2.528   5.192 -0.1870 -0.0547 -0.1868
 9951W        W26425   4.412  17.303  10.058  0.2362 -0.1708  0.2170
 9952W        W26426   1.909  10.881  13.633 -0.0877  0.1565  0.3716
 9953W        W26427   4.155   3.100  13.047  0.0592  0.1102  0.1574
 9954W        W26428   0.440  10.355   3.813 -0.3824 -0.0376  0.0125
 9955W        W26429   6.489  18.678  13.331 -0.0665 -0.2196 -0.0807
 9956W        W26430  10.850  18.146   3.538  0.3038  0.0861  0.4186
 9957W        W26431  14.269  17.055  12.756 -0.1800  0.0065  0.2523
 9958W        W26432   9.209  17.580   2.734  0.1355  0.2170 -0.0760
 9959W        W26433  12.663  18.290   5.014 -0.1353 -0.0471 -0.3014
 9960W        W26434   6.605  13.321  12.107  0.0580  0.0648  0.2372
 9961W        W26435  16.327  14.852   2.424  0.1220  0.0940 -0.2703
 9962W        W26436  11.538   5.394  14.583  0.1997 -0.0824  0.0390
 9963W        W26437   4.370   4.716  11.046  0.0080  0.1140  0.1482
 9964W        W26438  10.167   6.819   4.875  0.0044  0.1383 -0.1350
 9965W        W26439  12.562  18.952   4.904 -0.2865  0.3242 -0.0373
 9966W        W26440   7.414   9.742   5.251 -0.1634 -0.0684 -0.0889
 9967W        W26441   0.372  12.810  11.106 -0.0964 -0.1469 -0.0151
 9968W        W26442  15.251   2.912   0.335  0.2301  0.0242 -0.0032
 9969W        W26443   5.487   8.449  10.492 -0.0872 -0.1026  0.0783
 9970W        W26444   4.918  14.573  12.449  0.0955 -0.1432 -0.1369
 9971W        W26445   1.207  18.297  13.361  0.1583  0.3003 -0.1704
 9972W        W26446  11.267   6.470  14.484 -0.1247 -0.0028 -0.1668
 9973W        W26447  13.270   8.689   3.698  0.0951  0.3604  0.1791
 9974W        W26448  17.019  15.156  11.284 -0.2745 -0.1588 -0.1539
 9975W        W26449   9.980   6.348  10.771 -0.2255  0.1382 -0.1083
 9976W        W26450   2.282   1.022   6.008 -0.0006  0.0995  0.0137
 9977W        W26451  13.716   0.422   4.144 -0.0171  0.1158  0.0444
 9978W        W26452   0.919   7.637   0.854  0.1582 -0.0812  0.0573
 9979W        W26453   3.547   0.437   4.546 -0.2018 -0.0209  0.2774
 9980W        W26454   0.598  12.365  12.651  0.1531 -0.0496 -0.1970
 9981W        W26455  10.755  17.939   3.959 -0.0100 -0.0537  0.2096
 9982W        W26456  18.437  17.062   1.842  0.1115 -0.2795 -0.1598
 9983W        W26457  15.415   5.667   3.511 -0.5436  0.4231 -0.0756
 9984W        W26458  12.395   9.425   0.419 -0.3335 -0.1538  0.0266
 9985W        W26459   6.656  18.429   1.827  0.0356 -0.1276  0.1478
 9986W        W26460  10.932  17.900   4.521 -0.0364 -0.0048  0.0743
 9987W        W26461   3.612  11.730  14.758  0.0237  0.0154  0.0884
 9988W        W26462   3.749   6.006   0.358 -0.0993 -0.0999 -0.0215
 9989W        W26463   6.279  14.387  12.497 -0.0736  0.1964  0.0160
 9990W        W26464   8.728   4.046  11.660  0.3784 -0.2818 -0.2697
 9991W        W26465  13.395   3.454   1.401  0.0897 -0.0986 -0.1334
 9992W        W26466   6.918   4.101   0.632 -0.2265  0.1592  0.4964
 9993W        W26467   1.865   4.720   2.546  0.0985 -0.4842 -0.3221
 9994W        W26468  14.593   4.196   3.331 -0.0216 -0.1727  0.0085
 9995W        W26469   9.812   1.050   2.188  0.0687 -0.3447 -0.0552
 9996W        W26470  16.978   1.257   1.548 -0.0728 -0.2212 -0.1716
 9997W        W26471   0.756  15.922  11.228  0.2907 -0.1813  0.2684
 9998W        W26472  10.819   1.290   4.395  0.0974  0.0853  0.0058
 9999W        W26473   1.037  12.035   1.873 -0.0212  0.5591 -0.1818
10000W        W26474   6.056   7.623  10.649  0.0953  0.0767  0.0818
10001W        W26475   1.845  18.064   2.229  0.2955  0.1097 -0.0675
10002W        W26476  13.658   9.457   5.133  0.0588  0.2785  0.2059
10003W        W26477   1.764   1.415   5.366 -0.1161  0.0492  0.1289
10004W        W26478   7.989   1.499   4.658 -0.0857 -0.0371  0.2522
10005W        W26479  15.496  14.286  12.094 -0.0678 -0.1225  0.4608
10006W        W26480   4.735   6.609   2.974  0.3650 -0.1598  0.2719
10007W        W26481  11.744   3.911   0.821  0.0358 -0.1881 -0.0308
10008W        W26482   2.970   2.143   0.681  0.3048  0.0249 -0.1864
10009W        W26483   0.254  11.729  11.976 -0.2326  0.3792  0.4689
10010W        W26484  17.038  14.075   0.087 -0.0480 -0.0804  0.2803
10011W        W26485  17.909   9.592  14.210  0.5458 -0.1029  0.0706
10012W        W26486   7.006  16.664   3.146  0.1345  0.1563  0.1015
10013W        W26487   7.322  17.012  11.133  0.2282  0.0087  0.1473
10014W        W26488  14.030  12.876   0.698 -0.0718  0.0938 -0.3723
10015W        W26489  12.696   6.947  13.932 -0.1777  0.0659  0.2405
10016W        W26490  17.333  10.566  11.352 -0.0615 -0.1427  0.1239
10017W        W26491  18.967   2.481   3.420  0.0604 -0.1842 -0.1968
10018W        W26492  10.352   8.642  13.689  0.0028  0.0430 -0.0219
10019W        W26493  17.364   0.513  13.193 -0.1448  0.1379 -0.0098
10020W        W26494   6.146  15.210   3.525 -0.1529  0.1007 -0.0954
10021W        W26495   1.568   6.518   1.853  0.1136 -0.1500 -0.1695
10022W        W26496  15.960  14.885   4.993  0.1663  0.3907 -0.1418
10023W        W26497   0.495   4.949   1.934  0.3137 -0.1901 -0.0391
10024W        W26498   2.282   7.602  11.294 -0.4579 -0.2988  0.4148
10025W        W26499   6.456   8.874   3.116 -0.4591 -0.0236 -0.0255
10026W        W26500  12.355   8.255  13.234  0.2660 -0.1769  0.1132
10027W        W26501  12.173  12.087  10.851  0.3360  0.3163 -0.0345
10028W        W26502   7.722  14.811   4.799  0.2959 -0.0532 -0.1942
10029W        W26503  18.454   8.057   3.889  0.0115  0.0771  0.1564
10030W        W26504   5.822  10.047  14.805  0.2419 -0.0989 -0.0617
10031W        W26505   6.977   7.170  11.516  0.0944 -0.1972  0.0493
10032W        W26506   3.133   5.456  12.213  0.0731  0.1093 -0.1422
10033W        W26507   9.603   7.314   2.288  0.0106 -0.0443  0.1715
10034W        W26508  18.329  18.012  13.643 -0.1167 -0.1544 -0.3646
10035W        W26509  10.962   7.539  14.659 -0.0626  0.1197  0.3181
10036W        W26510   6.168   5.917   0.268  0.0292 -0.0361  0.1888
10037W        W26511  12.914   5.836   4.325  0.2057  0.1496 -0.0391
10038W        W26512  11.609   0.391   0.646  0.0141 -0.1416 -0.3392
10039W        W26513  11.238   0.932  13.905  0.4275  0.2039 -0.0926
10040W        W26514  13.224  16.387   3.857  0.2341 -0.0809  0.2713
10041W        W26515  10.936   6.067   1.481  0.0448 -0.0503 -0.0176
10042W        W26516  19.079  12.443  14.472 -0.2205 -0.0071  0.0289
10043W        W26517  10.913   9.967   1.239 -0.3570 -0.0714 -0.1605
10044W        W26518   7.968   9.647   0.650 -0.0948  0.1520  0.1225
10045W        W26519   2.275   6.608  12.192  0.0792  0.1451  0.1760
10046W        W26520   0.262  11.263   9.738 -0.1080 -0.1783 -0.1285
10047W        W26521   8.089   9.094   2.445 -0.2823  0.0189 -0.0738
10048W        W26522  15.143   8.216   0.252 -0.1853  0.0632 -0.2407
10049W        W26523  11.086  16.000  11.792  0.2554  0.1226 -0.1984
10050W        W26524  12.103   0.394  11.127  0.0950 -0.1836 -0.0845
10051W        W26525   8.321   0.421   0.906 -0.0553 -0.0341  0.1122
10052W        W26526   7.443  16.520  11.368  0.3629  0.0227 -0.2826
10053W        W26527   5.237   1.930   3.785 -0.2393 -0.0376  0.0089
10054W        W26528   5.930  12.222   2.273 -0.1191  0.1567  0.0250
10055W        W26529  18.561   5.024  13.332  0.0036  0.0849  0.0386
10056W        W26530  11.675  13.663   1.998  0.3518  0.0712  0.3181
10057W        W26531  12.466   0.087   0.176  0.0222  0.1773 -0.0530
10058W        W26532   2.290  18.955   3.340  0.1077 -0.1594  0.0821
10059W        W26533  11.338   1.668   4.375 -0.1501  0.1943  0.1282
10060W        W26534  13.236  13.014   4.914  0.3683 -0.2254 -0.1395
10061W        W26535   1.019  14.305   1.473  0.0079 -0.1094 -0.2880
10062W        W26536   0.302   4.514  14.915 -0.1068  0.3275  0.2578
10063W        W26537  16.233  15.438  12.152 -0.1966 -0.2221 -0.1289
10064W        W26538  16.550   9.108   3.945  0.0286  0.3410 -0.0030
10065W        W26539   9.218  14.282  12.932  0.1766  0.0537 -0.2335
10066W        W26540  13.730  14.706   1.369 -0.0358  0.2172 -0.0230
10067W        W26541   5.138  14.089   1.140  0.2007  0.0556  0.0228
10068W        W26542  15.746   5.922  11.207 -0.0286 -0.1008  0.0394
10069W        W26543   5.887   3.851  15.117 -0.2386 -0.0737 -0.0000
10070W        W26544  10.206  11.476   0.331  0.2140 -0.0152 -0.2781
10071W        W26545   4.668  14.480   2.722  0.0137  0.4345 -0.2296
10072W        W26546   5.243   2.959  11.524 -0.2458 -0.2461  0.3160
10073W        W26547   1.248  16.245   0.955  0.0862  0.0356 -0.3359
10074W        W26548   8.819  15.719  11.391  0.1021 -0.3113  0.2315
10075W        W26549   2.565   5.978   9.838 -0.3215  0.1891  0.1893
10076W        W26550   2.819   1.959  14.236 -0.0023 -0.1683 -0.2926
10077W        W26551   3.333   8.304   2.921 -0.0102  0.3903 -0.3717
10078W        W26552  11.562   8.997   3.991 -0.1582  0.1598  0.0001
10079W        W26553  11.262  14.707  11.315 -0.0840  0.0789 -0.0330
10080W        W26554  12.218   8.136   2.785  0.1927 -0.1704 -0.0479
10081W        W26555  11.843  14.684  14.066 -0.0202 -0.0372  0.0591
10082W        W26556   9.548  17.139  10.991  0.0943 -0.1242 -0.0818
10083W        W26557  14.940   8.275   5.130 -0.0146 -0.1571 -0.0932
10084W        W26558   4.818   5.316   5.356 -0.0149 -0.0978 -0.2910
10085W        W26559   3.336   1.394   0.238  0.1456  0.0371 -0.1039
10086W        W26560  16.047  15.506  13.401  0.4218  0.3682  0.2743
10087W        W26561  18.462  14.754   1.938  0.1657  0.3541 -0.0409
10088W        W26562  18.294   0.792   3.625  0.1033  0.0202 -0.0951
10089W        W26563  18.469   4.746   3.391 -0.0234  0.4136 -0.3959
10090W        W26564   4.044   3.239   4.560  0.4245 -0.0933 -0.0356
10091W        W26565   2.752  17.478  13.903 -0.0600  0.1846  0.0408
10092W        W26566   0.036  16.121   3.260  0.1151 -0.1269  0.2696
10093W        W26567   3.877   0.780   2.742  0.2579  0.0715 -0.1705
10094W        W26568  16.151  17.392  11.409 -0.1003 -0.0521  0.1817
10095W        W26569  16.489  18.242   5.002  0.2398  0.0289 -0.1569
10096W        W26570   4.882   1.516  15.151  0.2446  0.0562 -0.3153
10097W        W26571  11.311   6.691  12.991 -0.2297 -0.4587 -0.0259
10098W        W26572   6.233  17.605   0.903  0.0169  0.2817 -0.0349
10099W        W26573  10.078   7.921  15.024  0.0321 -0.0677 -0.3962
10100W        W26574  14.995  18.012  13.398  0.3015 -0.1342  0.0956
10101W        W26575  13.937   2.750   0.834 -0.1000 -0.2190  0.1023
10102W        W26576  17.717  16.857   4.270 -0.0704 -0.1455  0.1556
10103W        W26577   5.679  14.663  11.866  0.0307 -0.3212 -0.2065
10104W        W26578   9.651   6.246   3.871  0.0464 -0.0009  0.0478
10105W        W26579  12.279  17.202   4.645  0.0145  0.1868  0.1751
10106W        W26580   7.878  15.575   1.455 -0.1974 -0.0783 -0.1302
10107W        W26581  14.662   8.732  12.890 -0.0009  0.1199  0.0466
10108W        W26582  13.113   2.090  14.362  0.0710 -0.1517  0.2029
10109W        W26583  13.567  16.377   4.757  0.0746 -0.1782  0.0555
10110W        W26584   6.309  17.777   5.631 -0.0746 -0.0095  0.1104
10111W        W26585  18.767   3.880   5.057  0.0604  0.2038  0.0135
10112W        W26586  12.189   6.505   4.569  0.1958 -0.1981 -0.1019
10113W        W26587   1.346  18.376   3.435 -0.1838  0.0248 -0.2873
10114W        W26588  12.100   7.095  11.063 -0.0632 -0.2069  0.3550
10115W        W26589  17.841  15.487   5.052  0.0315  0.0215 -0.4791
10116W        W26590  14.637  12.557   3.752  0.1918  0.3019 -0.2185
10117W        W26591  16.985  10.315  10.974  0.0619  0.2747  0.0986
10118W        W26592  14.965  13.971  10.064 -0.0844  0.0112  0.3131
10119W        W26593  12.587   3.786  15.056  0.1652  0.0488 -0.0716
10120W        W26594   2.699  15.404  11.214  0.0881 -0.0534  0.2112
10121W        W26595   0.119   5.879  13.020  0.1331 -0.2121 -0.1414
10122W        W26596   7.850  15.776   4.945 -0.0189  0.0818 -0.2987
10123W        W26597  17.877  10.422  13.637  0.2730  0.1561 -0.0725
10124W        W26598  15.154  17.998  10.957 -0.0725  0.1916 -0.0036
10125W        W26599  10.135   2.415   0.456 -0.0114 -0.0215  0.0889
10126W        W26600   4.273  11.638   2.660 -0.0205 -0.2832 -0.1115
10127W        W26601   9.100   9.473  11.301  0.0222 -0.0865 -0.2893
10128W        W26602   0.443   8.768  10.973 -0.1677 -0.2232 -0.0080
10129W        W26603  18.440   6.574  11.597  0.2157 -0.0454 -0.3094
10130W        W26604   2.746  19.040   3.620 -0.3006 -0.1201 -0.1064
10131W        W26605  12.579   3.618   5.292 -0.0732 -0.2033 -0.0327
10132W        W26606  16.020  17.113  13.425  0.1422  0.2586  0.2054
10133W        W26607  17.425  10.378  14.305 -0.2638 -0.2009 -0.0127
10134W        W26608   7.695  14.921  15.046 -0.3347  0.1081 -0.4825
10135W        W26609  10.427  11.184   1.161 -0.0061 -0.2510  0.3037
10136W        W26610   9.042   2.075  10.640 -0.1987  0.0798 -0.0970
10137W        W26611  15.800   8.622   1.993  0.2098 -0.1906  0.1483
10138W        W26612   7.804  13.684   1.012 -0.0044  0.1959  0.1085
10139W        W26613   1.250  10.846   0.045  0.0743 -0.1087 -0.2466
10140W        W26614   6.776   2.071   4.596  0.0757 -0.3973  0.2409
10141W        W26615   9.279   8.077  12.342  0.4524 -0.0603  0.1403
10142W        W26616  18.947   8.056   2.353  0.0143  0.0168 -0.1198
10143W        W26617   2.052   2.597  12.109  0.2728  0.1843  0.3198
10144W        W26618   2.350  18.408   5.023  0.3959 -0.2412 -0.0196
10145W        W26619  16.204  14.090  14.718 -0.2683  0.1363 -0.0540
10146W        W26620  17.477   4.461   0.581 -0.2188 -0.1051 -0.3897
10147W        W26621  13.367   1.065   9.145 -0.0902  0.0627  0.1137
10148W        W26622  11.801   7.795  12.725  0.0102 -0.1792  0.2199
10149W        W26623   6.588  13.403  12.813 -0.2257 -0.3830  0.0454
10150W        W26624   5.048  11.489   1.509 -0.1083 -0.2072 -0.1736
10151W        W26625   7.172  11.681  11.205 -0.2503 -0.0093  0.3273
10152W        W26626  13.769  16.685   0.429 -0.1378 -0.2769  0.0433
10153W        W26627  11.898  16.625   4.977  0.2979 -0.2253  0.1407
10154W        W26628  17.833  14.067  10.903 -0.2230 -0.0596 -0.0905
10155W        W26629   4.603  18.724  11.289  0.1480  0.0017 -0.0703
10156W        W26630   8.768  14.421   1.250  0.0345 -0.1275  0.0193
10157W        W26631  13.259  18.587   3.964  0.2393  0.0831 -0.1585
10158W        W26632  13.623   0.478  10.170 -0.3831 -0.0432 -0.0143
10159W        W26633   2.730   3.963   4.212 -0.2438 -0.0960  0.0833
10160W        W26634   4.197  15.711  13.197  0.0308 -0.1483  0.1041
10161W        W26635   7.476  12.298   3.467 -0.0219 -0.0781  0.1576
10162W        W26636   1.177  12.453   9.497  0.2249  0.3960  0.1025
10163W        W26637   2.013  12.525   4.267  0.2042  0.1376 -0.2830
10164W        W26638  12.860  18.743  13.051 -0.2606 -0.2346  0.0099
10165W        W26639  10.064  17.019   4.093  0.1193 -0.0246 -0.1742
10166W        W26640   5.615  15.797   0.287  0.1806  0.0360  0.0729
10167W        W26641  10.823   4.330  10.728 -0.1715  0.1621 -0.2258
10168W        W26642  18.784   2.734   4.464  0.1065  0.2754  0.0531
10169W        W26643   8.376  14.648  11.513  0.1318 -0.0312  0.0370
10170W        W26644  14.050   8.170  13.246  0.1459 -0.2195  0.0058
10171W        W26645   9.310   8.258   1.973 -0.0415 -0.2118 -0.0880
10172W        W26646   0.506  14.731  10.515 -0.2404  0.1931  0.1658
10173W        W26647  16.383   8.794   2.872  0.4687  0.0887 -0.0343
10174W        W26648  11.315   4.310  10.970  0.0847 -0.0463 -0.2522
10175W        W26649   4.144   5.835  11.913 -0.0056 -0.3497  0.1124
10176W        W26650   6.370   7.705  11.914 -0.2743 -0.1317 -0.1798
10177W        W26651  10.177   2.643   3.620 -0.1785  0.2723 -0.4045
10178W        W26652  10.546  13.043   4.587  0.0832  0.1895  0.1466
10179W        W26653   2.908  10.030   3.606 -0.1906 -0.1463  0.1442
10180W        W26654   8.473  13.824   2.767  0.0233  0.1618 -0.2737
10181W        W26655  10.365  17.885  11.707 -0.1280  0.0254 -0.2108
10182W        W26656   4.921  17.674  13.807  0.1042 -0.0527 -0.0172
10183W        W26657  14.472   7.303  13.593 -0.1232 -0.0080  0.2034
10184W        W26658   9.485  12.022   2.214 -0.3003 -0.3542 -0.1695
10185W        W26659   5.333   9.629  13.027 -0.0276  0.1159 -0.2333
10186W        W26660  11.137  18.357  11.882  0.0585  0.0625 -0.0211
10187W        W26661  12.188   6.885   0.917  0.3925  0.2125  0.1159
10188W        W26662  11.316   6.651  14.991 -0.1178 -0.0767 -0.1738
10189W        W26663  10.307  14.384   3.955  0.5137 -0.1638 -0.2723
10190W        W26664  15.376  15.596  11.499 -0.0573 -0.0533 -0.1815
10191W        W26665  18.335   0.462   3.099  0.0014 -0.2640 -0.1505
10192W        W26666  16.644  12.119   4.277 -0.0327 -0.3687  0.1502
10193W        W26667  11.760   6.012  13.466 -0.0325 -0.1256 -0.1460
10194W        W26668  12.185   4.218  11.993  0.0110  0.2240 -0.1278
10195W        W26669  17.717  14.107   0.857 -0.1473 -0.0926 -0.0550
10196W        W26670  13.679  16.983  11.426  0.2276 -0.0900 -0.0259
10197W        W26671   7.856   3.121   1.041  0.1459 -0.0745  0.1155
10198W        W26672  14.046  12.591  12.326  0.0016 -0.0474  0.2252
10199W        W26673  15.856  14.120   4.719  0.2030 -0.0823  0.2596
10200W        W26674   6.365   9.604  13.590 -0.0421 -0.0735  0.0442
10201W        W26675   2.617   3.843  11.509  0.0846 -0.2121  0.0134
10202W        W26676  11.606  16.292   3.328 -0.1058  0.2300  0.0304
10203W        W26677   8.942  13.819  10.044  0.0030 -0.1832 -0.0016
10204W        W26678  11.029  13.410  14.196  0.2205  0.3238  0.0035
10205W        W26679  12.379   2.109   3.460 -0.0387  0.2155 -0.0175
10206W        W26680  13.343   8.939  14.958 -0.0474 -0.1133 -0.2003
10207W        W26681   0.280  14.691  14.017  0.0659 -0.0168  0.3419
10208W        W26682   6.170  16.293   1.941  0.0068  0.0684  0.2797
10209W        W26683   2.165   5.547   4.821  0.0155  0.2949  0.0251
10210W        W26684   1.796   2.142   4.738 -0.1286 -0.1396 -0.1112
10211W        W26685   0.150  11.843  10.931  0.1016 -0.0115  0.3108
10212W        W26686   3.699   8.372   0.432 -0.1450  0.0948 -0.5694
10213W        W26687   7.420  16.710   2.620 -0.1527  0.0281 -0.0306
10214W        W26688   5.818   8.801  10.285 -0.0370  0.3458  0.2880
10215W        W26689   2.045   0.053  12.906  0.1840 -0.1951 -0.1783
10216W        W26690   8.476  10.383   2.323 -0.3218  0.3159 -0.0705
10217W        W26691   5.264   3.165   4.769 -0.0143 -0.1059  0.1680
10218W        W26692   0.863   3.260  11.269  0.2813  0.0076 -0.1850
10219W        W26693  13.393  13.818   1.626  0.0103 -0.3429  0.2206
10220W        W26694  13.919  12.736   2.617 -0.4001 -0.0833  0.0785
10221W        W26695   8.828   2.235   3.100  0.0560  0.1188  0.2942
10222W        W26696  11.789   4.639  14.139  0.4497 -0.0426 -0.1961
10223W        W26697   1.582   8.349   2.642 -0.0852 -0.0289  0.1431
10224W        W26698   3.531   3.173  11.568  0.1209 -0.0394 -0.1984
10225W        W26699   9.973   1.164  10.143 -0.0430 -0.3130 -0.0099
10226W        W26700  16.697  11.498  15.082 -0.0498  0.0071 -0.2069
10227W        W26701   0.480   4.836  12.230 -0.0895  0.0327  0.2482
10228W        W26702  14.677  18.395  11.072  0.1389 -0.0906  0.2382
10229W        W26703  16.741   8.481  15.010 -0.2719 -0.1553  0.1450
10230W        W26704  10.645   1.174  11.880 -0.0847 -0.1521 -0.0486
10231W        W26705   9.100   3.152   4.439 -0.2909 -0.1781  0.2176
10232W        W26706   9.661  17.038  15.128 -0.0845 -0.0532 -0.1741
10233W        W26707  18.873  13.147  14.566  0.0568 -0.2488  0.2892
10234W        W26708   2.405   0.312   4.415  0.1788  0.2109 -0.0632
10235W        W26709   8.224  11.277  13.645 -0.0906  0.0149  0.0209
10236W        W26710  15.551  11.146   2.064  0.0322  0.0586  0.2280
10237W        W26711  16.941  12.952  10.838  0.0298 -0.0817  0.0368
10238W        W26712  17.326  12.172  12.756  0.1563  0.0539 -0.0329
10239W        W26713   1.282  10.390   0.787  0.2106  0.0289  0.0412
10240W        W26714  14.748   0.055   0.558 -0.0188 -0.1125 -0.1433
10241W        W26715  17.522  12.464   0.736 -0.1867  0.0559 -0.1068
10242W        W26716  15.823  12.807  15.056 -0.2365 -0.1293  0.0977
10243W        W26717   3.832  12.444   2.753  0.2604  0.1990 -0.1065
10244W        W26718  13.178  18.235   2.697 -0.1406  0.1103 -0.1362
10245W        W26719   3.485   3.739   0.455 -0.1229  0.0533  0.0499
10246W        W26720   1.944  15.517   3.671  0.1971  0.0390 -0.4291
10247W        W26721   6.708  11.307  14.920  0.5841  0.0438  0.1291
10248W        W26722  12.972  16.780  10.826 -0.0423 -0.2404  0.4081
10249W        W26723   6.867   9.422   4.138 -0.1926  0.0904 -0.1972
10250W        W26724  15.169   8.775   4.732 -0.3732  0.1502 -0.1535
10251W        W26725  16.121   9.485  10.470  0.3385  0.1950 -0.0654
10252W        W26726   4.670   8.544   4.308 -0.1556 -0.0875 -0.1444
10253W        W26727  18.591   2.801  10.765  0.1707  0.0462 -0.1283
10254W        W26728   6.872   9.590  12.456 -0.0847 -0.0220  0.1801
10255W        W26729  18.754   9.985  10.341 -0.0334  0.0878 -0.3219
10256W        W26730   4.181   9.346   3.159  0.1932  0.2750 -0.1522
10257W        W26731  15.160  13.498   2.864  0.2077 -0.2458  0.0478
10258W        W26732   5.568   0.149   0.924 -0.1832 -0.0021  0.0306
10259W        W26733   5.357   6.776   3.054  0.0220 -0.0951 -0.1382
10260W        W26734  18.561   2.870   5.133  0.0711 -0.1496  0.2840
10261W        W26735   0.399  11.712  14.859  0.0810  0.1332  0.0916
10262W        W26736   1.319   1.712   1.077 -0.2252  0.0010  0.0814
10263W        W26737   7.577  10.681   1.396 -0.0337 -0.2458  0.0147
10264W        W26738   3.658   5.193  14.365  0.2775 -0.0944 -0.1882
10265W        W26739  14.218   3.566   2.414  0.1141 -0.2209  0.0165
10266W        W26740   2.979  14.484  14.517  0.2571 -0.0509 -0.0327
10267W        W26741  11.392  11.417   1.149 -0.3436  0.0152 -0.1409
10268W        W26742  18.455  12.652   1.917  0.2356  0.1924 -0.0148
10269W        W26743  19.005   8.952  13.638 -0.1426  0.1300  0.1952
10270W        W26744   6.192   6.311   1.427  0.3837  0.2558 -0.1987
10271W        W26745   5.536   2.588  15.152  0.0427  0.1577 -0.1718
10272W        W26746   7.407  13.573   1.982  0.0891 -0.3545 -0.2210
10273W        W26747   5.815  17.999  13.822  0.2998  0.0682 -0.1019
10274W        W26748  16.196  14.830   0.814  0.1307 -0.3252  0.0024
10275W        W26749   6.039  11.800  12.988 -0.0861 -0.3286 -0.2463
10276W        W26750   7.513  11.924   1.729  0.1494 -0.4084  0.3004
10277W        W26751  17.077   6.278   2.584 -0.2308 -0.0614  0.0870
10278W        W26752  14.866   1.060   4.025  0.0618  0.0350  0.1333
10279W        W26753  18.160   0.905  12.782 -0.0935  0.4161 -0.2305
10280W        W26754   0.546  14.497   2.567 -0.0622 -0.0136 -0.0357
10281W        W26755   6.624  11.911  12.885  0.1911  0.0526  0.1375
10282W        W26756  13.231  16.046   1.796  0.0331  0.2096  0.1660
10283W        W26757  16.832   8.365   2.470  0.0314 -0.2641 -0.0106
10284W        W26758  15.486  17.158   1.457  0.5415  0.1737 -0.3712
10285W        W26759  14.348   3.317   3.125  0.0497 -0.3623 -0.1059
10286W        W26760   3.138  10.986   9.501 -0.0742  0.3699 -0.0593
10287W        W26761  16.019  13.047   4.874  0.1650 -0.1495 -0.0994
10288W        W26762  19.101  11.296   1.488 -0.2896 -0.0473  0.2294
10289W        W26763  13.655   4.526  11.063 -0.0147  0.0304 -0.0200
10290W        W26764  11.142   6.193   0.861 -0.0618 -0.0195 -0.0527
10291W        W26765  18.681   1.254   0.013  0.1562  0.0301 -0.1007
10292W        W26766   9.173   0.005   3.425  0.1613 -0.1565  0.2660
10293W        W26767  11.505  16.378  14.722  0.0402 -0.1626 -0.0332
10294W        W26768  13.013  11.856   3.975 -0.0484 -0.0864  0.0646
10295W        W26769   2.320   1.030  13.923  0.0841 -0.2071  0.0161
10296W        W26770   4.083   6.960  14.167  0.0219 -0.2225  0.0343
10297W        W26771   6.600  19.044   0.502  0.0649  0.1291 -0.0187
10298W        W26772   7.352   0.568  12.454 -0.0688 -0.0341 -0.3191
10299W        W26773  13.513   9.347  10.768  0.0126  0.2084  0.2859
10300W        W26774   9.951  11.642   2.516 -0.2003 -0.1060  0.0542
10301W        W26775  15.778  11.915   4.430  0.2171  0.1750  0.0481
10302W        W26776   8.103   3.501   0.795  0.2638 -0.2071  0.1154
10303W        W26777  11.059  15.990  11.114 -0.2599 -0.1549 -0.0234
10304W        W26778  14.935   4.139  10.401 -0.0542 -0.0760  0.1356
10305W        W26779   2.513   4.130   3.708  0.0308 -0.0885  0.2492
10306W        W26780   2.291   3.998   1.238  0.1104  0.0539  0.1975
10307W        W26781  18.669  17.915  14.049 -0.4985  0.4939  0.0806
10308W        W26782  10.617   3.810  14.040 -0.0534  0.1754 -0.1949
10309W        W26783   4.788  11.019  12.134  0.0427  0.1799 -0.1543
10310W        W26784   1.135   9.261  11.158  0.1438  0.0722  0.0630
10311W        W26785  18.942   3.173   4.818 -0.0974  0.0041 -0.3904
10312W        W26786   8.816   0.313   4.107  0.1016 -0.0706 -0.1542
10313W        W26787   7.191  12.340  13.699 -0.1684 -0.2467 -0.1948
10314W        W26788   0.489   4.572   1.676  0.0221  0.0165  0.3361
10315W        W26789  11.741  16.185  12.713  0.0560 -0.2793  0.2592
10316W        W26790   5.254   9.826  11.998  0.3010 -0.0660  0.2370
10317W        W26791   1.464  12.581   3.107  0.1348  0.1314  0.4896
10318W        W26792  12.820  13.195   2.796  0.1401  0.3191  0.1562
10319W        W26793  12.014   7.792   4.524  0.1982  0.1026  0.2028
10320W        W26794  14.920  15.843   0.141 -0.3215 -0.1346 -0.1015
10321W        W26795   6.965   7.490  10.901  0.0397 -0.0639 -0.0389
10322W        W26796  16.953  11.293  12.594 -0.1172  0.0763 -0.0899
10323W        W26797  18.606  16.350   1.885  0.0245 -0.1475 -0.2502
10324W        W26798  13.113   4.727  13.280 -0.0874 -0.0993  0.3545
10325W        W26799  18.248  12.025  14.821  0.2653 -0.1535  0.0474
10326W        W26800  13.035   6.602  10.675  0.2353  0.0903  0.1289
10327W        W26801   4.984   8.075  14.246  0.3525 -0.1295  0.0911
10328W        W26802  12.238   3.805  14.226  0.0782  0.1238 -0.0323
10329W        W26803  12.887   2.158   2.943 -0.0375  0.0410  0.1179
10330W        W26804   1.163   6.838   1.597 -0.2398  0.0392 -0.2610
10331W        W26805   6.852  11.471  14.117  0.0256 -0.0314  0.0763
10332W        W26806   6.155  17.013   4.717  0.1564 -0.0157 -0.0405
10333W        W26807  14.299  14.888   1.661  0.1675 -0.2623  0.2834
10334W        W26808  15.260  14.046   2.684  0.0397  0.2323  0.1971
10335W        W26809  16.453  16.019  12.346 -0.1265  0.1629 -0.0137
10336W        W26810   4.761   7.948  12.530 -0.2100  0.1506  0.0141
10337W        W26811  11.413  13.265   4.083 -0.0021 -0.2651 -0.2017
10338W        W26812   6.978   2.757   0.324  0.1419 -0.2763  0.2354
10339W        W26813   2.706  11.005  14.805 -0.0670  0.2597  0.1701
10340W        W26814  13.354  11.430   0.677 -0.1809 -0.2684  0.2511
10341W        W26815   3.058  13.345   0.942  0.0718  0.3548 -0.3044
10342W        W26816  12.870   9.982   1.652 -0.3629  0.2291 -0.0052
10343W        W26817   3.994   2.543  14.834 -0.1075  0.0997 -0.2552
10344W        W26818   6.687   3.653  14.503  0.3926 -0.0324 -0.0862
10345W        W26819  15.304   3.725   4.694 -0.0267 -0.0812 -0.1688
10346W        W26820   3.997  11.710   1.472  0.2212 -0.0560 -0.3506
10347W        W26821  15.907  17.530   0.202  0.1302  0.2150  0.2748
10348W        W26822   0.017   1.002   5.437  0.0666 -0.2755 -0.0838
10349W        W26823  15.082  12.166   4.605 -0.1526  0.0909 -0.0970
10350W        W26824   1.370  16.896  13.336 -0.1114  0.0184 -0.0034
10351W        W26825  12.307   2.848   0.567  0.3167 -0.2412  0.0009
10352W        W26826  10.400   9.539  11.021  0.3429 -0.4949  0.1504
10353W        W26827   9.295   1.053  15.071  0.0717 -0.2014  0.1496
10354W        W26828   9.092  12.282   2.070 -0.1056 -0.0040 -0.0322
10355W        W26829   5.216  14.432  10.133 -0.0275  0.0954  0.1367
10356W        W26830  10.387  10.212   2.642  0.0022 -0.0668  0.1171
10357W        W26831   5.964  12.796   1.101 -0.0215 -0.0737  0.0234
10358W        W26832  16.195   7.823   2.038  0.1763 -0.0303 -0.0580
10359W        W26833   3.325   5.898  12.272  0.2752 -0.1846 -0.1703
10360W        W26834   8.808   0.394   1.635  0.3779  0.0132  0.2725
10361W        W26835  16.797   0.360  11.263 -0.0939  0.1209 -0.2098
10362W        W26836  14.031   1.147   1.689  0.1787  0.0295  0.1173
10363W        W26837   1.635  12.180   0.589 -0.0017 -0.1973 -0.0464
10364W        W26838  18.550  17.608   3.552 -0.0997 -0.1386  0.0370
10365W        W26839   7.933  17.422   4.656  0.0173  0.1700 -0.0280
10366W        W26840   0.821  12.308  14.452 -0.1755 -0.0786 -0.0312
10367W        W26841  13.359   8.007  12.100  0.0175 -0.0205  0.0932
10368W        W26842   1.127   7.002   5.052 -0.1438 -0.1177  0.0466
10369W        W26843   1.100  14.059  11.093 -0.0039 -0.0893 -0.0528
10370W        W26844  12.120  12.870   2.798  0.1775 -0.0596 -0.1393
10371W        W26845  16.251   8.938  11.124  0.1165 -0.6952 -0.2948
10372W        W26846   7.499  18.838  11.175  0.4781  0.1542  0.2057
10373W        W26847   2.385  11.720   4.616 -0.0717 -0.0270 -0.4417
10374W        W26848   1.229  12.652  14.246  0.1327  0.0514 -0.0909
10375W        W26849  18.405  18.880  13.069 -0.2283 -0.1643  0.0395
10376W        W26850   5.207   8.781  12.643  0.0133 -0.0320 -0.0119
10377W        W26851   0.020  10.603  11.341 -0.0487 -0.0871 -0.1052
10378W        W26852   8.330  11.280   2.182  0.0442 -0.4241  0.0550
10379W        W26853   6.562  17.097   5.028 -0.3173  0.0979 -0.0129
10380W        W26854   2.304  19.138  12.280 -0.2915  0.0604  0.0240
10381W        W26855   9.518  12.411  13.067  0.1325 -0.3334  0.1714
10382W        W26856  15.266   8.108  13.590  0.3630 -0.2326  0.0826
10383W        W26857  17.482  15.480  12.722 -0.0983 -0.1254  0.0110
10384W        W26858  17.732   5.008  12.335 -0.0611  0.2801  0.2747
10385W        W26859   4.051  14.687  11.056 -0.0373 -0.2005  0.0855
10386W        W26860   0.480   1.662  14.878  0.2038 -0.2306 -0.0567
10387W        W26861   9.867  11.678   0.046  0.0275  0.4341  0.1313
10388W        W26862   2.847  17.748  11.510 -0.1758 -0.0762 -0.1637
10389W        W26863   1.808  14.566  15.017 -0.1120 -0.0535 -0.4742
10390W        W26864   6.505  10.313   0.206 -0.0210  0.1494  0.0137
10391W        W26865  15.129   7.116   1.293 -0.1285  0.2186 -0.4059
10392W        W26866   1.806   6.837  12.417 -0.0986 -0.0907  0.0195
10393W        W26867   7.891   9.901   2.945  0.0424 -0.1679  0.0965
10394W        W26868   3.958  13.819  10.677 -0.0529  0.1252 -0.0060
10395W        W26869  17.747  10.636  13.171  0.0484  0.1040 -0.0152
10396W        W26870  15.112  10.004  13.224 -0.1036 -0.1250 -0.1792
10397W        W26871  11.998   6.049   0.554 -0.2757  0.2565 -0.0437
10398W        W26872  13.420   4.549  10.582 -0.0542  0.2958  0.1456
10399W        W26873  12.474   8.772  13.555  0.0393 -0.2150  0.2301
10400W        W26874  11.076  17.639   0.923  0.0790 -0.1503 -0.1662
10401W        W26875  16.702   4.814   2.500  0.0079  0.0952 -0.2987
10402W        W26876   3.758  12.356  10.916 -0.1030  0.0751  0.1615
10403W        W26877   1.413   7.678   4.557 -0.1501  0.0444 -0.0560
10404W        W26878   2.432   3.473  11.287  0.0097 -0.0527  0.0622
10405W        W26879   4.034  10.981  12.687 -0.0538 -0.2683  0.4988
10406W        W26880   7.759  11.734  14.640 -0.0627  0.2051 -0.0905
10407W        W26881  16.011  16.733   1.008 -0.1196 -0.4079 -0.1791
10408W        W26882  12.097   9.259  12.081  0.0142 -0.1404 -0.1647
10409W        W26883   6.097  10.886  12.490 -0.1757 -0.3335 -0.0149
10410W        W26884  16.349   8.803  13.069 -0.3348 -0.0072  0.1451
10411W        W26885   6.421   9.725   2.932 -0.0277 -0.3476  0.2058
10412W        W26886   1.960  15.505  12.765 -0.2278 -0.0326 -0.0453
10413W        W26887   5.408  12.011  12.305  0.2276  0.4691 -0.2681
10414W        W26888   5.072   7.935  13.799 -0.0451 -0.2636 -0.1623
10415W        W26889   0.893   7.179  14.438  0.2695  0.1854  0.2947
10416W        W26890  14.988  11.709  14.992 -0.1380  0.0012 -0.1714
10417W        W26891  17.474  16.339   4.864 -0.0812 -0.1463  0.4103
10418W        W26892  15.957   9.479   4.505 -0.0968  0.2267  0.0485
10419W        W26893  10.900   1.069  10.461 -0.1863 -0.0819  0.0102
10420W        W26894  10.374   9.207   4.630 -0.2396 -0.0430 -0.3677
10421W        W26895  16.419   7.199  13.929 -0.1496 -0.1732 -0.1607
10422W        W26896   9.915   3.480   2.245  0.3283 -0.1663 -0.2884
10423W        W26897   6.369   7.137   1.981  0.2718 -0.2254 -0.2428
10424W        W26898   8.012   1.889   2.935 -0.1829 -0.0642  0.0716
10425W        W26899   0.320   0.626   1.057  0.1103 -0.0012 -0.1211
10426W        W26900  15.795   0.347  14.999  0.2319 -0.0162  0.2508
10427W        W26901  14.412   1.874   2.079  0.0391  0.5241 -0.1516
10428W        W26902   1.030   9.394  14.137  0.2370 -0.2597  0.0485
10429W        W26903  10.399   2.785  11.127 -0.0220 -0.1749 -0.0154
10430W        W26904  16.824   9.710   0.201 -0.2243  0.1969  0.1557
10431W        W26905   1.453   0.325  13.607  0.0680 -0.1205 -0.0306
10432W        W26906   4.070   8.909   0.481  0.0677 -0.0008  0.0714
10433W        W26907   8.886  17.309  10.428  0.1582  0.0444  0.3088
10434W        W26908  14.850   4.184  11.766  0.0068 -0.0218  0.2875
10435W        W26909  12.441   6.551   2.195 -0.1107 -0.2780 -0.0607
10436W        W26910  13.884  16.725   1.872 -0.1458 -0.4248  0.0293
10437W        W26911  18.642   3.529   3.350 -0.2758  0.1015 -0.3732
10438W        W26912   4.595  17.447   3.101 -0.1491  0.2840  0.0646
10439W        W26913   7.858  15.121   3.511 -0.1551  0.0665 -0.0692
10440W        W26914   2.693   6.428   3.425  0.0705 -0.0082 -0.3249
10441W        W26915   6.959   6.320  11.995  0.2623 -0.0995  0.1461
10442W        W26916   2.036  16.488  13.203 -0.1283 -0.1835 -0.2579
10443W        W26917  17.417   2.946   4.480  0.1927  0.0789  0.0296
10444W        W26918  16.191   0.894   4.788  0.0725 -0.0633 -0.2495
10445W        W26919  11.288  17.465   1.999 -0.1573 -0.2239 -0.1718
10446W        W26920  12.177  18.314   4.166  0.0573  0.1250  0.2158
10447W        W26921   2.112   0.848   9.879 -0.2180 -0.1358 -0.0907
10448W        W26922  14.037   2.937  15.021  0.0313 -0.2150 -0.3146
10449W        W26923  15.435   0.993   3.242 -0.0171 -0.0720 -0.0113
10450W        W26924   5.572  14.271  13.135  0.0572  0.0176  0.1499
10451W        W26925  18.453   1.898   2.281  0.2841  0.1588  0.0834
10452W        W26926   1.353  11.587  10.626  0.1711 -0.0588 -0.1576
10453W        W26927   0.008  14.020   5.144  0.1519  0.2512  0.1808
10454W        W26928  11.339  14.560  10.213  0.1867  0.0221 -0.1252
10455W        W26929   7.194   0.106  11.611  0.0846  0.0240  0.0736
10456W        W26930  16.977   0.847   1.924 -0.2981 -0.1373 -0.1887
10457W        W26931   4.830  12.702   4.131  0.3692 -0.1091  0.5431
10458W        W26932  16.078  17.138   3.801 -0.2002 -0.1030  0.1114
10459W        W26933   3.341   6.886   4.195 -0.0396  0.0330 -0.1370
10460W        W26934   6.479  11.645   0.236  0.1724  0.1291 -0.1039
10461W        W26935  11.761  16.335   4.288  0.0855 -0.4122 -0.0056
10462W        W26936   7.500   2.115   4.914  0.1576  0.0463  0.0376
10463W        W26937   7.688   5.308  13.363 -0.2239 -0.0158  0.0735
10464W        W26938   3.962  13.972  14.069  0.0243 -0.1919 -0.1054
10465W        W26939  11.066  17.747  14.798 -0.0411 -0.1666  0.1873
10466W        W26940  18.562  11.765   0.225 -0.0040  0.1255 -0.0050
10467W        W26941  14.033  11.492   1.458 -0.1697 -0.0788  0.1026
10468W        W26942   5.414  17.667   4.031 -0.0949  0.0619  0.1689
10469W        W26943  17.640   8.258  14.843  0.0199  0.0597  0.1333
10470W        W26944   8.628   8.173   2.255  0.2753 -0.2116 -0.0453
10471W        W26945  14.673   0.840   3.637 -0.0613  0.0498  0.2238
10472W        W26946  16.096  14.503  12.449  0.2358  0.0174 -0.0275
10473W        W26947   1.878   3.280   4.434 -0.0992  0.2210  0.1182
10474W        W26948   4.023   7.168   2.657 -0.2041 -0.1383  0.1991
10475W        W26949   7.050  11.457   2.380  0.1832  0.2632 -0.1824
10476W        W26950  17.780   7.078   4.805  0.0453  0.0880  0.0930
10477W        W26951   3.628   8.691  11.325 -0.1030 -0.2091  0.0910
10478W        W26952   5.967  18.871  11.388  0.0046  0.4014  0.1768
10479W        W26953  12.284   3.548  10.635 -0.1578 -0.1324  0.0736
10480W        W26954  18.493   9.915  13.268  0.0547 -0.2135  0.3770
10481W        W26955  16.528   3.471  12.574 -0.0241  0.0640  0.1561
10482W        W26956   7.956  15.953  14.266 -0.0173  0.1430  0.2553
10483W        W26957   9.815  17.711   0.662  0.0557 -0.1761  0.1387
10484W        W26958   8.529   9.248   0.988  0.0460  0.1672 -0.2645
10485W        W26959   0.110  16.837   2.529 -0.1405 -0.2686  0.3538
10486W        W26960   3.731  14.987  15.139  0.0248  0.1817 -0.0607
10487W        W26961   2.220   1.689   5.383  0.0168 -0.0611  0.2925
10488W        W26962   2.325   7.680   2.356  0.1886 -0.0459  0.0807
10489W        W26963  14.260   1.791  11.822  0.2375 -0.0630  0.2560
10490W        W26964  13.783   9.351   1.533  0.2386  0.0559  0.2106
10491W        W26965  12.795   6.076  10.574  0.2620 -0.2854  0.0349
10492W        W26966   4.528   8.840   0.194 -0.0857 -0.2820 -0.0475
10493W        W26967   2.738  13.501   3.111  0.0636 -0.1471 -0.1057
10494W        W26968  18.271   0.188   5.910 -0.1954 -0.1756  0.2770
10495W        W26969   9.990   3.003   9.740 -0.1004  0.0117 -0.0561
10496W        W26970  16.325   0.567  12.596 -0.1556  0.1035  0.0050
10497W        W26971   2.430  14.615   0.665 -0.0850 -0.1240 -0.1103
10498W        W26972   2.647   2.311   4.844 -0.1693 -0.0866  0.0037
10499W        W26973   0.493   7.225  14.146  0.2817  0.3300 -0.4059
10500W        W26974  18.620   3.711   2.476 -0.1234  0.0584  0.2108
10501W        W26975   2.968   9.776  13.367  0.0183  0.0745 -0.2289
10502W        W26976  18.969  19.099  13.065 -0.1025  0.0581 -0.1440
10503W        W26977  11.105   0.895  11.330  0.4058 -0.1154  0.2119
10504W        W26978   1.361   1.636   5.327 -0.1906  0.1025 -0.1155
10505W        W26979   1.695   1.568  13.084  0.2722  0.0026 -0.0445
10506W        W26980  17.739  11.780  11.223  0.2521 -0.1755 -0.1612
10507W        W26981   6.047   3.840   3.281 -0.0121  0.1382  0.0892
10508W        W26982  11.635   4.482  11.897 -0.0239 -0.0573  0.1166
10509W        W26983   4.319   1.993   1.025  0.0235 -0.0431  0.1192
10510W        W26984   5.886   7.347  13.152 -0.0499 -0.0773 -0.1024
10511W        W26985   9.847   4.182   3.645 -0.0948  0.1199 -0.2774
10512W        W26986   5.867   7.757  14.717 -0.3156 -0.1172 -0.1056
10513W        W26987   4.702   3.605   3.163 -0.0405  0.0866  0.0785
10514W        W26988   6.395  10.903  12.851  0.2792 -0.1505 -0.0555
10515W        W26989   2.112   8.781  10.292  0.0544 -0.2036 -0.0077
10516W        W26990  11.510  16.929   3.599  0.1436  0.3337 -0.1428
10517W        W26991  18.175   6.858   2.786 -0.1171 -0.1750 -0.2010
10518W        W26992  12.721   9.635   2.788 -0.2189 -0.0302  0.0633
10519W        W26993   7.926  11.503   2.751 -0.2288  0.1707 -0.4060
10520W        W26994  11.150  15.356   3.420 -0.1317 -0.2322 -0.1034
10521W        W26995   9.952   8.584  11.675  0.1098 -0.2977  0.0827
10522W        W26996   8.897  18.097  12.492  0.0595  0.2406 -0.3097
10523W        W26997   8.824  16.830   0.258 -0.3305 -0.1498  0.4058
10524W        W26998   4.766  13.771  12.836 -0.0847 -0.3392 -0.2432
10525W        W26999   0.059   9.657  11.857  0.0384  0.0753  0.2219
10526W        W27000  18.983  18.715  10.849  0.1247  0.1726  0.1383
10527W        W27001  14.884  11.655  12.587 -0.2682  0.3278  0.1331
10528W        W27002  17.565  10.112   2.426  0.1062  0.0689  0.2399
10529W        W27003   6.153  15.593  11.955  0.1378  0.1370  0.0914
10530W        W27004   4.561  16.138   2.101 -0.1030 -0.0122  0.0766
10531W        W27005   5.368   8.725  10.896  0.0922  0.0447  0.2760
10532W        W27006   3.923  17.313   0.137  0.0321 -0.1874 -0.0805
10533W        W27007  13.319   6.303  13.406 -0.2250 -0.0143  0.0603
10534W        W27008   9.022   3.641   0.385  0.2968 -0.2114  0.2760
10535W        W27009   7.176   1.344  14.668 -0.0461  0.1688  0.1774
10536W        W27010  11.234  12.058   4.894  0.3287  0.3228  0.1548
10537W        W27011  16.410   8.586   0.231 -0.2366  0.0158  0.0702
10538W        W27012  11.629  19.023   1.514  0.2307  0.0781 -0.3159
10539W        W27013  12.984  14.878  12.948  0.0408  0.2293 -0.1355
10540W        W27014  15.539  10.071   2.665  0.0111  0.1482 -0.1631
10541W        W27015   1.556  15.556  11.753  0.0395 -0.0334  0.1195
10542W        W27016   0.622  14.671  14.455  0.0558 -0.2065 -0.3121
10543W        W27017  10.571   6.533   5.450  0.0419 -0.1447  0.1278
10544W        W27018   9.448  18.629  14.500  0.0197  0.1284 -0.1400
10545W        W27019  17.638  17.586   2.147 -0.0413  0.0092 -0.1446
10546W        W27020  13.603   1.842   1.225  0.3052  0.0432  0.3259
10547W        W27021  18.634  11.771   0.722  0.0570  0.0569  0.1168
10548W        W27022   3.023   0.686   0.780  0.2615  0.0551 -0.0876
10549W        W27023   9.130   2.947   3.508  0.1462 -0.1830  0.1083
10550W        W27024  17.921  15.210  12.015  0.0615  0.1853 -0.2375
10551W        W27025  11.493   3.272   9.995  0.1865  0.0137  0.2982
10552W        W27026  10.527   0.375  10.979 -0.0165  0.2053 -0.1639
10553W        W27027  18.917   0.938   4.268  0.0323  0.3499  0.0753
10554W        W27028  14.260   2.836  14.546  0.1375 -0.1097 -0.1622
10555W        W27029   9.487   6.325  11.812  0.1951 -0.2223  0.0234
10556W        W27030  18.213   2.560  12.209 -0.1198  0.2206  0.0455
10557W        W27031  13.250  18.478  12.962 -0.2256  0.0117  0.2246
10558W        W27032   6.598   9.236   2.832  0.1893 -0.1844  0.2135
10559W        W27033   0.759   3.112  12.023  0.3069 -0.0227  0.1385
10560W        W27034   2.721   0.792   1.625  0.3598  0.0895  0.0326
10561W        W27035   9.387  13.384   3.195  0.1665 -0.0580 -0.1126
10562W        W27036  16.635   4.838  11.512  0.0966  0.1037 -0.2787
10563W        W27037   5.356  13.815  12.061  0.1249 -0.2313  0.1425
10564W        W27038   5.566  12.264   3.086  0.2872 -0.2494  0.0330
10565W        W27039   6.165  10.118   4.877  0.0285 -0.4029 -0.1123
10566W        W27040  15.974   3.841   4.362 -0.1151  0.0309  0.0538
10567W        W27041   2.697  13.251   0.557 -0.0286 -0.1331  0.5169
10568W        W27042  11.152  11.599  10.703 -0.1597  0.0849 -0.2495
10569W        W27043  16.383   7.622  11.042 -0.1012  0.2484  0.2973
10570W        W27044  19.026   3.249  12.220  0.0909 -0.1503 -0.0670
10571W        W27045  14.073   1.187  10.778 -0.1380  0.0301 -0.1927
10572W        W27046  18.580   2.102   3.339  0.3431 -0.0939 -0.0236
10573W        W27047  16.659   6.723   3.489 -0.1808  0.3121 -0.1428
10574W        W27048  14.339  12.110   0.404  0.0196  0.2332  0.1883
10575W        W27049  16.946   9.728   2.180 -0.1357  0.3580  0.0260
10576W        W27050   9.017   8.480  11.422  0.2144  0.1488  0.1165
10577W        W27051   1.988   8.040  14.902 -0.1295 -0.0745 -0.0677
10578W        W27052  10.477   0.308  11.829  0.1982  0.2888  0.3610
10579W        W27053  17.768  14.231   3.071  0.3267  0.3127 -0.2967
10580W        W27054  17.248   3.138  14.723 -0.2686  0.1445 -0.2138
10581W        W27055  17.306  18.948  13.592  0.1449 -0.0305  0.1950
10582W        W27056   4.267  17.432  13.994  0.2321  0.0503 -0.0026
10583W        W27057  17.267   6.362   5.150  0.0202  0.0915  0.0549
10584W        W27058   1.642   3.961   4.545  0.0972 -0.0883 -0.1295
10585W        W27059   2.276  14.167   0.491  0.3678  0.0748 -0.1422
10586W        W27060  12.437   0.237   0.668 -0.0496 -0.2390  0.1353
10587W        W27061   9.193  18.982  11.628 -0.2418 -0.1141  0.3389
10588W        W27062  18.520  18.389   4.157 -0.1330  0.3608  0.3387
10589W        W27063   6.527   7.158   3.750  0.1204  0.1443  0.0403
10590W        W27064   6.022   5.815   4.054 -0.2207  0.0076  0.4444
10591W        W27065   4.180   9.242   9.404 -0.1419 -0.1022 -0.1154
10592W        W27066  19.081   1.484  11.008 -0.0830  0.1341 -0.0322
10593W        W27067   7.749   8.845  10.327 -0.3406 -0.1992  0.1438
10594W        W27068   7.155   3.558  14.963  0.0218 -0.0337  0.1964
10595W        W27069   9.345   7.662   4.412  0.1006 -0.1789  0.0959
10596W        W27070  13.999  15.248  12.235  0.0389  0.0235 -0.1867
10597W        W27071   4.010  11.881   2.245 -0.1865 -0.1012  0.1868
10598W        W27072  14.628   6.633   5.236  0.2021 -0.2738  0.0637
10599W        W27073   7.955  15.407   0.005  0.1027 -0.2179  0.4022
10600W        W27074  10.247   2.178   1.189 -0.3098 -0.3459  0.2406
10601W        W27075  11.160  11.307   2.127 -0.0346 -0.0962  0.1159
10602W        W27076  15.942   9.355   0.561  0.2215  0.1863 -0.1457
10603W        W27077  10.851   2.001  10.555 -0.2516  0.4149 -0.0029
10604W        W27078  10.373   5.988   2.707 -0.0701  0.1420  0.1333
10605W        W27079  10.335   2.651   9.824  0.1050 -0.4726 -0.0509
10606W        W27080   2.483   1.971  14.774  0.1251 -0.1724 -0.0371
10607W        W27081   9.104   7.348   1.545  0.1207 -0.0485  0.5013
10608W        W27082   1.040   3.007  14.799  0.2443 -0.1465 -0.0882
10609W        W27083   6.071  15.836   4.741  0.2836  0.1891  0.1175
10610W        W27084  12.868   0.609   2.427 -0.0705  0.1662  0.2120
10611W        W27085  14.030  11.289   0.037  0.0816  0.0220  0.0196
10612W        W27086   7.188  14.920   2.217  0.1560 -0.1294 -0.0120
10613W        W27087  16.625  15.114  14.264 -0.0462  0.0327 -0.0928
10614W        W27088   2.649   7.294  11.575  0.1399 -0.0272 -0.2354
10615W        W27089   4.671   2.220   3.698  0.5226  0.0546 -0.2384
10616W        W27090  16.398  15.464   1.590 -0.1696 -0.0471  0.0910
10617W        W27091   5.948   3.821  13.565 -0.0645  0.0378 -0.2811
10618W        W27092   9.296  11.733   2.587 -0.3907 -0.1085  0.0536
10619W        W27093   2.266  17.526   5.119 -0.1447  0.0193 -0.2055
10620W        W27094  19.129  13.571  15.113  0.0439  0.1339  0.1118
10621W        W27095   5.782  11.048  15.010  0.3452 -0.1892 -0.1761
10622W        W27096   4.603  12.369   3.540 -0.0559 -0.0325  0.2323
10623W        W27097  17.254  13.461   4.648  0.1429  0.0701  0.0137
10624W        W27098   3.415  16.167   3.989  0.0461 -0.2011 -0.0095
10625W        W27099  18.058   6.272  11.885  0.1370 -0.1080 -0.1022
10626W        W27100   4.045   8.022   1.442  0.2036  0.0054 -0.2330
10627W        W27101  10.868   8.236   2.048  0.0166 -0.3695 -0.2512
10628W        W27102   9.119  11.137   0.160 -0.0088  0.2045  0.0899
10629W        W27103   3.531  14.178  10.498  0.0582 -0.1605  0.1520
10630W        W27104   8.297  16.936   0.273 -0.0665 -0.1175  0.2735
10631W        W27105   0.863   1.971   1.195 -0.0914 -0.0726  0.0671
10632W        W27106   8.774  16.772   3.713 -0.0321 -0.0585 -0.1164
10633W        W27107  10.780  13.364   3.172 -0.1503  0.0824  0.1910
10634W        W27108  11.230   7.409   0.799  0.0425  0.2157 -0.0715
10635W        W27109  18.480  18.456  13.423  0.0921 -0.1245 -0.0758
10636W        W27110   2.834   0.412   5.020 -0.1184 -0.1784 -0.2039
10637W        W27111  13.557  14.550   4.241  0.0065 -0.2745  0.1325
10638W        W27112  11.658  11.641   4.677 -0.1052 -0.0496  0.0692
10639W        W27113  17.850  18.162  15.126 -0.1022  0.0871 -0.1447
10640W        W27114  15.577  15.763  13.481 -0.0629 -0.0371 -0.1741
10641W        W27115   9.411   7.950  10.787 -0.0036  0.1516 -0.0236
10642W        W27116  13.986   8.537  12.389  0.1538 -0.1197 -0.1246
10643W        W27117  11.909   8.510  12.968  0.2137 -0.2465 -0.3083
10644W        W27118  16.022  11.144   3.229  0.1224  0.1522 -0.1291
10645W        W27119  12.569   6.429   1.466  0.0650 -0.1063  0.0244
10646W        W27120   1.787  10.851  14.332  0.0136 -0.2891  0.0926
10647W        W27121   9.321   2.659  11.384  0.1492 -0.0489 -0.1169
10648W        W27122   9.313   0.431   0.838 -0.1628 -0.0822 -0.0843
10649W        W27123  12.500   7.966  11.271 -0.0731 -0.0778  0.0545
10650W        W27124  17.952  19.123   2.179 -0.4475 -0.1017 -0.0910
10651W        W27125  13.422   9.041   3.304  0.1002 -0.3684  0.0946
10652W        W27126   1.599  11.987   9.998  0.3071  0.1084 -0.2393
10653W        W27127  17.012   9.265  10.957 -0.1780  0.0356 -0.1053
10654W        W27128   5.047  16.982   2.447  0.1622  0.1082  0.0315
10655W        W27129  12.047   1.024   3.434  0.1217 -0.2030  0.1812
10656W        W27130   6.673  15.732  11.201 -0.2536 -0.0347  0.0863
10657W        W27131   3.059  18.247   1.344 -0.3220 -0.2689  0.3003
10658W        W27132   1.096   6.555   1.010 -0.0105 -0.0577  0.1481
10659W        W27133  13.630  17.491  11.500 -0.0364  0.3040 -0.1189
10660W        W27134   3.285  18.096  14.775 -0.3237 -0.0478 -0.1308
10661W        W27135   8.050   6.838  13.968 -0.2625  0.1972 -0.0052
10662W        W27136   2.224  18.304  11.599 -0.0227  0.2298 -0.2895
10663W        W27137   4.126  13.643  13.670 -0.0450  0.4602  0.2028
10664W        W27138   8.016   4.883  13.385  0.2144  0.0992 -0.0759
10665W        W27139   1.753  15.327   4.111 -0.3308 -0.2631 -0.0516
10666W        W27140  15.466   2.639   1.599  0.0712 -0.0528 -0.1171
10667W        W27141   1.528   2.171  14.821  0.1820 -0.2974 -0.1312
10668W        W27142  19.031   9.708  13.215 -0.1318 -0.2288  0.4158
10669W        W27143   1.157  10.623   4.457  0.2731  0.1268  0.4281
10670W        W27144  14.052  17.525   0.873 -0.0334 -0.1511  0.0217
10671W        W27145  14.608   4.923   2.548  0.1918 -0.5152  0.0771
10672W        W27146   1.795   3.164   0.872  0.0456 -0.3201  0.2247
10673W        W27147   7.898  18.049  10.926  0.3635  0.1191 -0.0733
10674W        W27148   9.059  15.343  14.353  0.0786 -0.2403  0.3429
10675W        W27149  15.622  18.545  10.203 -0.2688  0.0857 -0.1932
10676W        W27150  13.306  10.917  13.303  0.0891  0.0485 -0.0126
10677W        W27151   9.988   8.661   1.513 -0.2880  0.2125 -0.0945
10678W        W27152   0.066  18.186   2.808 -0.0903 -0.1875  0.1965
10679W        W27153  12.339   3.639   1.564  0.1564 -0.3030 -0.1064
10680W        W27154   6.005   7.703  14.015 -0.0421  0.2683 -0.1083
10681W        W27155   5.933  10.717   3.615 -0.2883  0.1197  0.1619
10682W        W27156   4.969   2.430   1.705  0.1000  0.0794  0.1556
10683W        W27157  17.674   7.784   4.536  0.0905  0.1651  0.0485
10684W        W27158   6.983   6.045   3.446 -0.2996  0.1964  0.0952
10685W        W27159  17.780  17.273  12.949  0.0093  0.1202 -0.0725
10686W        W27160  11.766   0.976   4.384 -0.0346  0.0779 -0.3254
10687W        W27161   4.946   8.572  10.386 -0.2283  0.2963  0.0176
10688W        W27162   3.222  13.855   3.627 -0.0659 -0.0923 -0.2581
10689W        W27163  11.986   0.682  11.983 -0.1297  0.1398 -0.1198
10690W        W27164  15.730  18.664   3.142 -0.1653  0.1327  0.0772
10691W        W27165  17.236  10.691  12.445 -0.1288 -0.1164  0.1397
10692W        W27166   8.356  12.563   3.810  0.1080  0.0651  0.2818
10693W        W27167   1.738   6.431   4.998  0.3001  0.4106 -0.3025
10694W        W27168   5.150   4.573   1.603 -0.2591 -0.0144  0.3513
10695W        W27169   3.610   7.938  12.205  0.1122  0.1151  0.3220
10696W        W27170  14.808  10.674  11.671  0.1220 -0.0184  0.1614
10697W        W27171  18.732   5.626   2.919 -0.0281  0.4175  0.1139
10698W        W27172  15.512   5.521  13.679  0.1080  0.1626 -0.2082
10699W        W27173   0.405   2.207  12.543  0.1006 -0.1472  0.1444
10700W        W27174   5.785  17.632   1.317 -0.1266 -0.2174  0.1738
10701W        W27175  17.381  16.651   1.191  0.5246 -0.0739 -0.2224
10702W        W27176   6.171   4.330   2.075 -0.1891 -0.0953 -0.0902
10703W        W27177   8.429  12.899   2.234  0.4455 -0.1354 -0.0147
10704W        W27178   5.344   0.511  13.742 -0.0548  0.1458  0.1122
10705W        W27179  18.479  17.760   5.474 -0.0014 -0.0251 -0.1239
10706W        W27180   6.956  13.626   1.066 -0.0422 -0.2276  0.0067
10707W        W27181  19.131   2.919  14.208 -0.2467  0.3234  0.1498
10708W        W27182  16.442  14.321  13.625 -0.1581  0.1068  0.2210
10709W        W27183  11.368   3.250   1.572 -0.0834 -0.2486 -0.1983
10710W        W27184   8.117  17.548   0.072 -0.3018 -0.2719 -0.2284
10711W        W27185   8.353   0.587   3.413 -0.0365 -0.0602 -0.1355
10712W        W27186   3.893  11.858  10.836 -0.0682  0.3759  0.0395
10713W        W27187  18.157  12.557  11.061 -0.2188 -0.3249  0.2708
10714W        W27188   9.835   2.396  13.051 -0.2494  0.1679  0.0322
10715W        W27189   7.866  11.127   1.125  0.1100 -0.2445 -0.2585
10716W        W27190  11.376  13.432  14.663 -0.0257 -0.2996  0.0210
10717W        W27191   4.077  16.571  10.547  0.0048  0.0270  0.0165
10718W        W27192   8.393  15.880  11.787  0.2225 -0.0884  0.0846
10719W        W27193   9.432   6.557  11.353 -0.0691 -0.5657  0.3348
10720W        W27194   3.302   8.827  13.739 -0.2580  0.2118 -0.0632
10721W        W27195   6.794   7.244   4.844 -0.0389  0.2277  0.0697
10722W        W27196  13.603  10.886   0.903  0.0771 -0.1962  0.0636
10723W        W27197   6.281  10.335   2.086 -0.0803 -0.3528  0.1116
10724W        W27198   4.694  16.179   3.019 -0.1120  0.1179  0.0822
10725W        W27199  11.106   8.782  14.467  0.1813  0.1825  0.0698
10726W        W27200  15.762   6.894   1.753 -0.3024 -0.0756 -0.1603
10727W        W27201  14.398  10.153   2.846 -0.1345  0.1448  0.0054
10728W        W27202   4.219  16.067   2.517 -0.2886 -0.4048  0.1781
10729W        W27203   0.953  15.880  14.824  0.1256  0.2292 -0.1899
10730W        W27204  14.565  17.978  13.044 -0.1068  0.2383 -0.3059
10731W        W27205   6.992   6.835  14.475  0.0403 -0.4678 -0.2080
10732W        W27206  16.928   9.543  11.396 -0.1181  0.1725 -0.3906
10733W        W27207   7.630   5.119   4.989  0.1922 -0.2817  0.1757
10734W        W27208   6.386   8.943  10.629  0.2033 -0.1386  0.1550
10735W        W27209   1.040  15.882   3.228  0.3302  0.1302  0.3072
10736W        W27210  15.438  17.928  13.818 -0.2205 -0.2206 -0.3107
10737W        W27211   7.043  14.062  11.229 -0.1791 -0.1354 -0.2296
10738W        W27212   2.064  11.228   4.403  0.2989  0.0648 -0.0602
10739W        W27213  10.512   0.623  12.248  0.1740  0.1769  0.0017
10740W        W27214   1.217  12.524  13.494 -0.2344  0.1718  0.2019
10741W        W27215  14.275   8.264   2.016  0.0274 -0.2135  0.0097
10742W        W27216  13.885  13.822  12.752 -0.2287 -0.4066  0.1805
10743W        W27217  18.952  13.586   0.839  0.2137  0.0191 -0.1160
10744W        W27218  10.410   5.024  14.949 -0.3142 -0.1668 -0.1795
10745W        W27219  17.235   1.696   2.935 -0.1236 -0.1478  0.1170
10746W        W27220  15.470  15.045  11.101  0.0555 -0.0561 -0.2132
10747W        W27221   9.184  17.227   0.859  0.1832  0.0368 -0.1503
10748W        W27222  14.501   9.221  14.254 -0.0222  0.1915 -0.2274
10749W        W27223   6.214   1.950   0.029  0.1193 -0.4356  0.1075
10750W        W27224  17.272   4.246  14.320  0.0090 -0.2469 -0.1069
10751W        W27225  12.900   0.011  14.328 -0.2810  0.0045 -0.0270
10752W        W27226   0.570  15.378   2.939 -0.0557 -0.0711  0.1142
10753W        W27227   8.823   6.436   9.720 -0.2884  0.1372 -0.1463
10754W        W27228  15.168   1.400   3.742 -0.0840 -0.0248  0.0389
10755W        W27229  16.504   3.850  10.179 -0.0293 -0.0828 -0.0736
10756W        W27230  10.292   8.276   4.309 -0.0929  0.0740 -0.1050
10757W        W27231  13.715   3.468  10.283 -0.1687 -0.0345  0.1056
10758W        W27232   8.007   6.325   9.849 -0.2225  0.2590 -0.0249
10759W        W27233  10.696   9.558   1.479 -0.0006  0.0852  0.0477
10760W        W27234  13.104   3.801   1.161 -0.1308  0.3416  0.1582
10761W        W27235   2.661   3.541   0.455 -0.2230  0.1088 -0.1642
10762W        W27236   3.190  18.686   3.964  0.5680 -0.1998  0.2053
10763W        W27237   4.141   6.646  12.561  0.0075 -0.2507  0.1699
10764W        W27238   4.380   9.736   4.357  0.0405 -0.1472  0.0788
10765W        W27239  16.403   6.562  13.046  0.0564  0.0321  0.0353
10766W        W27240   8.767   8.455   1.276 -0.0801  0.2439  0.1559
10767W        W27241  16.755   7.035   1.380 -0.4646 -0.0334  0.0756
10768W        W27242   5.462  17.156   9.566  0.0835  0.0309 -0.0340
10769W        W27243   3.562  12.486   4.406 -0.0684 -0.0984  0.4799
10770W        W27244  13.320   6.229   3.036 -0.1439 -0.1037  0.3538
10771W        W27245   9.209   9.454  14.733 -0.1817  0.0505 -0.2267
10772W        W27246  16.869   8.311  13.692 -0.0622  0.2024 -0.3153
10773W        W27247   0.247  13.237  12.765 -0.2365  0.0102 -0.0843
10774W        W27248  13.193   1.803   2.131  0.2345  0.2034 -0.2076
10775W        W27249   6.563   8.341  14.411  0.0406 -0.0024  0.2125
10776W        W27250   0.579   9.872  10.891  0.2005  0.5002 -0.0002
10777W        W27251  14.735   4.680   1.523  0.0064 -0.0965  0.1691
10778W        W27252   7.341   0.296   4.933  0.1873  0.1435 -0.1311
10779W        W27253   3.184   4.655  14.627 -0.1810 -0.0117  0.5009
10780W        W27254   9.671  14.410   0.428 -0.0151 -0.2947 -0.4444
10781W        W27255  12.744  10.256  13.528 -0.0128  0.3642  0.0697
10782W        W27256  11.610  17.697  14.550  0.0128 -0.2325  0.0046
10783W        W27257   1.969  11.732   0.637  0.0488 -0.0132  0.2629
10784W        W27258   0.854   7.231  12.150 -0.1950 -0.0567 -0.1859
10785W        W27259   9.442  13.374  12.631 -0.0102 -0.0463 -0.1828
10786W        W27260  19.040  16.286  14.126  0.2400  0.1244  0.1706
10787W        W27261   1.778   4.491  11.711 -0.2337  0.2095  0.0108
10788W        W27262  16.081   4.134   1.269  0.5647 -0.1583  0.1307
10789W        W27263   6.019  11.313  11.146 -0.1330  0.0205 -0.0939
10790W        W27264   7.849   8.070  14.836  0.1043 -0.0507 -0.0253
10791W        W27265  13.334  10.132   0.265 -0.0807  0.0843 -0.2738
10792W        W27266  12.511   3.574   2.971 -0.2541  0.2494 -0.3704
10793W        W27267   2.256   2.676   5.037  0.0507 -0.1958 -0.0568
10794W        W27268  12.694  11.054  14.784  0.1457 -0.1004  0.0865
10795W        W27269  10.322  10.257  11.829 -0.0416 -0.0110 -0.0048
10796W        W27270   8.667   0.315  12.684 -0.2068 -0.2514 -0.1557
10797W        W27271  11.537   6.103  12.376 -0.1515 -0.2304 -0.1322
10798W        W27272   4.163   7.863   3.281  0.4057 -0.3858 -0.4201
10799W        W27273  12.052  12.331  11.355  0.0445 -0.1852  0.0432
10800W        W27274  15.006  18.523   4.800 -0.2169 -0.1127  0.0045
10801W        W27275   0.510  10.178  10.486 -0.2734 -0.0636  0.2428
10802W        W27276   0.634   5.205  10.696 -0.1595 -0.2134  0.1968
10803W        W27277  12.544   8.355   3.298  0.0611  0.0429 -0.0337
10804W        W27278  13.022   5.910  11.723 -0.0124 -0.1588 -0.0433
10805W        W27279  11.587  12.358   5.159 -0.0429 -0.1125 -0.0396
10806W        W27280   5.258  15.746  12.146  0.0924 -0.2661  0.0796
10807W        W27281  13.464   3.590  12.576  0.0964  0.1711  0.0756
10808W        W27282  15.963   5.720  10.254 -0.1321 -0.1771  0.0481
10809W        W27283  13.505  10.958   1.799  0.1258  0.1613 -0.2611
10810W        W27284  13.627  12.752   3.018 -0.0267  0.1859 -0.0155
10811W        W27285   1.547  15.214   9.649  0.0137 -0.4000  0.3811
10812W        W27286  17.087   0.225  12.800  0.3750  0.0351  0.1385
10813W        W27287  12.220  11.057   3.072  0.0176 -0.0255 -0.0556
10814W        W27288  19.150   5.577   4.213 -0.0117 -0.2188 -0.0074
10815W        W27289   9.529  12.128   0.757 -0.3129 -0.1338  0.1739
10816W        W27290   0.758   9.600   0.509  0.1512 -0.2119 -0.5061
10817W        W27291   2.961   1.241  13.180  0.1307  0.2645  0.4517
10818W        W27292  18.433  14.500   4.145 -0.0520 -0.4732  0.2267
10819W        W27293  18.723   9.404   1.785 -0.0636  0.3700  0.0180
10820W        W27294   1.505   3.130   3.245  0.0031 -0.0262  0.2726
10821W        W27295  10.350   6.431   0.401 -0.1656 -0.0630 -0.1141
10822W        W27296  16.700   6.443   4.628  0.0175  0.0834  0.2574
10823W        W27297   0.392  18.118   3.989 -0.1624  0.0161  0.0621
10824W        W27298   8.230   7.613  12.106  0.1611 -0.0626 -0.0526
10825W        W27299   2.640   6.178   0.532 -0.0684  0.1622 -0.1403
10826W        W27300   3.051   0.315   4.594 -0.3474 -0.2113 -0.2492
10827W        W27301   5.673   2.935  12.487 -0.0155  0.0701 -0.0829
10828W        W27302  16.689   3.953   4.991 -0.1857  0.0609  0.0188
10829W        W27303   9.424  18.202   0.586 -0.2777 -0.1443  0.0363
10830W        W27304   3.299  14.902   0.715  0.0718 -0.0771 -0.0211
10831W        W27305  14.622   5.177   1.596 -0.1543 -0.4326 -0.3487
10832W        W27306  17.862  13.863   3.991  0.2015 -0.1077 -0.2850
10833W        W27307  14.561   9.626  13.962 -0.1961 -0.2319 -0.3285
10834W        W27308   4.237  12.449  11.020 -0.1430 -0.1728  0.2082
10835W        W27309  16.660   5.373   2.663 -0.0084  0.2117  0.2056
10836W        W27310   3.225   2.357   0.085  0.0807 -0.0146 -0.0062
10837W        W27311  15.109  18.031  12.282 -0.2428  0.0488  0.4479
10838W        W27312  11.280  15.543   2.992 -0.2638  0.1649  0.1378
10839W        W27313   7.008   7.587   1.256  0.3046 -0.3672 -0.0606
10840W        W27314   3.346   9.421   2.239 -0.1601  0.1074  0.0243
10841W        W27315  18.542   1.391  12.190 -0.2952  0.3188  0.3229
10842W        W27316   5.813   2.947   4.373  0.0811 -0.0223 -0.0760
10843W        W27317  13.461   1.760   0.761 -0.0793 -0.0776  0.1197
10844W        W27318  19.063   5.818  11.742  0.0471  0.1866 -0.3491
10845W        W27319  17.428  18.406   2.550  0.0402 -0.3547  0.0865
10846W        W27320   9.128   7.327   2.174 -0.1803  0.1836  0.1246
10847W        W27321   7.731   7.004   3.613  0.0699 -0.0138  0.0662
10848W        W27322  14.665  16.212  12.627 -0.0602 -0.1618 -0.2411
10849W        W27323   6.527   5.053   3.163 -0.1414 -0.1346 -0.3066
10850W        W27324   6.409   5.001   0.615  0.4879  0.1980 -0.2333
10851W        W27325   9.778   3.748   4.463 -0.2710  0.1796  0.1044
10852W        W27326   8.020  16.465   0.263 -0.1542  0.0499 -0.1916
10853W        W27327  10.795  10.018   3.588  0.1528  0.0143 -0.2483
10854W        W27328   8.547  10.220  11.790  0.2430 -0.0536 -0.1250
10855W        W27329   5.217  11.591  12.750  0.0715  0.1206 -0.0107
10856W        W27330  18.018  12.751  12.891  0.1385  0.2381 -0.1156
10857W        W27331   2.237  10.611   4.002 -0.1378  0.2497  0.1812
10858W        W27332  16.472   6.271   3.256 -0.1569  0.0918 -0.1566
10859W        W27333  13.112   0.529  10.065  0.2183 -0.1867 -0.2808
10860W        W27334  13.852   0.241   9.768  0.0003  0.1140 -0.1240
10861W        W27335   3.255   5.187   9.745 -0.1254 -0.0322  0.1889
10862W        W27336   5.226  11.891  14.264 -0.0746  0.0460  0.0100
10863W        W27337   9.209  14.290  10.417  0.1502  0.0449 -0.1437
10864W        W27338  14.535   2.880   3.003 -0.3781  0.3783 -0.1498
10865W        W27339   4.739   8.165   4.662  0.1130 -0.5256 -0.0055
10866W        W27340   6.545   7.833  10.698  0.0471  0.3561  0.1746
10867W        W27341   6.532  17.939   0.481 -0.2112  0.0845  0.0435
10868W        W27342  17.484  10.848   2.583  0.2135 -0.3080 -0.1733
10869W        W27343   4.244  18.106  13.214 -0.0474 -0.0404 -0.3636
10870W        W27344   3.153  11.923   5.165 -0.0978 -0.1757  0.3824
10871W        W27345  12.845   9.466  13.189 -0.0756 -0.1504  0.1156
10872W        W27346   1.523   1.541  11.801 -0.1496  0.3102  0.1395
10873W        W27347   5.891  10.998   9.397  0.0841 -0.0518  0.0851
10874W        W27348  10.302  18.313  13.794  0.0603  0.0399  0.0426
10875W        W27349   3.077   0.774  13.493  0.0954 -0.0382  0.0015
10876W        W27350   2.418  12.451   1.660  0.1585 -0.4178 -0.2391
10877W        W27351  14.817   8.730   0.643  0.0014 -0.3620 -0.0545
10878W        W27352  15.368  12.985   4.316 -0.1297 -0.3231 -0.0223
10879W        W27353   5.780   3.235   4.802 -0.2679  0.0111 -0.0064
10880W        W27354   3.822   3.761   2.069  0.0955 -0.2813 -0.0531
10881W        W27355   5.766  15.805   1.377  0.4300 -0.1047 -0.2054
10882W        W27356   0.252   7.258  13.677 -0.1420  0.0203 -0.1028
10883W        W27357  13.552  12.151  14.336  0.2564 -0.0107 -0.0269
10884W        W27358   3.812  18.559   0.918  0.0415  0.1387  0.1586
10885W        W27359  18.117  13.263   0.860 -0.0126 -0.0085  0.1393
10886W        W27360   5.764   6.216   0.523  0.0439  0.0214  0.3269
10887W        W27361  11.871  12.077   5.510  0.1470 -0.1374 -0.0827
10888W        W27362  13.639   3.091   0.997 -0.0097  0.0033  0.3839
10889W        W27363   9.922  18.831   4.998  0.1959 -0.5060 -0.2573
10890W        W27364  17.768  18.559  11.711  0.1932  0.1371 -0.1471
10891W        W27365  16.741   7.898   2.790 -0.0450 -0.3103  0.3665
10892W        W27366  17.225  10.918   5.269  0.3136  0.2343  0.2412
10893W        W27367  13.366  10.475   1.779 -0.0767 -0.1708 -0.3048
10894W        W27368  11.901  16.519  11.370 -0.1825 -0.1085 -0.1452
10895W        W27369  12.846   8.683  11.069  0.1458  0.2150 -0.0094
10896W        W27370   1.314  14.979   4.804 -0.0568  0.2353  0.1673
10897W        W27371  16.514   5.594  13.129  0.1925 -0.1918  0.1628
10898W        W27372   2.090  18.643  12.913 -0.1799  0.1997  0.2792
10899W        W27373   8.436   5.536   0.477 -0.0429 -0.0235 -0.0644
10900W        W27374   3.797  13.703   4.855 -0.2621  0.2576  0.1062
10901W        W27375   6.776   9.080  14.030  0.2518 -0.2019  0.0522
10902W        W27376   0.722   3.939   4.221 -0.1554 -0.2536 -0.0558
10903W        W27377  14.606  12.756   1.949  0.2460  0.1941 -0.0606
10904W        W27378   1.064  14.739  13.143  0.1650 -0.0321  0.4633
10905W        W27379  16.147  10.106  13.783 -0.0497  0.1723 -0.0443
10906W        W27380  16.935  15.868  12.827  0.1590 -0.0933  0.1084
10907W        W27381  18.966   1.189   2.747 -0.0852 -0.0142  0.2425
10908W        W27382  16.414  13.052   9.816  0.0938  0.0256  0.2088
10909W        W27383   9.558   4.400   2.456  0.1628  0.0575 -0.2065
10910W        W27384  14.234   4.816   1.479 -0.2738 -0.1347 -0.0342
10911W        W27385  10.437   6.643  10.860  0.1062  0.2714 -0.0660
10912W        W27386   8.154  12.890  10.702 -0.2071 -0.0893 -0.1932
10913W        W27387  19.055  12.867  11.285 -0.2566  0.0869  0.1801
10914W        W27388  13.384  17.493  13.046  0.1648  0.1466 -0.0222
10915W        W27389   7.151  17.709  12.024  0.1441 -0.0461  0.0956
10916W        W27390  10.344  17.547   0.200 -0.2746  0.0647  0.4514
10917W        W27391  12.088   4.554  13.727  0.0660 -0.0767 -0.1330
10918W        W27392   0.697   5.680  12.834  0.2790  0.2210 -0.0044
10919W        W27393  11.985   7.032   0.461 -0.0152 -0.2887 -0.0635
10920W        W27394  15.617   0.008   4.348 -0.1840 -0.0286 -0.0253
10921W        W27395  13.926   9.144   4.921 -0.1672 -0.0709 -0.1439
10922W        W27396  10.631  10.302   3.109 -0.1693 -0.2994 -0.0585
10923W        W27397  13.249  16.714   0.402 -0.0220  0.1104  0.1093
10924W        W27398   3.771  15.647   0.490 -0.1940 -0.0264  0.1933
10925W        W27399  11.354  14.595   3.405  0.0110 -0.0385 -0.0856
10926W        W27400  17.121   1.227  11.488  0.2088 -0.0494 -0.3696
10927W        W27401  15.571   0.305   4.731 -0.1957 -0.0886 -0.1047
10928W        W27402  16.666   7.978  13.417  0.4385 -0.1569 -0.1982
10929W        W27403   3.054   9.595  10.754  0.4307 -0.0873 -0.1576
10930W        W27404  11.614   2.253  10.990 -0.2375 -0.0312  0.0326
10931W        W27405  13.038  16.222  13.016 -0.0721 -0.1375 -0.0111
10932W        W27406   8.539  14.359   2.431 -0.1531  0.1282  0.2169
10933W        W27407   3.168   9.077   3.085  0.3148  0.1150 -0.2989
10934W        W27408   3.104  12.739   1.127 -0.1496  0.0588 -0.5017
10935W        W27409   5.825   6.141  13.516 -0.0074 -0.2682  0.0464
10936W        W27410  13.260   9.754  14.425  0.0507  0.0887  0.1695
10937W        W27411   1.711   8.515  12.694 -0.0326  0.1754 -0.0271
10938W        W27412  14.738   8.503   3.881  0.2325  0.3123  0.0333
10939W        W27413  15.732  17.670  12.882  0.2627  0.1451 -0.4373
10940W        W27414  19.044   3.254   0.729  0.4196 -0.2159 -0.1116
10941W        W27415  14.004   4.547   2.824  0.0419  0.2426 -0.1496
10942W        W27416  10.533  15.975  13.560 -0.1515  0.1235 -0.1850
10943W        W27417  18.496  12.764  14.623 -0.3556 -0.0702 -0.3476
10944W        W27418  15.528   5.537  10.936 -0.0183 -0.1211 -0.0344
10945W        W27419  14.294  10.184   5.475  0.1548 -0.0070  0.1466
10946W        W27420  18.539   0.494  14.705  0.1909 -0.1093 -0.0824
10947W        W27421   9.419   7.349  15.149  0.0084  0.1560  0.0466
10948W        W27422   9.708   3.019   2.319 -0.1308 -0.0163  0.0295
10949W        W27423   5.588  15.409  14.986  0.1530 -0.2079 -0.2624
10950W        W27424  14.523   4.414  12.094 -0.0512 -0.0528  0.1107
10951W        W27425  11.799   6.482  14.250 -0.0878  0.1884  0.0407
10952W        W27426  15.506   5.662   0.244 -0.1710  0.0420  0.1314
10953W        W27427  11.213  11.887  11.077  0.0212  0.0000 -0.0393
10954W        W27428   8.597  12.138  14.370  0.1557 -0.0084  0.0969
10955W        W27429   3.596   7.813   1.319 -0.0280 -0.0598  0.0943
10956W        W27430   6.797   2.269  11.752  0.1055 -0.0421  0.0765
10957W        W27431   0.007  18.062  13.120 -0.0891 -0.1545 -0.0063
10958W        W27432   2.698  13.876  13.070 -0.1023 -0.1283 -0.1848
10959W        W27433   9.880  14.870  13.283  0.0364  0.2383  0.0263
10960W        W27434  11.532  15.583   4.246  0.3872  0.1158  0.0125
10961W        W27435  18.851  14.910   2.404 -0.1305  0.1752 -0.0504
10962W        W27436   2.706   5.770  13.661 -0.0076  0.3602  0.0108
10963W        W27437  14.943  17.596  11.140  0.1604  0.0441 -0.1831
10964W        W27438  12.615   2.248   0.947 -0.1353  0.3423 -0.3965
10965W        W27439   9.002  10.703   1.030  0.3760  0.1062 -0.0406
10966W        W27440   9.621  17.594   2.360 -0.0445 -0.1431 -0.2061
10967W        W27441  16.862  12.538   1.456 -0.0813 -0.2701  0.0073
10968W        W27442   3.916   6.312   0.041  0.1409 -0.0526  0.0339
10969W        W27443  11.665   1.909   2.067 -0.3076  0.1781 -0.0059
10970W        W27444   8.598   3.655  14.249  0.1437 -0.0931 -0.0580
10971W        W27445   1.949   3.911  14.520 -0.0881  0.1335  0.3755
10972W        W27446   6.776  12.874  13.736 -0.1734  0.1349  0.1390
10973W        W27447   9.836   9.553   0.139  0.0371 -0.0923 -0.0943
10974W        W27448  10.802   3.710  13.349  0.0346 -0.1847  0.3979
10975W        W27449   7.368   8.267  13.116  0.1874 -0.1455 -0.1428
10976W        W27450  12.027  17.865  14.847 -0.5131  0.3529 -0.0237
10977W        W27451   7.178  14.852  14.149 -0.0835 -0.0406 -0.1248
10978W        W27452  18.719  17.038   4.352 -0.1266 -0.0114  0.3129
10979W        W27453  15.015  10.530  13.206 -0.1898 -0.2524  0.1700
10980W        W27454   8.277   8.966  10.983  0.0136 -0.1777  0.1094
10981W        W27455  13.796   2.596   1.934  0.0861  0.2265 -0.1267
10982W        W27456   8.837  14.242  12.363 -0.0530  0.0543 -0.0541
10983W        W27457  11.121   7.127  14.290  0.3713  0.4055  0.2801
10984W        W27458  14.394  14.532   1.274  0.0593  0.0439  0.0612
10985W        W27459   7.244  16.423  11.812  0.1515 -0.1728  0.1910
10986W        W27460  17.624   2.240  10.472 -0.2917 -0.1667 -0.1992
10987W        W27461   9.254   5.964  12.249  0.1265  0.2050  0.2098
10988W        W27462  17.887   0.361  11.457 -0.2711 -0.0740 -0.0449
10989W        W27463  18.817  12.325  11.577  0.1108  0.1174 -0.2233
10990W        W27464   3.701  13.780  11.698 -0.0385 -0.0875 -0.1726
10991W        W27465   1.540   7.325  10.584  0.2694 -0.2467  0.3328
10992W        W27466  16.668  13.735   0.904  0.0078 -0.3030  0.0595
10993W        W27467   0.452   7.149   0.854 -0.1143  0.0035  0.0849
10994W        W27468  13.926   1.212  14.234 -0.1811 -0.1514  0.1333
10995W        W27469   6.806   8.395   4.495  0.1908  0.1645  0.2166
10996W        W27470   7.228   0.769  10.696  0.2415  0.3778 -0.1582
10997W        W27471   2.551  11.119   0.141 -0.0261  0.0240 -0.1975
10998W        W27472  12.422  19.009  13.056  0.0660  0.1128  0.0613
10999W        W27473  17.248  15.009   4.600 -0.0679  0.1398  0.0811
11000W        W27474  17.704   1.815   2.529  0.0183 -0.1120 -0.0792
11001W        W27475  10.245   6.291  11.167  0.3380 -0.1735 -0.1865
11002W        W27476  13.219   2.141   1.584  0.4093 -0.0012  0.1288
11003W        W27477   6.899   3.093   4.751 -0.1785 -0.0519 -0.1846
11004W        W27478   6.891  15.288   3.891  0.0023  0.1562  0.0490
11005W        W27479  11.191  13.805  13.431 -0.2019  0.0641 -0.2324
11006W        W27480   8.837   2.026  11.966 -0.0083 -0.0802  0.1436
11007W        W27481   9.194   7.363   5.043  0.0960 -0.0771  0.0208
11008W        W27482  12.590   2.899  14.673  0.1311  0.1132  0.0598
11009W        W27483   1.962  12.577  12.949  0.2209 -0.0020 -0.3367
11010W        W27484  14.203  11.190  11.452 -0.2563  0.0556  0.3766
11011W        W27485  16.851   3.428  14.397 -0.1859  0.2510 -0.2139
11012W        W27486  15.033   1.622  12.454  0.0757  0.1914  0.1628
11013W        W27487  18.190  16.402  10.536  0.0706  0.3219  0.0002
11014W        W27488  15.166   9.584   0.168  0.0618  0.1615 -0.0954
11015W        W27489   3.583  15.914   3.244  0.0373 -0.3549  0.4018
11016W        W27490  10.199  10.533   3.178 -0.0313  0.0329 -0.2839
11017W        W27491  10.482   5.894  12.094  0.0087  0.1786  0.0590
11018W        W27492   4.986  15.710   3.047 -0.0726  0.0111 -0.0256
11019W        W27493  11.895  11.379  12.084 -0.2527 -0.1242  0.0879
11020W        W27494  14.663   1.910   4.175  0.0159 -0.3133  0.0825
11021W        W27495   3.971   5.235  14.854 -0.0059 -0.1867 -0.0749
11022W        W27496  18.650  10.475   2.863 -0.2683  0.1461 -0.0961
11023W        W27497  11.781  17.998  11.172  0.1073 -0.1058  0.1167
11024W        W27498  17.261   0.340   3.436 -0.1943 -0.2324 -0.2909
11025W        W27499   5.740   8.506   9.755  0.0143  0.0652 -0.1112
11026W        W27500  12.288  11.291   3.973 -0.1638 -0.0504  0.2453
11027W        W27501  13.309  18.750   4.467 -0.1351 -0.1002 -0.0237
11028W        W27502  14.265  15.205   2.198 -0.0196  0.0215  0.1264
11029W        W27503  16.948   8.967  14.707  0.1582  0.1555 -0.4181
11030W        W27504   2.381  15.150   4.632  0.0824  0.0834  0.1008
11031W        W27505  10.305  13.158   3.230  0.0029 -0.0172  0.5640
11032W        W27506  15.974  13.792  14.374 -0.2083 -0.0019  0.0185
11033W        W27507  10.322   4.528  10.971 -0.2910  0.2701 -0.0465
11034W        W27508   9.049   8.563   2.225  0.3335 -0.2029 -0.0612
11035W        W27509   0.218   3.012   0.951  0.2583  0.2315 -0.3249
11036W        W27510  14.609   0.890   3.059 -0.2283  0.0379  0.1057
11037W        W27511   9.933   9.712  13.258 -0.2907 -0.0933 -0.0266
11038W        W27512  13.347   3.945   0.556 -0.0930 -0.0256  0.0258
11039W        W27513   1.264   9.759   4.205  0.1986  0.1182 -0.3656
11040W        W27514  10.842   5.686  12.456  0.2008  0.0385  0.0515
11041W        W27515   4.970  16.490  12.358  0.2152 -0.1131 -0.1043
11042W        W27516  13.285   8.751   9.998  0.1004  0.3567 -0.1188
11043W        W27517  14.173   0.981  14.622  0.0941  0.0318  0.0536
11044W        W27518  12.623   2.619   4.219  0.3860 -0.3219 -0.2864
11045W        W27519   4.521  13.696   4.581  0.0757  0.0979  0.1811
11046W        W27520   1.612   2.121   2.246 -0.1570 -0.1721 -0.0205
11047W        W27521   4.249  11.034  10.741  0.2017  0.0020  0.0604
11048W        W27522   8.569  12.429   0.267  0.0896 -0.0941 -0.1339
11049W        W27523   8.500   3.322  13.884 -0.1021 -0.2932  0.3827
11050W        W27524   5.828  11.113   0.791  0.3239 -0.3051  0.0486
11051W        W27525  12.515  17.944  14.345 -0.0906 -0.0462  0.0636
11052W        W27526  14.949  12.780   4.487  0.0681  0.1224 -0.2471
11053W        W27527   4.301   3.559   3.964  0.0825 -0.0757 -0.0161
11054W        W27528   2.912   6.463   0.245  0.1925  0.1150 -0.1244
11055W        W27529   9.131  10.230   3.625 -0.2640 -0.1667  0.1614
11056W        W27530   6.955   1.654   3.788  0.0790 -0.4368 -0.1016
11057W        W27531   9.186   0.853   3.242 -0.0200 -0.2360 -0.1826
11058W        W27532   0.866   9.894  12.861 -0.0027  0.1096  0.0244
11059W        W27533   7.843   9.038  10.783  0.2459 -0.0496  0.1965
11060W        W27534   9.303   3.644  13.508  0.2239  0.2013 -0.1669
11061W        W27535  15.233  12.065  11.682  0.1436  0.0201 -0.1477
11062W        W27536  12.107   7.037   3.109 -0.2073 -0.3287 -0.0789
11063W        W27537  15.551   9.044   0.218 -0.1657 -0.0522 -0.1928
11064W        W27538   7.949  18.070   3.122 -0.2202  0.0309 -0.3718
11065W        W27539   6.413  13.910   9.198 -0.1391 -0.0070  0.1946
11066W        W27540   4.890  12.491  13.603 -0.1291  0.1667 -0.0981
11067W        W27541  12.243  13.968  13.638 -0.0890  0.1631 -0.0911
11068W        W27542   5.158  13.320   0.962  0.0027  0.0452 -0.1946
11069W        W27543   2.606   0.635  10.553  0.1825  0.2055  0.1696
11070W        W27544  13.242   8.641  12.887 -0.2620  0.6526  0.0836
11071W        W27545   0.647  17.939   5.039 -0.3104  0.2745 -0.1504
11072W        W27546  18.265   9.081  13.269  0.0936 -0.2679  0.2158
11073W        W27547  14.561  16.746   1.377 -0.2115 -0.1793  0.0189
11074W        W27548   9.713  11.697   1.790 -0.0835  0.4829  0.1830
11075W        W27549  14.955  11.219  13.504  0.0404  0.0759 -0.0999
11076W        W27550   5.292   3.563   0.837 -0.1531 -0.0932 -0.4007
11077W        W27551  16.989   0.754  11.625  0.1360 -0.0062 -0.2824
11078W        W27552  10.187   8.798  12.605  0.2701  0.1204 -0.1631
11079W        W27553  10.926   9.979  12.183 -0.0142  0.2580  0.2689
11080W        W27554  10.718  14.019   3.835 -0.0440  0.0082  0.0227
11081W        W27555   7.283  13.923   0.381  0.0547  0.2375 -0.0839
11082W        W27556  11.389  14.109   3.348 -0.1862 -0.0541 -0.0433
11083W        W27557   8.321  14.068   5.725  0.0526  0.0219  0.1279
11084W        W27558  12.125  14.736   3.745 -0.1664  0.3017  0.2914
11085W        W27559  11.120  16.348   3.592  0.2563 -0.2611  0.1177
11086W        W27560   3.626  18.697   5.783  0.1649 -0.0044 -0.0747
11087W        W27561  15.732   0.459  11.971 -0.1649  0.2377 -0.1636
11088W        W27562   1.203  12.015  10.337  0.3539  0.2331  0.0535
11089W        W27563   8.086   3.481  10.729  0.3383 -0.1364  0.0655
11090W        W27564   9.670   7.843  13.861  0.3990 -0.2430 -0.4238
11091W        W27565   2.495   0.209   3.889 -0.1268  0.0226  0.3219
11092W        W27566   5.537  11.424   1.133  0.1570  0.3037  0.1217
11093W        W27567   2.759  16.407  14.942  0.0794 -0.1219  0.2303
11094W        W27568  16.950  11.428  11.613  0.0245 -0.0346  0.1432
11095W        W27569   4.900  14.276  10.508  0.1742  0.1351  0.1469
11096W        W27570  14.997   7.856  12.949  0.0714  0.1773  0.0577
11097W        W27571  12.853   4.959  14.203  0.0929 -0.0559 -0.1519
11098W        W27572   5.053   5.212   4.882 -0.0309 -0.0029  0.0331
11099W        W27573  18.570  12.198   1.057  0.0103 -0.1096  0.1262
11100W        W27574  12.486   4.696   3.411  0.0714 -0.0904 -0.0526
11101W        W27575  13.840   4.149  10.725 -0.0590 -0.4321 -0.1767
11102W        W27576   3.692   8.220   2.601 -0.1645  0.1826 -0.1060
11103W        W27577  12.718  13.746  10.777 -0.0723  0.1137  0.1706
11104W        W27578   4.413  15.558   0.498  0.0079  0.0881 -0.0597
11105W        W27579   7.278  11.945   1.294 -0.0171 -0.0600 -0.0807
11106W        W27580   4.142  16.520   3.791  0.0662 -0.0590 -0.0891
11107W        W27581  12.423   8.049   4.013 -0.0869 -0.1237 -0.1453
11108W        W27582   3.032  17.131  13.629  0.0690 -0.1080 -0.0424
11109W        W27583   9.233  16.800  11.652  0.0020  0.2608  0.0798
11110W        W27584   5.134   8.468  11.268 -0.1557  0.1851 -0.1213
11111W        W27585  17.937   6.202   3.858 -0.1521 -0.0937  0.0042
11112W        W27586   5.489   9.175  12.942  0.0991  0.1232  0.1285
11113W        W27587  14.906   7.797   5.269  0.0721  0.3629  0.2348
11114W        W27588   2.433   3.010  14.948 -0.1193  0.2303  0.3989
11115W        W27589  17.510  12.497  13.172  0.1311  0.3341 -0.1241
11116W        W27590   2.799  18.790   3.082  0.1304 -0.4411 -0.0652
11117W        W27591  12.797  12.538   4.058  0.3245 -0.0258  0.2301
11118W        W27592   7.944  16.071  13.317  0.0749 -0.1311 -0.2424
11119W        W27593  13.512   4.114  11.871  0.4080 -0.3028 -0.1283
11120W        W27594  12.216   1.722  13.832 -0.2487  0.2920 -0.2647
11121W        W27595  15.223   5.942   0.671  0.0951  0.0716 -0.0117
11122W        W27596   0.170  14.686   2.297 -0.0947 -0.1936  0.0393
11123W        W27597   0.603   2.695  14.947  0.0512 -0.1189  0.2670
11124W        W27598   9.495   7.468  10.955 -0.2094  0.3344 -0.0008
11125W        W27599   6.714  14.748  12.666  0.2688  0.0064  0.0140
11126W        W27600   5.403   0.159  14.172  0.2447 -0.1461  0.4395
11127W        W27601  10.629  14.654  14.069 -0.0735  0.4857  0.2297
11128W        W27602   2.053   6.020  13.776  0.2017  0.1825  0.2296
11129W        W27603  14.942   5.675   2.291  0.3474  0.0115  0.4063
11130W        W27604  10.183  10.793  11.568  0.1669  0.1198  0.0486
11131W        W27605  17.409   5.795  13.763  0.1374 -0.1815  0.2227
11132W        W27606   0.085   2.882   0.417  0.1635  0.1765  0.1201
11133W        W27607   6.333   2.887  14.654  0.0045  0.1335 -0.1839
11134W        W27608  18.986  12.325  10.694  0.2310  0.0473 -0.2228
11135W        W27609   9.208   2.758  10.022 -0.0644  0.0125 -0.2753
11136W        W27610  12.623  13.345  12.543  0.1178  0.1155 -0.0243
11137W        W27611  10.211   4.917   2.531  0.0055 -0.0755 -0.1485
11138W        W27612   9.101  14.550   4.281  0.0081 -0.1092 -0.2764
11139W        W27613   3.895  13.878   4.346  0.0115  0.0007 -0.0851
11140W        W27614   1.051  10.920   0.519 -0.0759 -0.4148 -0.2601
11141W        W27615   1.291  14.795  12.670  0.2141 -0.2136  0.0790
11142W        W27616  11.482  17.238   9.126  0.0233  0.0414 -0.3682
11143W        W27617  15.319   5.611  12.414  0.0323 -0.1985  0.1108
11144W        W27618  13.319  15.110  11.683 -0.0553 -0.0639 -0.2774
11145W        W27619   3.157   8.830   1.005 -0.0009  0.0125  0.1437
11146W        W27620   9.477   9.149  15.039  0.5458 -0.1557  0.1351
11147W        W27621   6.349   1.547  15.053  0.2320  0.2824  0.5075
11148W        W27622  16.195  14.436   0.430  0.1875  0.0634  0.3327
11149W        W27623  18.982  16.437  11.643  0.1502 -0.1507  0.1137
11150W        W27624   6.940   4.668   1.394  0.1230  0.3069  0.2429
11151W        W27625  18.194  13.818  12.089  0.1669 -0.1008 -0.0997
11152W        W27626   3.663   3.333  12.149  0.3512 -0.2429  0.2716
11153W        W27627   0.095  10.793  13.786 -0.2977  0.1656 -0.1533
11154W        W27628   2.419  12.464  10.757  0.0541  0.1887 -0.3994
11155W        W27629  19.084   3.674  12.683  0.1954 -0.1716  0.0392
11156W        W27630   6.078  16.005  14.768 -0.2991 -0.1486 -0.2168
11157W        W27631   6.705  13.775   1.447  0.4104 -0.1164 -0.2143
11158W        W27632  15.709   9.291  11.387  0.1350  0.3063 -0.0812
11159W        W27633  15.327  10.008   2.152  0.0230  0.0129  0.0447
11160W        W27634   3.189  16.560   2.571  0.0769  0.2842 -0.2723
11161W        W27635   8.349  13.901   0.296  0.0433  0.0047 -0.1800
11162W        W27636   9.169  11.577   3.200 -0.2281  0.4773  0.0404
11163W        W27637  14.228   7.793   2.216 -0.1536 -0.0741  0.1178
11164W        W27638   7.368   3.664   2.273 -0.0578 -0.1108 -0.0180
11165W        W27639   3.147   4.464   2.148 -0.1077 -0.1563 -0.1216
11166W        W27640   9.372  14.020   1.660 -0.0445 -0.0826  0.3054
11167W        W27641   1.214  10.920  13.750 -0.3405  0.2558  0.1775
11168W        W27642   4.063  15.135  10.241  0.2945  0.2249 -0.1459
11169W        W27643   0.900   0.069   3.448 -0.0648 -0.1007 -0.0340
11170W        W27644  18.433   4.913   0.607 -0.0207  0.1517 -0.0155
11171W        W27645  13.461   1.846  10.317 -0.0838  0.2444 -0.1211
11172W        W27646   6.750   6.250  14.606  0.0071 -0.1447  0.0716
11173W        W27647  13.934   4.599  13.035  0.2623 -0.1200  0.2207
11174W        W27648  15.120   7.791   0.666  0.3656 -0.0540 -0.2034
11175W        W27649  10.897  10.673   1.247 -0.2968  0.1530  0.4759
11176W        W27650   2.817  10.164   4.578 -0.0131  0.0329 -0.1784
11177W        W27651   4.588   4.311  13.085  0.1970 -0.3705  0.0137
11178W        W27652  15.194   1.901   4.076  0.2861 -0.0236 -0.2579
11179W        W27653  11.590  14.298  14.264 -0.0148  0.2770 -0.6257
11180W        W27654  13.779  18.392  12.311  0.2770  0.2368 -0.2404
11181W        W27655   7.267   6.711   4.322 -0.0603 -0.2855  0.0958
11182W        W27656   0.677   5.277  14.005 -0.0560 -0.0494  0.0653
11183W        W27657   6.063  16.562  11.906 -0.1937  0.1334 -0.3173
11184W        W27658  14.856   4.087  13.436  0.0756 -0.0771  0.0031
11185W        W27659  13.126   2.750  14.549  0.1122 -0.0903  0.1529
11186W        W27660  16.967   3.503  11.664  0.1767  0.3613  0.0020
11187W        W27661   6.503   3.688   2.809 -0.3827  0.0076  0.0212
11188W        W27662  15.907  12.549   1.699  0.2162 -0.2164 -0.0278
11189W        W27663   2.989   0.362   1.945  0.1127  0.0370  0.1876
11190W        W27664  11.281   6.899   1.552 -0.0408 -0.2075 -0.1967
11191W        W27665  13.766  18.955   1.822 -0.1214 -0.0112 -0.0025
11192W        W27666  12.579   5.288  13.897 -0.1816  0.3120  0.0311
11193W        W27667  11.831   7.431   4.871  0.1634 -0.0592 -0.0130
11194W        W27668  16.204  10.984   4.413 -0.2925 -0.1408  0.0859
11195W        W27669  14.308  15.019   2.695 -0.1696 -0.0176 -0.1060
11196W        W27670  16.743  15.534   3.584 -0.0243  0.1346 -0.2064
11197W        W27671  10.052   8.688   5.793  0.0342 -0.0563 -0.1907
11198W        W27672   5.800   5.397   3.391  0.0894  0.1857  0.0611
11199W        W27673   5.871   7.542   2.141  0.0590 -0.0402 -0.1387
11200W        W27674  11.285  14.923  10.669  0.1004  0.0395  0.2025
11201W        W27675  14.975   3.465  12.189 -0.1514 -0.0465 -0.0120
11202W        W27676   4.825   0.181   1.140 -0.1124 -0.0073 -0.3245
11203W        W27677   6.400  16.972   9.850 -0.1858 -0.0041 -0.0832
11204W        W27678  15.214   7.471  12.212  0.3488  0.0026 -0.1141
11205W        W27679  18.440   7.786   0.240 -0.0138  0.2928  0.1733
11206W        W27680  18.764   8.667   0.222 -0.0269  0.0261  0.1651
11207W        W27681   3.259  14.975  11.162  0.0667  0.2722  0.0469
11208W        W27682  16.833   7.068  14.585 -0.3894  0.1303  0.2376
11209W        W27683   4.182  16.202   3.283  0.2561 -0.0451  0.0018
11210W        W27684  11.582   4.298   1.984  0.2266 -0.2342 -0.1891
11211W        W27685   9.032  11.838   1.257  0.0197  0.3992 -0.2566
11212W        W27686   2.535  15.401  14.144 -0.1962  0.0876  0.0871
11213W        W27687   7.440   8.739   2.741  0.1593  0.2073  0.0851
11214W        W27688  15.355   5.139   3.517  0.0296 -0.0170  0.0633
11215W        W27689   0.145  16.939   1.535  0.2622  0.0240 -0.1345
11216W        W27690  17.607   1.162   3.733  0.0402  0.1586 -0.2822
11217W        W27691   3.243  14.773  12.658 -0.0827 -0.1995  0.2805
11218W        W27692  15.774  11.894   5.343  0.0393  0.0333  0.1541
11219W        W27693   9.184  11.401  14.573  0.1455 -0.0564  0.1035
11220W        W27694   7.882   6.566   4.893  0.1331 -0.1972 -0.4748
11221W        W27695  13.188   4.684   2.646 -0.0801  0.3734 -0.0742
11222W        W27696  14.091  15.505  14.359 -0.1350 -0.1765 -0.3645
11223W        W27697   1.205   7.614  11.569  0.1922 -0.0273  0.1858
11224W        W27698   5.349   8.738  13.169  0.2548  0.0261 -0.1569
11225W        W27699  15.396   3.495   2.763 -0.1597 -0.4589 -0.2227
11226W        W27700   4.837   3.624  12.451 -0.0268 -0.1020  0.1609
11227W        W27701  14.656   5.979   4.042  0.0682  0.0165  0.0219
11228W        W27702   6.524  14.933  10.779 -0.2433  0.0248  0.1248
11229W        W27703   4.499  14.945   1.307  0.1872 -0.1027  0.0579
11230W        W27704   7.452   4.856   4.116 -0.3325 -0.0579 -0.0790
11231W        W27705  10.536  17.296  13.686 -0.0126 -0.0610 -0.1051
11232W        W27706  10.542  14.516  14.954 -0.0546  0.3109  0.0546
11233W        W27707   4.999  16.807  11.493 -0.1443  0.1986 -0.0392
11234W        W27708   1.839   1.686   1.043 -0.0434  0.1402  0.0064
11235W        W27709  10.988  15.985   0.943  0.0424  0.1444 -0.0452
11236W        W27710  16.528  10.451   3.467 -0.1669  0.0135  0.0620
11237W        W27711  13.580  11.129   4.460 -0.2779  0.1911  0.0669
11238W        W27712  11.389   0.229   9.988  0.1071  0.1418 -0.3364
11239W        W27713  13.388   3.452  13.138  0.0405 -0.0028  0.0747
11240W        W27714   1.557   3.322  14.696  0.3089  0.0201  0.0314
11241W        W27715  14.255  17.118  14.865 -0.3830 -0.1497  0.1213
11242W        W27716   5.353   5.467  14.542 -0.0091 -0.3876  0.0220
11243W        W27717  17.909  10.335  12.785  0.1654 -0.0125 -0.0565
11244W        W27718  16.866   7.502   0.498 -0.0917  0.0308  0.2738
11245W        W27719  18.824  12.209  13.101  0.1796 -0.0554  0.0437
11246W        W27720  16.374  18.330   0.733 -0.3200  0.1190  0.1602
11247W        W27721  11.972   5.355   5.590  0.0303  0.4282 -0.0890
11248W        W27722   4.018   4.400  14.711 -0.1257 -0.1904 -0.3967
11249W        W27723   7.913   2.721   2.524  0.2544 -0.1840 -0.1307
11250W        W27724  17.166  13.152  10.351  0.0686  0.0687  0.0055
11251W        W27725   1.669  10.550  13.964  0.3516  0.1220  0.0867
11252W        W27726  15.310   3.621  13.429 -0.1478  0.0886 -0.1725
11253W        W27727  13.700   2.750  10.159  0.0842 -0.1507 -0.0704
11254W        W27728  16.204  18.092  12.834 -0.1150  0.2877  0.4061
11255W        W27729  16.710   3.694   3.037  0.0920  0.2087  0.1052
11256W        W27730  16.994   9.963   1.226  0.1758 -0.0033 -0.2108
11257W        W27731  17.946  16.730   2.615 -0.2106  0.1811  0.3481
11258W        W27732   1.142   3.495   1.721  0.4349  0.4248  0.0517
11259W        W27733  10.445   4.037  10.559 -0.0254  0.2730 -0.1242
11260W        W27734  11.717  12.673  12.557 -0.2791 -0.1290  0.0990
11261W        W27735   0.457  17.277   5.415 -0.0140  0.3421 -0.5329
11262W        W27736  18.121   2.498  14.913  0.0711 -0.0654  0.0677
11263W        W27737   5.495   1.739  13.310  0.2011  0.1033  0.2678
11264W        W27738  18.592   1.431  12.779  0.1176 -0.2823  0.0100
11265W        W27739  17.006  14.936   0.002  0.2280 -0.2190 -0.1249
11266W        W27740   9.590   8.847  12.047 -0.0175 -0.0229 -0.2643
11267W        W27741  14.965  14.497   4.258 -0.2243  0.1938  0.0804
11268W        W27742   4.911  11.275   1.039 -0.1168 -0.2086 -0.1369
11269W        W27743  13.679  13.609  14.550  0.2351 -0.1803 -0.4273
11270W        W27744  18.816  10.384  13.792  0.0418 -0.1307  0.0361
11271W        W27745  19.054  10.717  13.217  0.0297  0.0397  0.1691
11272W        W27746  13.282   2.724  10.487  0.2734  0.0424 -0.0780
11273W        W27747  14.913   4.795  14.052  0.4689  0.1685  0.2439
11274W        W27748   1.321   4.626   5.176  0.2517  0.0887 -0.3681
11275W        W27749   0.693  15.842   3.628  0.1482 -0.2068  0.0520
11276W        W27750  12.556  19.124  14.709 -0.1955 -0.0554 -0.2910
11277W        W27751   0.961  18.890   2.635  0.1471  0.1203 -0.0548
11278W        W27752  13.039   6.661   3.365 -0.1972  0.1107  0.1459
11279W        W27753   3.804  17.703  11.493 -0.0384 -0.1402  0.2103
11280W        W27754   1.699   3.260  13.865 -0.3577  0.3199 -0.0544
11281W        W27755   3.380  11.684  12.290 -0.0098 -0.1608 -0.2944
11282W        W27756   2.566  10.796   1.965  0.1552 -0.2095 -0.2020
11283W        W27757  11.616   2.994  13.146  0.1359 -0.2052  0.0373
11284W        W27758  10.672  12.616   1.670 -0.0183 -0.4350  0.1810
11285W        W27759   3.825   2.130  15.039  0.2079 -0.2477  0.2095
11286W        W27760   8.586   9.920  14.158  0.2071 -0.0506  0.2519
11287W        W27761   2.282   1.135  11.191 -0.1127  0.0906 -0.0865
11288W        W27762   4.398  12.879  10.156 -0.2457  0.2499  0.2537
11289W        W27763  17.283   8.236   1.608  0.1115 -0.2421  0.1511
11290W        W27764  13.340   7.943  11.066 -0.0948 -0.0092 -0.0880
11291W        W27765   3.609  17.043   4.505 -0.0646  0.0026 -0.1567
11292W        W27766  13.937  12.638  10.999 -0.1133 -0.2126  0.0307
11293W        W27767  17.497  17.626   3.797  0.2564  0.0864 -0.1692
11294W        W27768   1.258   9.217  12.394  0.2481 -0.0528  0.2223
11295W        W27769  15.832  14.150   3.819 -0.0630  0.1649 -0.0577
11296W        W27770  16.633  11.168   4.689 -0.0840 -0.1801  0.0604
11297W        W27771  17.054   4.635  11.374 -0.2822  0.2416 -0.0712
11298W        W27772   6.026  17.904   3.300  0.1769 -0.0238 -0.0469
11299W        W27773   4.112   4.256  13.709  0.1779  0.2159  0.2173
11300W        W27774  14.143  16.019  14.392 -0.3234  0.0929  0.2611
11301W        W27775   4.803   6.634   2.428 -0.0426  0.2729 -0.2593
11302W        W27776  16.327   9.801   3.245  0.1873 -0.1120  0.1442
11303W        W27777  10.416   1.784  11.295  0.3775  0.0039  0.1180
11304W        W27778   4.809  13.432  10.634 -0.0794  0.0278  0.0679
11305W        W27779  17.575   2.643   2.502 -0.0437 -0.1689  0.0172
11306W        W27780  13.419   5.379   0.788 -0.1531  0.1779 -0.1962
11307W        W27781  18.037   0.047  10.975 -0.1482 -0.0197  0.2131
11308W        W27782  18.426   1.889   4.453  0.2736  0.0941 -0.1497
11309W        W27783   7.375  10.773   3.693  0.1683  0.0810 -0.0855
11310W        W27784  15.789   4.999  13.142 -0.4610  0.1514 -0.1257
11311W        W27785   3.417  12.181  12.103  0.0206 -0.1201 -0.2281
11312W        W27786  13.472  17.325  14.706  0.1240 -0.1379 -0.2038
11313W        W27787   3.694   9.735   2.600  0.1556 -0.0685  0.0206
11314W        W27788   7.132   0.333  10.603 -0.0999  0.0058 -0.0672
11315W        W27789  15.158   5.422   2.670 -0.0649  0.2671 -0.4317
11316W        W27790   4.591  11.570  11.371 -0.2476 -0.0993  0.0304
11317W        W27791  11.641   9.289  12.317  0.2273  0.0310 -0.2691
11318W        W27792   0.995   4.705  14.482  0.3036  0.1719 -0.0202
11319W        W27793  10.851  17.603  12.191  0.2322  0.0912  0.1065
11320W        W27794   3.717  18.520  11.042  0.1458 -0.3230 -0.5089
11321W        W27795   3.828   1.526   4.789 -0.0186  0.0780  0.2826
11322W        W27796   0.499   8.056  10.812 -0.1097  0.0747  0.2629
11323W        W27797   1.481   3.212   2.242  0.1763  0.3217 -0.0622
11324W        W27798   4.777  17.650   1.946  0.1744  0.0035 -0.2363
11325W        W27799  15.034  15.157  15.041 -0.2905  0.1178 -0.3651
11326W        W27800  19.105  17.648  13.905 -0.0187  0.1151  0.0930
11327W        W27801   8.599  10.215   3.509 -0.3332  0.1754 -0.0058
11328W        W27802  12.833  12.896  13.495 -0.0272  0.0957  0.0154
11329W        W27803  15.582   9.886  13.526 -0.2949  0.0427 -0.0980
11330W        W27804   9.500  15.394   1.244  0.2296 -0.3096  0.1062
11331W        W27805   2.581   2.476  14.174 -0.0524  0.4893 -0.2402
11332W        W27806   5.880   4.836   0.296  0.2882  0.1186 -0.0397
11333W        W27807   9.122   8.143   0.974 -0.0222  0.1078  0.2470
11334W        W27808   3.736   4.350   1.010 -0.1769  0.2108  0.1068
11335W        W27809  11.447  10.157  13.121 -0.2009 -0.0205  0.0425
11336W        W27810   9.853   3.019  13.846 -0.0691 -0.0653  0.0739
11337W        W27811   5.522  11.366   4.198 -0.3000 -0.0080 -0.1352
11338W        W27812  17.015  13.039   2.990  0.1033 -0.0187 -0.0820
11339W        W27813   2.459   6.110  13.424 -0.0133  0.0370  0.0179
11340W        W27814  18.571   6.262  14.096  0.3812  0.2625  0.0340
11341W        W27815   1.618  17.380   0.462 -0.1571  0.0899 -0.1039
11342W        W27816  18.482   8.267   0.171  0.1819  0.0725 -0.1583
11343W        W27817   5.393   0.386  11.031 -0.0475  0.1413  0.1283
11344W        W27818  14.495   5.462  12.705 -0.0684 -0.4398  0.0433
11345W        W27819  12.209   0.884   0.516 -0.2257  0.2628  0.3646
11346W        W27820  15.075  15.039  10.751 -0.0934 -0.0902 -0.2224
11347W        W27821  14.161   2.024   1.301 -0.0348  0.1663 -0.0855
11348W        W27822   5.317  10.354   3.187 -0.0138 -0.0515 -0.1998
11349W        W27823  17.248   5.865   3.397 -0.1420  0.4097 -0.0193
11350W        W27824  16.282   5.898   0.713  0.2149  0.1399  0.0621
11351W        W27825   3.453   5.581  10.126 -0.2643 -0.3347  0.2304
11352W        W27826   9.173   6.638  12.975 -0.0446  0.4172  0.2718
11353W        W27827  18.900   3.991  11.679 -0.0318 -0.1781  0.2803
11354W        W27828   8.599  17.507  13.885 -0.0039 -0.1255 -0.0718
11355W        W27829  16.324  13.266   0.461  0.0284 -0.3148  0.0387
11356W        W27830   0.057   1.217   3.657  0.0425  0.2064 -0.0148
11357W        W27831   6.112  10.100  13.484  0.1767 -0.3118 -0.0965
11358W        W27832   8.753  14.799   4.587  0.0117 -0.0204  0.0946
11359W        W27833   6.814   1.159  12.858  0.0727 -0.0291 -0.2808
11360W        W27834   4.873   6.198  15.047  0.1745 -0.1145 -0.2959
11361W        W27835   7.601  17.842  12.317  0.2758  0.1320 -0.1425
11362W        W27836   7.409   5.003  12.037  0.0632  0.2793  0.0035
11363W        W27837   3.137   1.946  11.685 -0.1949  0.1556 -0.3207
11364W        W27838   8.533   1.893  10.381  0.1265  0.0971 -0.1671
11365W        W27839   6.237  16.721  10.617 -0.0216 -0.2693  0.0366
11366W        W27840   6.864  18.741   4.121 -0.0893 -0.2369  0.2414
11367W        W27841  17.908  18.443   1.660  0.0470 -0.1849 -0.3995
11368W        W27842  14.740   2.951   3.743  0.1337  0.2421 -0.0038
11369W        W27843  11.814  16.707  13.974 -0.0348 -0.1539  0.0621
11370W        W27844   9.813  16.745  11.559  0.0001  0.0601  0.0043
11371W        W27845  18.214   1.048   0.180  0.1814 -0.0129  0.2875
11372W        W27846  10.406  13.351  14.710  0.1102  0.0968  0.1693
11373W        W27847  14.100   8.488  13.852  0.0461 -0.2090  0.1949
11374W        W27848   3.949   5.230  11.066 -0.1078 -0.1210  0.0876
11375W        W27849  10.420   2.988  11.577  0.0618 -0.1024 -0.1198
11376W        W27850  10.562   4.113  13.562 -0.0885 -0.1972  0.1671
11377W        W27851  14.679   9.365  12.234 -0.1217 -0.3514 -0.2553
11378W        W27852  15.920  11.137  12.196  0.0786 -0.1084 -0.1090
11379W        W27853   5.726   0.014   1.369  0.1548 -0.2908  0.0620
11380W        W27854   8.940   5.851  12.631  0.2825  0.0990  0.1997
11381W        W27855  11.462  12.742   3.910  0.0647 -0.1847 -0.0911
11382W        W27856  11.640  14.584   3.906  0.0482  0.0968 -0.1205
11383W        W27857   3.654  16.785   3.513 -0.1323  0.0127 -0.1255
11384W        W27858   2.122   9.892  13.590  0.0265  0.0958  0.0941
11385W        W27859   1.391   3.053  11.122  0.0063  0.4085 -0.1301
11386W        W27860   1.295  11.827   0.650  0.1738  0.1624 -0.1441
11387W        W27861  15.773   4.305   4.636  0.2250  0.0432  0.0181
11388W        W27862   5.489  13.173   3.077 -0.0088 -0.1137 -0.3002
11389W        W27863   8.737   0.798  14.083  0.2177  0.0386  0.0099
11390W        W27864  10.485  12.203  13.847  0.2156  0.0603 -0.0215
11391W        W27865  18.937   7.213  10.484 -0.2600  0.1513 -0.4853
11392W        W27866  15.009  18.116  14.575  0.2744 -0.1019 -0.0813
11393W        W27867  10.336   1.607  13.002 -0.1848 -0.2202  0.4769
11394W        W27868  10.561  18.398   5.664 -0.1458 -0.0417  0.0207
11395W        W27869   6.458   5.328   3.571 -0.1095 -0.0888 -0.2144
11396W        W27870   8.766   0.242   0.010 -0.1782  0.0191  0.0807
11397W        W27871   6.901  15.466  11.975 -0.1958  0.0472  0.0769
11398W        W27872  16.040   2.621   4.819 -0.1968 -0.1031  0.1177
11399W        W27873  14.398   5.287  11.832  0.1241 -0.0862 -0.1784
11400W        W27874   7.199  18.400   1.936 -0.0019 -0.1885  0.0564
11401W        W27875   3.767  15.694  14.620 -0.2871  0.2112  0.1482
11402W        W27876   9.089   9.174  12.193  0.1287  0.1361  0.3150
11403W        W27877  16.180  14.969   2.949 -0.1366 -0.1111 -0.1787
11404W        W27878  13.132   1.833  12.687 -0.3204 -0.1194 -0.0376
11405W        W27879   0.878  18.684  13.441 -0.1900 -0.0939  0.2016
11406W        W27880   7.086  13.542   4.427  0.2355 -0.0456 -0.0679
11407W        W27881   3.559   4.495  14.965 -0.1334  0.0862  0.1173
11408W        W27882   5.795   8.919  13.258 -0.1673 -0.1241  0.0778
11409W        W27883  16.814   5.787   0.785 -0.0426  0.3078 -0.1538
11410W        W27884   6.424   5.591  13.089  0.1586  0.2638 -0.0172
11411W        W27885  14.938   7.857   3.124  0.1838  0.2076 -0.2829
11412W        W27886   9.446  10.405  14.821  0.0929 -0.1911 -0.1258
11413W        W27887   5.358   0.429   3.212 -0.0068  0.2543  0.0504
11414W        W27888  14.010   9.875  12.274 -0.0273 -0.2672 -0.0410
11415W        W27889   5.921   9.781   3.123  0.0184 -0.1357 -0.1167
11416W        W27890   8.491  16.423   0.456  0.2320 -0.1519  0.0055
11417W        W27891  19.132   2.960   3.603  0.1104  0.3744  0.0023
11418W        W27892   9.574  18.253  14.804  0.1114 -0.0270 -0.1273
11419W        W27893  14.341  17.583   5.137 -0.0783  0.4289 -0.0314
11420W        W27894  13.142  11.105  10.518 -0.1243 -0.0950  0.0442
11421W        W27895  17.267  15.701  11.366 -0.2453  0.1511  0.3939
11422W        W27896  14.423  11.198   3.598 -0.0012 -0.0947  0.3143
11423W        W27897  12.049  11.177  13.890  0.0601  0.1836  0.0564
11424W        W27898   5.865   1.835   0.362 -0.0742  0.3420  0.1090
11425W        W27899  12.871  12.644   1.152 -0.2382  0.2715 -0.1636
11426W        W27900  17.642   1.241  13.525 -0.2099  0.0812  0.2062
11427W        W27901  12.338   9.141   4.733  0.3244  0.0047 -0.1798
11428W        W27902   7.370   2.751   2.168  0.3908 -0.1167 -0.4317
11429W        W27903  18.029  12.781  11.509  0.3527  0.1504  0.2425
11430W        W27904   6.232   5.827   4.997 -0.0731 -0.0873 -0.0581
11431W        W27905  17.199   7.049   0.302 -0.0972  0.2992 -0.0369
11432W        W27906  12.856   2.845   3.469 -0.2417  0.1131 -0.1556
11433W        W27907   7.741   1.887   1.626  0.2581 -0.3243  0.1293
11434W        W27908  15.138   4.075  13.032  0.1606  0.2511  0.0437
11435W        W27909  13.394   5.803   3.334  0.0234  0.1332  0.2203
11436W        W27910  14.025   5.512   3.752 -0.2313 -0.0766 -0.0523
11437W        W27911   6.807   0.601   5.712 -0.1259 -0.1262 -0.0888
11438W        W27912  17.796   6.595   5.131 -0.1637 -0.3430  0.2422
11439W        W27913   9.560   6.227  10.984 -0.3016 -0.1367  0.1136
11440W        W27914  16.995  14.814   3.256 -0.0291  0.3144  0.0203
11441W        W27915   8.339   8.069   2.630  0.0616 -0.3916  0.1342
11442W        W27916   9.884   6.391  11.505 -0.1947 -0.1122  0.0148
11443W        W27917   8.295   4.049   5.420 -0.0522 -0.3311 -0.0306
11444W        W27918   1.659  11.323  12.345 -0.3549  0.1545  0.0163
11445W        W27919   0.622  14.738  11.298  0.0941  0.2847 -0.3407
11446W        W27920   7.343   9.213   4.379  0.2849  0.0670  0.0501
11447W        W27921   8.763  15.487   2.357 -0.0566 -0.0005 -0.0359
11448W        W27922   3.250   3.009  12.239  0.3121 -0.1999 -0.3761
11449W        W27923   9.817   2.280   0.825 -0.3394  0.1048  0.0503
11450W        W27924   0.834   6.927   1.221 -0.1874  0.3240 -0.2194
11451W        W27925  18.540   7.608  10.581 -0.4400  0.1477 -0.1723
11452W        W27926  13.826   5.826   1.561  0.0630 -0.0747 -0.2888
11453W        W27927  17.112   6.013  11.226  0.0259  0.1050 -0.0297
11454W        W27928  10.960  14.846  14.553 -0.0529 -0.1904  0.1590
11455W        W27929  17.642  18.398   3.061 -0.1574 -0.0465  0.2872
11456W        W27930   5.786   4.423   1.157  0.0471 -0.2589  0.3243
11457W        W27931  14.136  18.842  14.479  0.0324  0.1466  0.0870
11458W        W27932   0.618   2.704  10.431 -0.1780 -0.1185 -0.1077
11459W        W27933  10.989  11.706  12.102  0.4719  0.3299 -0.0610
11460W        W27934  17.582   4.833  11.354  0.2011 -0.3566  0.2247
11461W        W27935   0.254   9.817  12.410 -0.0706  0.2022 -0.1242
11462W        W27936   5.452   8.723  14.169  0.1431 -0.0502 -0.0358
11463W        W27937  15.938  10.360   5.859 -0.0368  0.0364 -0.2658
11464W        W27938  16.192   6.796  14.005  0.0936  0.1333  0.1143
11465W        W27939  15.929   0.368   3.401  0.0991  0.0142 -0.2576
11466W        W27940   3.568   8.120   4.392 -0.1212  0.0652 -0.4404
11467W        W27941   8.601   3.178  12.943  0.0008 -0.1125  0.2825
11468W        W27942  12.905  11.591  12.596 -0.0245  0.0307 -0.2031
11469W        W27943   3.786  18.694   1.418 -0.2273  0.1228 -0.0518
11470W        W27944   0.153  12.313   1.443  0.0643  0.1736  0.2947
11471W        W27945   9.208   7.217  13.792  0.2712 -0.2313  0.0003
11472W        W27946  12.092  15.273   0.144 -0.1865 -0.1672 -0.1178
11473W        W27947   9.268  15.454   5.841  0.1260  0.0170  0.1130
11474W        W27948   1.914   3.653  12.866  0.0195  0.2189 -0.1433
11475W        W27949   0.565   4.377  10.870 -0.0394 -0.1248  0.1630
11476W        W27950  19.094  11.985   0.800  0.0812  0.0262 -0.3648
11477W        W27951   8.287   8.015  12.508 -0.0009 -0.1089  0.1702
11478W        W27952  17.438   7.074   4.441  0.1237 -0.1328  0.0335
11479W        W27953   9.998  15.441  11.180 -0.1150  0.0613 -0.1228
11480W        W27954  12.605  17.413   4.311 -0.0092  0.0973 -0.4989
11481W        W27955   0.885  15.160   5.144  0.1973 -0.4612 -0.0152
11482W        W27956   8.330  14.182   1.396 -0.0614  0.3503 -0.0778
11483W        W27957  12.132  10.687   0.271 -0.4163 -0.3218 -0.0016
11484W        W27958   9.584   3.522  11.639  0.0524 -0.2040  0.2046
11485W        W27959   3.155   4.192   2.700 -0.1455 -0.0581 -0.0531
11486W        W27960   9.551  10.097  10.975  0.0575  0.1618  0.2635
11487W        W27961   8.755  10.155   0.553 -0.2175 -0.2805 -0.1388
11488W        W27962   3.008   2.360   4.014 -0.0612  0.2752 -0.1698
11489W        W27963  16.421   4.534  11.132  0.0525  0.2920 -0.1086
11490W        W27964  14.267   5.745   1.274  0.0107 -0.1378  0.1729
11491W        W27965  10.834   3.271   1.689 -0.0214  0.3639  0.3404
11492W        W27966   4.682   5.451   2.346  0.0819 -0.0346  0.1088
11493W        W27967   1.105  16.401  12.079 -0.2653 -0.0533 -0.0237
11494W        W27968  17.112  15.545  10.221 -0.3680 -0.1293 -0.1295
11495W        W27969   3.862   5.315  12.763  0.1085  0.0581 -0.1547
11496W        W27970  10.730  18.072  12.149 -0.1643  0.2592 -0.2876
11497W        W27971   5.398  12.786  10.604  0.3190  0.0175  0.4095
11498W        W27972  10.680   2.438  13.266 -0.2182 -0.0894 -0.3348
11499W        W27973   5.579  10.266   9.592 -0.2675  0.0977 -0.0795
11500W        W27974   4.493   7.802   1.546 -0.0637  0.0036 -0.1335
11501W        W27975  13.015   9.323  12.214  0.0751  0.1467  0.3382
11502W        W27976   5.932  17.447  13.767  0.3471  0.2388  0.3846
11503W        W27977   8.555  10.783  10.726  0.0142  0.0362 -0.2361
11504W        W27978  17.025   9.698  14.679  0.2356 -0.0304 -0.2121
11505W        W27979  18.925  13.314  12.237 -0.0507  0.0291 -0.1983
11506W        W27980  15.899   8.064   2.714 -0.1227  0.1247 -0.5549
11507W        W27981  15.025  11.425   5.000 -0.0249  0.3199 -0.0923
11508W        W27982   2.587  14.052  12.585  0.0622 -0.0343  0.4091
11509W        W27983   4.266   2.498   1.147 -0.1407 -0.4834  0.1053
11510W        W27984   4.994   8.841   3.587  0.1100 -0.0079  0.0083
11511W        W27985   1.130   9.065  13.169 -0.4969  0.1777 -0.2723
11512W        W27986   8.707  10.413   2.854  0.1173  0.0302 -0.0903
11513W        W27987  16.595   8.553   5.152 -0.1353  0.3950 -0.1287
11514W        W27988   4.605   2.467  14.856 -0.1607  0.1948  0.1777
11515W        W27989   7.743  15.300   5.236  0.1063  0.1662 -0.2410
11516W        W27990   4.590  17.806  12.093 -0.3109  0.2826  0.0864
11517W        W27991  11.564  12.672   3.021  0.2083  0.1618  0.2624
11518W        W27992  12.830   0.892  11.728  0.2623  0.0171  0.0143
11519W        W27993   3.845   9.454  13.177  0.0395 -0.0568 -0.1307
11520W        W27994  11.137   0.456  12.575 -0.2794  0.2631 -0.3894
11521W        W27995   7.177   0.938  13.795 -0.1656  0.1374 -0.1280
11522W        W27996  14.611  10.037   2.391 -0.6147  0.0628  0.0651
11523W        W27997  15.660   7.017  14.061 -0.0346  0.1749  0.2344
11524W        W27998   3.586   5.758   4.874 -0.2406  0.0530  0.0295
11525W        W27999  12.205  10.781  10.506 -0.0163  0.2065  0.0500
11526W        W28000  14.233   2.546  10.764 -0.2487 -0.1757  0.1217
11527W        W28001   5.017  12.334   1.150  0.1559  0.1327  0.0973
11528W        W28002   6.574   1.024   1.210 -0.5256 -0.0442  0.0926
11529W        W28003   9.367  17.557   4.040 -0.1664  0.1315  0.2272
11530W        W28004  18.984   7.997  14.019  0.0292  0.0101  0.2472
11531W        W28005   3.634   0.033   5.189 -0.1162 -0.0730  0.0398
11532W        W28006   0.665   1.633  13.852  0.0665  0.0342  0.0698
11533W        W28007   5.389  12.901   1.956 -0.1634 -0.2756  0.0894
11534W        W28008  16.083  16.020   3.772 -0.1844 -0.0923 -0.1266
11535W        W28009  17.471   8.368  11.433  0.1262  0.0984  0.2273
11536W        W28010   1.706  11.771   3.699 -0.3873 -0.1377 -0.1214
11537W        W28011   7.171  13.432  14.417  0.2580 -0.1114 -0.0997
11538W        W28012  18.509   2.890   2.786  0.1064  0.3127  0.0134
11539W        W28013  17.936  13.474   2.046  0.2085 -0.1718  0.3089
11540W        W28014   7.347   2.125  14.940 -0.0511  0.0119  0.1111
11541W        W28015   1.600   1.765   0.543  0.4706  0.0797 -0.0074
11542W        W28016   8.028   3.077  11.074 -0.2426  0.3956 -0.3688
11543W        W28017   5.894   8.152   3.920 -0.1119 -0.0964 -0.1485
11544W        W28018   2.958   2.378  12.880  0.2711 -0.2379  0.1232
11545W        W28019  11.832   4.379  11.020 -0.0206 -0.0279  0.1996
11546W        W28020  17.569   8.810  11.650 -0.0379 -0.3665 -0.1749
11547W        W28021  16.237   3.854   2.996  0.0303  0.3563  0.1273
11548W        W28022   6.777  14.589  13.986  0.2885 -0.2656  0.2725
11549W        W28023   5.500   1.099  11.667 -0.0056 -0.1836 -0.0391
11550W        W28024   9.739  14.632   4.066  0.3925 -0.3344  0.2049
11551W        W28025   9.024  17.368   0.344 -0.0889  0.0790 -0.1338
11552W        W28026  18.510  10.375  12.835 -0.0010 -0.0796 -0.2409
11553W        W28027   3.051  14.027   4.238  0.1976  0.1826  0.3415
11554W        W28028   3.339  18.857  12.406  0.4435 -0.1189  0.1021
11555W        W28029  13.427   8.106  12.830  0.1371 -0.1030 -0.2165
11556W        W28030  11.044  15.111   0.034  0.0437 -0.1373  0.2829
11557W        W28031  13.925   2.655  11.737 -0.3611  0.1433 -0.2173
11558W        W28032  17.061   0.026   2.184  0.1130 -0.2329 -0.2285
11559W        W28033  11.909  17.503   0.148 -0.0396  0.1833 -0.3849
11560W        W28034  10.807   3.562   0.819  0.0293 -0.0611 -0.0672
11561W        W28035  18.890   5.273   1.351 -0.1790 -0.3983 -0.0220
11562W        W28036  12.183   4.407   1.776  0.1111  0.0364 -0.3259
11563W        W28037   1.785   7.281   4.410 -0.1697 -0.0111 -0.4366
11564W        W28038   5.459  19.067  14.996 -0.1028  0.1203  0.0408
11565W        W28039   8.613  18.345   0.359  0.2526 -0.2251  0.3545
11566W        W28040   4.523  16.599   4.740  0.0532 -0.1785 -0.1522
11567W        W28041   5.568  10.849  12.869  0.3588  0.1193 -0.0442
11568W        W28042   6.396   5.870   2.817 -0.0028 -0.1043 -0.2926
11569W        W28043  14.995  11.333   0.280  0.0799  0.0960 -0.1013
11570W        W28044   6.118   1.640   4.219 -0.3458  0.1077 -0.2512
11571W        W28045   1.000   1.582  12.442  0.1605  0.1166  0.2195
11572W        W28046   1.971   8.085   4.195 -0.4952  0.1413 -0.0064
11573W        W28047  12.637  15.159   5.006 -0.0927 -0.2321 -0.1718
11574W        W28048  19.152   4.494   1.076  0.1848  0.1269  0.1470
11575W        W28049  18.056  17.688  13.123  0.2585 -0.0098  0.1184
11576W        W28050   0.515  10.755  11.060 -0.0495  0.0696  0.0711
11577W        W28051  16.573  10.995  12.683 -0.0968  0.3561  0.0693
11578W        W28052   1.281  18.482  10.023 -0.2970  0.0919  0.1123
11579W        W28053   4.632  16.955   4.333  0.0609  0.1967  0.1838
11580W        W28054  14.155   9.923  14.264 -0.0444  0.3269  0.0201
11581W        W28055  11.879  11.154   4.648  0.0018  0.0571 -0.1828
11582W        W28056  16.648   4.508  12.306  0.1833  0.0383 -0.3470
11583W        W28057  15.419   1.514   3.273  0.0462 -0.0322  0.1212
11584W        W28058  12.623  16.643   2.254  0.0367 -0.3530 -0.0218
11585W        W28059   3.627  16.001   0.874  0.0525  0.0116  0.2090
11586W        W28060   5.243  18.954   0.230  0.2864  0.2295 -0.1551
11587W        W28061   2.268  10.556   3.016 -0.0249  0.0183  0.0433
11588W        W28062   4.277   0.933   1.938 -0.1027  0.0479  0.0469
11589W        W28063   1.574   8.338  13.307  0.2080 -0.0721 -0.0463
11590W        W28064   3.893  10.360  13.292  0.2339 -0.0428 -0.0350
11591W        W28065  11.710  13.142  15.002 -0.0287  0.2095  0.0731
11592W        W28066   0.182  15.399  12.275 -0.0007  0.1368 -0.2917
11593W        W28067  18.360   3.219   3.113  0.0312 -0.1196  0.5010
11594W        W28068   6.327   6.896  12.249  0.1886  0.2054 -0.1066
11595W        W28069   1.346   8.902  12.770  0.2352 -0.0699  0.1598
11596W        W28070  14.576   4.060  13.006  0.1892  0.1388  0.2978
11597W        W28071  16.851  11.707   1.556  0.1347  0.0092 -0.0155
11598W        W28072   4.511  10.281  14.040 -0.1312  0.0764 -0.0377
11599W        W28073  18.775  15.375  13.042 -0.0415  0.0999 -0.4258
11600W        W28074   1.221   7.248  13.460 -0.0660 -0.0687  0.1647
11601W        W28075  15.563   7.219   2.052  0.2953 -0.1147  0.3157
11602W        W28076   8.371   2.294  11.337 -0.0912  0.2241  0.0508
11603W        W28077  14.157   3.120   0.444  0.1633 -0.2100 -0.0526
11604W        W28078  11.049  14.983  14.079 -0.0975  0.0389  0.0086
11605W        W28079  16.082   8.444   3.334  0.1434 -0.0243 -0.0379
11606W        W28080  12.522   2.548   3.690  0.0585 -0.0254 -0.0360
11607W        W28081  17.812   9.013   2.714  0.0769  0.0813  0.1488
11608W        W28082  18.054   1.409  12.036 -0.0088 -0.1797  0.3151
11609W        W28083  12.770   4.342  10.842 -0.1856 -0.2809 -0.2186
11610W        W28084  11.163   1.177  11.728  0.0368  0.0776  0.0640
11611W        W28085  14.252  15.775   4.032 -0.2463  0.1219  0.1025
11612W        W28086  16.218   2.390   0.246 -0.1588 -0.0852 -0.0722
11613W        W28087  10.198   1.396  12.055  0.0341  0.0044  0.0769
11614W        W28088  13.989  14.087  10.945  0.0964 -0.0347 -0.1010
11615W        W28089   5.257   5.989   0.648 -0.0509 -0.1509 -0.1112
11616W        W28090   6.464  17.905   3.573 -0.5245 -0.2571  0.0392
11617W        W28091   7.268   6.360  11.003 -0.2102  0.1526  0.2152
11618W        W28092   5.146   3.574   3.007  0.0259 -0.0297 -0.2051
11619W        W28093   9.698   0.902   3.152 -0.1888  0.1355  0.4719
11620W        W28094  11.857  10.068  13.386 -0.1554 -0.0935 -0.2711
11621W        W28095  16.543   2.394  11.143 -0.1310 -0.0992  0.0084
11622W        W28096  14.817   6.396   2.521  0.0046 -0.1713  0.0529
11623W        W28097  14.465  18.109  14.053 -0.0536 -0.4276  0.1701
11624W        W28098   9.571   3.493  11.126 -0.0449  0.4742 -0.1125
11625W        W28099   8.663  10.889   4.152  0.0221 -0.2029  0.2276
11626W        W28100   3.415  15.092   2.949  0.2476 -0.3182  0.2143
11627W        W28101  14.901  14.570   2.292  0.0015  0.2033  0.0583
11628W        W28102  16.013  13.006   1.768 -0.2350 -0.0004 -0.1361
11629W        W28103   1.558  16.330   5.098  0.2327 -0.0686 -0.2496
11630W        W28104   2.298   2.733  14.498  0.0357  0.0337  0.1273
11631W        W28105   6.985   9.946   2.578  0.3608  0.1276 -0.0051
11632W        W28106   5.462   4.375  12.847  0.0277  0.1858  0.2809
11633W        W28107  13.768  12.088  14.799  0.1456 -0.4854  0.2061
11634W        W28108   2.334  11.644   4.094 -0.0846 -0.2192  0.1002
11635W        W28109   9.298  12.753   4.947 -0.0353 -0.1068 -0.0451
11636W        W28110  18.459   8.542   1.544  0.1132  0.0310  0.2195
11637W        W28111  15.289  17.796   4.667 -0.1634 -0.1345 -0.0460
11638W        W28112  17.778  10.161   4.019  0.0483 -0.0783  0.0822
11639W        W28113   0.893  17.527  11.241  0.0250 -0.0591 -0.1062
11640W        W28114  17.242  14.086  14.701 -0.2455 -0.1752  0.1110
11641W        W28115   8.415   4.865  14.510  0.0958  0.0789 -0.0126
11642W        W28116  12.815  16.876   0.300 -0.1896 -0.0185  0.2332
11643W        W28117   1.613  11.464  10.265  0.0743 -0.0090  0.1576
11644W        W28118   2.146   0.537  15.024 -0.0029 -0.0416  0.0092
11645W        W28119   8.429   3.175   1.046 -0.5569 -0.0266  0.1207
11646W        W28120  10.685   3.614  10.789  0.0345 -0.3898  0.1599
11647W        W28121  13.150  14.281   2.888 -0.0658  0.0033  0.2307
11648W        W28122   3.237  13.875  13.259  0.1480 -0.1387 -0.0847
11649W        W28123   9.269   6.087   0.619 -0.1324  0.2227 -0.1674
11650W        W28124   9.336   5.621  13.900 -0.2372 -0.3910 -0.2011
11651W        W28125  17.876   9.080  15.056 -0.2467  0.2708 -0.0661
11652W        W28126  18.492   2.667   1.239 -0.0818 -0.0491 -0.2686
11653W        W28127   5.667  11.417   3.393  0.2788 -0.0548  0.3293
11654W        W28128   0.933   3.069  13.757  0.1847 -0.1579 -0.1626
11655W        W28129   3.931  14.387   3.963  0.3098  0.0690 -0.1079
11656W        W28130  12.265   5.816   1.121 -0.4557 -0.0572  0.1177
11657W        W28131  12.746   7.797  11.655  0.0960 -0.4021 -0.1160
11658W        W28132   6.789   9.844  13.580  0.1861 -0.0346  0.1901
11659W        W28133   6.074   2.600   2.219 -0.0770  0.0707 -0.3574
11660W        W28134   8.936   4.083   4.279  0.2379  0.1046  0.1264
11661W        W28135  15.139   6.300   2.894 -0.2172  0.1207 -0.1119
11662W        W28136   0.531   6.844  13.808 -0.0626  0.1405  0.3351
11663W        W28137  11.228  15.546  10.933  0.0990  0.0511 -0.1380
11664W        W28138   4.014  17.747  12.011 -0.1299  0.2021  0.4088
11665W        W28139  13.531  11.702   3.090 -0.2799 -0.0178 -0.1644
11666W        W28140   1.467  17.344   5.143 -0.2978  0.1603 -0.2251
11667W        W28141   1.510  10.623   0.396  0.3602 -0.3381 -0.0322
11668W        W28142   3.214   7.283   2.888 -0.3646  0.0817  0.0895
11669W        W28143  12.273  13.158  14.765 -0.0236 -0.0446  0.0600
11670W        W28144   4.776   5.635   4.814  0.1433 -0.0080  0.0462
11671W        W28145  16.272  13.255  11.152  0.1842  0.3467  0.0860
11672W        W28146  18.813  13.522   2.142 -0.0046  0.2142  0.1913
11673W        W28147   1.010  17.594   1.156 -0.1052 -0.1965 -0.0187
11674W        W28148  12.857  14.548   1.513 -0.1677 -0.0072 -0.1517
11675W        W28149   2.994   4.294  11.219  0.1355 -0.1510  0.0243
11676W        W28150  18.046  11.492  12.077  0.1237 -0.0057  0.4629
11677W        W28151   7.828  16.733   9.437  0.1179 -0.0791  0.0492
11678W        W28152   5.187   2.524   9.675 -0.0909  0.0892 -0.1640
11679W        W28153  11.032  16.177   1.971  0.1746  0.2167  0.0348
11680W        W28154   9.896   7.914   9.728  0.1717 -0.0595  0.2304
11681W        W28155  14.972   4.974  13.216 -0.1825 -0.1377 -0.0001
11682W        W28156   9.324  11.578  12.659 -0.0657 -0.0759  0.0128
11683W        W28157   4.423  10.160   0.670  0.1023 -0.1336  0.1164
11684W        W28158   8.848  14.869  11.673 -0.0118  0.3368  0.0039
11685W        W28159  11.560  12.314  11.093  0.0094 -0.3900  0.0144
11686W        W28160  12.544  10.589  11.709  0.2114  0.2438 -0.1845
11687W        W28161   3.781  10.915  13.526  0.0025 -0.1298  0.0818
11688W        W28162  18.863   5.810  10.902 -0.2153 -0.1062  0.1749
11689W        W28163   6.284   7.959   1.800 -0.1649  0.3706  0.1473
11690W        W28164  14.610  12.210  14.554  0.0497 -0.1272  0.0746
11691W        W28165  11.355   4.758   2.845  0.3541  0.2168 -0.2001
11692W        W28166   0.251  15.184  13.895 -0.1090 -0.0370 -0.1594
11693W        W28167   8.857  17.488   3.982  0.0074 -0.0441 -0.0065
11694W        W28168   1.858   8.579   2.237 -0.4042  0.1374 -0.2535
11695W        W28169  13.078  10.461  11.614 -0.0496  0.0882  0.0564
11696W        W28170   6.416   7.226  14.117 -0.1331  0.0035 -0.0122
11697W        W28171  10.542  18.928   4.664 -0.0059 -0.1287 -0.0955
11698W        W28172   4.421   7.052  10.711 -0.0859  0.1068  0.0051
11699W        W28173  14.959  18.831  12.790 -0.3701 -0.2230  0.0697
11700W        W28174  10.939  17.090   3.863  0.1688  0.0830  0.0731
11701W        W28175   0.777  10.133   3.507 -0.0217  0.1009  0.0168
11702W        W28176  12.991   3.261   3.708 -0.4065  0.0880  0.2614
11703W        W28177  14.299   6.248  11.458  0.0391  0.0105  0.2662
11704W        W28178   8.469   0.343  13.291 -0.2316  0.1232 -0.0281
11705W        W28179   1.469   0.465  11.416 -0.1898 -0.3611  0.3351
11706W        W28180   4.729   7.418   9.128 -0.1695 -0.0750  0.2832
11707W        W28181   1.533  12.570  11.574 -0.1987 -0.3438  0.2314
11708W        W28182  10.096  15.519  14.047  0.2795  0.0815  0.2021
11709W        W28183  17.996  14.617   1.784  0.0239 -0.2927  0.3233
11710W        W28184   8.140  12.986   0.803 -0.0209 -0.4418 -0.0274
11711W        W28185   1.365   5.915  14.147 -0.0537  0.0477 -0.3462
11712W        W28186   9.822  10.694  15.105  0.0350  0.4090  0.0071
11713W        W28187  11.581   9.362   3.680  0.0423 -0.1283  0.0837
11714W        W28188   3.718   9.760   2.117  0.0948 -0.0352  0.1001
11715W        W28189  15.502   8.752  11.461  0.1734 -0.1559 -0.0096
11716W        W28190  18.398   2.080  14.818 -0.0382 -0.0696  0.2163
11717W        W28191  15.310   8.914   0.802 -0.1928  0.0464  0.1962
11718W        W28192  15.287  14.494   1.233  0.2064 -0.1393  0.0643
11719W        W28193  18.254  18.603   3.686  0.1318  0.0878 -0.2042
11720W        W28194   5.826   8.664   2.135  0.0651  0.0736  0.2658
11721W        W28195   7.889   8.529   0.964 -0.0630 -0.0167 -0.1401
11722W        W28196   5.192   2.003   2.342 -0.1978  0.0645 -0.0518
11723W        W28197   9.777   9.693  14.726  0.0473  0.1760  0.2127
11724W        W28198   0.914   6.891  12.521 -0.0470  0.1362  0.0579
11725W        W28199   2.200  12.899   1.770  0.0408 -0.1539 -0.1438
11726W        W28200   2.699   7.180   1.565 -0.1826  0.0061  0.1411
11727W        W28201   8.985   3.144   9.721  0.0239  0.0738  0.0005
11728W        W28202   8.819  15.156   0.526  0.0092 -0.3760 -0.2752
11729W        W28203  14.771  17.561   0.390 -0.1732  0.1993 -0.1131
11730W        W28204   9.859  12.491  11.757 -0.1122  0.0571  0.2087
11731W        W28205   4.477   9.490  12.541  0.2258 -0.0659  0.0566
11732W        W28206  13.442   0.967   3.069 -0.0248  0.2086  0.0315
11733W        W28207   0.894   2.457  13.894 -0.5653  0.4230  0.1275
11734W        W28208  18.138  19.023  12.533 -0.4133 -0.2330 -0.0391
11735W        W28209   7.984   6.579   3.807 -0.3607 -0.1291 -0.1402
11736W        W28210   0.992   7.804   4.948  0.0847  0.3228 -0.1252
11737W        W28211  15.897  14.198  11.348  0.1140  0.2087 -0.0723
11738W        W28212  11.556   0.811   1.153  0.0855  0.2908  0.4266
11739W        W28213  13.283   0.456  10.573  0.0362  0.3283 -0.2032
11740W        W28214  13.732   4.705  12.460 -0.1615  0.0246  0.0724
11741W        W28215  16.680  11.711  13.396 -0.0952  0.1425  0.2094
11742W        W28216   1.899   7.775   4.718 -0.1633 -0.3089 -0.1326
11743W        W28217   3.719  18.385   2.557  0.1100  0.1598 -0.0361
11744W        W28218  13.208   5.371   2.145  0.2563  0.2134  0.5415
11745W        W28219  16.737  13.009   1.638  0.1283  0.0696  0.1602
11746W        W28220   1.558   9.001   0.527 -0.2021  0.3417  0.2058
11747W        W28221   3.325   9.077  12.105 -0.3799  0.1472  0.0898
11748W        W28222   8.460  17.039  14.032 -0.1341  0.0466  0.0955
11749W        W28223  15.389  15.937  10.677  0.0856 -0.0683 -0.0717
11750W        W28224   0.500   2.300   2.603 -0.1377 -0.2496 -0.0852
11751W        W28225  12.401  16.341   9.974  0.1089  0.0176  0.0907
11752W        W28226   8.904  11.859   2.296  0.0022  0.2162 -0.1491
11753W        W28227   7.549   9.978  14.917 -0.0566 -0.1536  0.1671
11754W        W28228   2.146  14.285   3.918  0.0229 -0.0955 -0.3973
11755W        W28229  15.055  11.787  13.928 -0.0476 -0.0932 -0.1260
11756W        W28230   7.618  17.379   3.453 -0.0855 -0.1545  0.2141
11757W        W28231   2.406   2.719   5.479  0.2897 -0.1608  0.1569
11758W        W28232  10.053  16.215   4.886 -0.2328 -0.0719 -0.0743
11759W        W28233  15.479   9.037   1.326 -0.4558  0.3093  0.2963
11760W        W28234   6.101  14.049   2.752  0.3119 -0.2733  0.2750
11761W        W28235  16.875  18.550  14.344  0.1139 -0.0607  0.0318
11762W        W28236   0.763   2.417   5.344  0.1029 -0.0735  0.0438
11763W        W28237  15.525  16.361   4.534 -0.2704  0.2083  0.0503
11764W        W28238  15.185  16.720  13.783 -0.0213 -0.3769  0.2938
11765W        W28239   5.196   7.069  14.832 -0.0920 -0.3149 -0.2823
11766W        W28240   0.967   2.712   2.249  0.1402  0.1553 -0.0267
11767W        W28241  16.096   6.287  10.962  0.0865 -0.2582  0.3944
11768W        W28242  15.498   4.561   4.267  0.0204  0.0311 -0.0994
11769W        W28243   2.716  14.860  11.058  0.1116  0.2770  0.0260
11770W        W28244   5.498   9.970   3.508  0.0742 -0.0294 -0.1047
11771W        W28245  10.283   6.834   4.378  0.0663  0.2848  0.3855
11772W        W28246  10.725  12.236   5.372  0.0136  0.1661  0.1644
11773W        W28247  10.956  11.244   2.595  0.0310 -0.1509 -0.1943
11774W        W28248   8.288   7.327  11.687  0.1174  0.2763 -0.2689
11775W        W28249   5.013  13.023  11.499 -0.2603  0.0277  0.1089
11776W        W28250  10.920  17.675   5.530  0.3665 -0.0932 -0.0660
11777W        W28251   0.350  11.270  12.558  0.0448  0.0048  0.1990
11778W        W28252   9.682   6.192   3.344 -0.3498  0.0803 -0.1406
11779W        W28253   4.541  15.272  14.502 -0.1898  0.0717  0.0484
11780W        W28254  16.344   8.421  13.651  0.1629 -0.1411  0.0927
11781W        W28255  13.072   7.203   2.260 -0.0029  0.1180 -0.2860
11782W        W28256  10.526  15.464   2.340 -0.0419 -0.5064  0.0968
11783W        W28257   8.954   5.637   5.012 -0.0062 -0.1296  0.2794
11784W        W28258  10.900  16.055   0.391 -0.1114  0.1470 -0.1796
11785W        W28259   9.865   9.512  13.753  0.4266 -0.1257 -0.1037
11786W        W28260   3.305   9.833   1.861  0.1824 -0.2226 -0.1869
11787W        W28261  15.935   8.114   1.190 -0.1207  0.0731 -0.0045
11788W        W28262  18.823  11.411   5.049 -0.0450  0.0400  0.1583
11789W        W28263  16.109  14.685  12.933 -0.4483 -0.1384 -0.0232
11790W        W28264   8.453   6.040   1.343  0.2854  0.0672  0.1118
11791W        W28265   9.643   6.493   1.079  0.1308 -0.1202 -0.2835
11792W        W28266   5.790   6.073   1.088  0.1836  0.2478 -0.2144
11793W        W28267  13.540   4.007   4.099 -0.0612  0.1446  0.3479
11794W        W28268   0.287  11.377  10.246  0.1509 -0.4624  0.0007
11795W        W28269   1.934  15.441  11.033  0.1064  0.0502 -0.0078
11796W        W28270  11.131   9.414  12.059  0.0789 -0.2607  0.0044
11797W        W28271  12.083  10.492  12.060  0.0122  0.1732 -0.3490
11798W        W28272   2.520  15.919  14.018  0.0308 -0.0440 -0.1251
11799W        W28273   3.312   2.575  14.728 -0.0084  0.0452 -0.2257
11800W        W28274   0.850   0.208  10.828  0.0343  0.0013  0.1308
11801W        W28275   4.121  12.663  12.934 -0.2686 -0.0043 -0.2491
11802W        W28276  13.399   1.319   4.057  0.1418  0.0811 -0.0657
11803W        W28277  11.595  15.057   1.770 -0.3327 -0.2257 -0.0452
11804W        W28278   6.936  11.024  12.122 -0.3401 -0.0846 -0.0226
11805W        W28279   1.566  12.908   2.221  0.0250  0.1971 -0.0192
11806W        W28280   3.097   5.903  13.911 -0.2248 -0.1216 -0.1164
11807W        W28281  19.102  13.816   4.669 -0.2029 -0.0599  0.0550
11808W        W28282   1.648   4.728  12.803 -0.0110 -0.0074 -0.0657
11809W        W28283   5.367   0.962  13.476  0.0745  0.2378  0.0486
11810W        W28284  10.891   8.868  12.153 -0.0025 -0.0494 -0.0383
11811W        W28285   2.190   5.858   1.330  0.0644  0.0006 -0.0121
11812W        W28286   2.503  13.273  14.640  0.1712 -0.1732 -0.2496
11813W        W28287   8.511  17.941   3.408  0.0792 -0.1873  0.2424
11814W        W28288  14.979  11.080   6.142 -0.3322  0.0548 -0.1910
11815W        W28289   0.544  13.670   4.259 -0.0265  0.0793  0.1827
11816W        W28290  13.719  10.681  13.832 -0.5307  0.1790  0.1512
11817W        W28291  13.351   2.759  13.646 -0.0815 -0.1729  0.2225
11818W        W28292  18.225   4.352  12.299 -0.0815 -0.0980 -0.0304
11819W        W28293  17.603  18.169  11.454  0.1520  0.3775  0.2176
11820W        W28294   2.488  13.386   3.579 -0.1528 -0.1317 -0.0057
11821W        W28295  16.830   2.147   2.445  0.0473 -0.1299  0.1954
11822W        W28296   0.266   0.600   1.685  0.1906 -0.0685  0.1360
11823W        W28297   8.505  17.900  11.086  0.0486  0.0511 -0.2292
11824W        W28298   3.969  12.448  14.445 -0.2372  0.4855  0.0943
11825W        W28299  17.682   3.857   4.742 -0.1236 -0.0399 -0.0062
11826W        W28300  11.176  16.289   1.490 -0.0464 -0.0021 -0.1543
11827W        W28301  12.389   0.964   0.951  0.3100 -0.1820  0.2710
11828W        W28302   2.850   0.153   5.852 -0.2155  0.0311  0.0856
11829W        W28303   3.195   9.146   0.477 -0.0423 -0.1814 -0.2990
11830W        W28304   2.538  16.628   2.683 -0.2850 -0.3496 -0.2705
11831W        W28305   2.707   9.801  11.987 -0.0420  0.0089 -0.1421
11832W        W28306  19.118  11.412  10.628 -0.2067  0.3029  0.1263
11833W        W28307  10.926   8.768  13.940 -0.0157  0.0660 -0.2797
11834W        W28308  12.701  10.765  12.186 -0.1056  0.0091  0.0142
11835W        W28309   1.905  15.001   4.472  0.0819 -0.4553  0.2027
11836W        W28310   0.425   0.683   4.714 -0.0054  0.3809 -0.1168
11837W        W28311   4.995  18.581   2.993 -0.0493 -0.0240 -0.0822
11838W        W28312  12.768  14.489   2.554 -0.1827  0.0828  0.1472
11839W        W28313  11.720  11.869  10.747 -0.1815  0.0210 -0.1432
11840W        W28314  14.618   1.328   3.684  0.0016 -0.1283 -0.2837
11841W        W28315  13.890  17.207   3.621  0.0380  0.1681  0.2143
11842W        W28316  10.906   5.468  11.986 -0.0239 -0.2129 -0.0100
11843W        W28317   9.221   8.370   5.097  0.0225  0.1090  0.2802
11844W        W28318  18.056   5.144   2.990  0.2956 -0.1112 -0.0296
11845W        W28319   5.267  18.541   4.455 -0.0001  0.0542 -0.2906
11846W        W28320  17.972  12.061   2.478 -0.3001  0.0280 -0.3094
11847W        W28321  15.018   9.866  13.875  0.1727 -0.1940  0.2866
11848W        W28322   2.540  12.205  10.378 -0.3368  0.4274 -0.0805
11849W        W28323   1.494   0.869   3.574 -0.0990  0.0575  0.0097
11850W        W28324  13.504   4.981  13.356 -0.4651  0.1205 -0.0672
11851W        W28325  17.978  12.699  10.119  0.0679 -0.1566  0.0136
11852W        W28326  12.829   6.094  13.448  0.2287 -0.0119 -0.1369
11853W        W28327  14.279  14.390   4.870 -0.3361 -0.0654 -0.4810
11854W        W28328   8.329  12.996   1.272 -0.1039  0.2646 -0.0751
11855W        W28329   1.709   1.198  12.163 -0.0436  0.0529 -0.1316
11856W        W28330   9.781  14.149   1.184 -0.1250 -0.1175  0.2557
11857W        W28331   2.320  16.901  12.929 -0.1938 -0.1243  0.2454
11858W        W28332   2.517   9.229  14.279 -0.0055 -0.0239 -0.0397
11859W        W28333   5.842   0.595  11.628  0.3827  0.3873  0.0852
11860W        W28334  11.435   3.663  12.165  0.2255  0.1834 -0.2780
11861W        W28335   4.704  18.330   0.565 -0.0561 -0.0158  0.0443
11862W        W28336   9.659   6.963  13.700 -0.1024 -0.2076  0.0276
11863W        W28337   7.220   9.150   1.373  0.0652 -0.2171  0.0282
11864W        W28338   0.652  12.610   0.667  0.3026 -0.1243 -0.0545
11865W        W28339   0.307   9.155   3.521  0.1248  0.0074  0.1299
11866W        W28340  10.743  16.854   1.428 -0.1744 -0.0033 -0.1739
11867W        W28341  18.143  12.195  10.338  0.2323  0.0791  0.2111
11868W        W28342   7.567   2.406   0.271  0.4253  0.1708  0.3139
11869W        W28343   5.732  13.177  10.721 -0.0530  0.0364  0.2468
11870W        W28344   8.876   1.339  11.017 -0.0385 -0.3051 -0.2811
11871W        W28345  13.424   3.371   3.524 -0.0068  0.2230  0.3586
11872W        W28346   3.437   3.880   0.947  0.0944  0.0063  0.1772
11873W        W28347  16.255  18.107  13.681 -0.2205 -0.0944  0.0028
11874W        W28348  15.618   5.446  12.782 -0.1149  0.1774  0.3335
11875W        W28349   4.008   9.095  15.116  0.2537 -0.0129  0.3628
11876W        W28350  11.831  17.150  10.971 -0.1890 -0.0509  0.1279
11877W        W28351  17.208  15.929   2.012  0.0518  0.2513 -0.1885
11878W        W28352   5.792   4.364  11.441 -0.0753  0.0582  0.1486
11879W        W28353   0.433   2.976  14.027 -0.2073 -0.4061  0.0170
11880W        W28354  15.864  13.789  10.312 -0.0875 -0.0570  0.0710
11881W        W28355   7.177   8.758   2.262 -0.2016 -0.1408 -0.0696
11882W        W28356  14.372   7.410   3.033 -0.0107 -0.2234 -0.0773
11883W        W28357  18.789   8.536  12.204 -0.1530  0.1650  0.1118
11884W        W28358   7.873  17.562   1.089 -0.1056 -0.0507 -0.1672
11885W        W28359   0.144  14.818   0.661  0.0775 -0.0443 -0.0269
11886W        W28360   0.331   6.539  11.900  0.0003 -0.2479 -0.1713
11887W        W28361  15.875  14.655  14.174  0.0155  0.4829 -0.2327
11888W        W28362   7.828  15.435  14.183 -0.0205 -0.0364 -0.0085
11889W        W28363   6.552  17.797  11.579 -0.3973  0.0819  0.0877
11890W        W28364   2.750   4.144  12.877 -0.0127  0.2690  0.1662
11891W        W28365  16.809   8.837   2.670 -0.0672 -0.1856 -0.1010
11892W        W28366  17.971  12.710  14.995 -0.3803  0.2663 -0.1852
11893W        W28367  12.483   3.331  12.780 -0.1680  0.0525  0.0704
11894W        W28368  16.390   1.733   0.454  0.1623 -0.0765  0.0856
11895W        W28369   3.513  16.966   2.641 -0.1099  0.0054 -0.1623
11896W        W28370  13.927   3.372  13.108  0.1104 -0.3615 -0.2238
11897W        W28371  14.063  16.116  12.613  0.0656 -0.2228  0.3020
11898W        W28372   6.680   2.641   4.782 -0.0522 -0.1834 -0.0407
11899W        W28373  17.396   1.588  13.763 -0.2301 -0.0635  0.0422
11900W        W28374   7.905  11.773   2.048  0.1167  0.1197  0.0296
11901W        W28375   4.953   0.656  13.478  0.1285 -0.0164 -0.0775
11902W        W28376   5.389   2.456   1.394  0.0018 -0.1942  0.3932
11903W        W28377  18.010  10.824   2.949  0.1124 -0.2931 -0.2288
11904W        W28378   5.587  17.993  14.325  0.0151 -0.2455 -0.1827
11905W        W28379   8.617   9.865  14.808 -0.2040  0.2876  0.3658
11906W        W28380  12.131  14.072   5.548  0.2896  0.1765  0.0171
11907W        W28381  15.162   3.862   3.913 -0.0227 -0.1537 -0.2494
11908W        W28382   8.534  14.728   2.137 -0.1926 -0.2148 -0.3138
11909W        W28383  12.962   5.739   0.649  0.0094  0.0831  0.1454
11910W        W28384   7.476  17.814  13.237  0.1300  0.1209 -0.0679
11911W        W28385   5.908  15.404   0.257 -0.0807 -0.1010 -0.1554
11912W        W28386   6.538  10.463  12.187  0.1667  0.1045 -0.3185
11913W        W28387   2.980  15.828  11.294 -0.0638 -0.0578 -0.0071
11914W        W28388  14.265   2.772   3.780 -0.3058  0.2998 -0.2156
11915W        W28389  17.501   3.875   2.243  0.1268 -0.1268 -0.2247
11916W        W28390  15.969  15.917  11.487 -0.0489  0.1825 -0.1457
11917W        W28391   8.523  18.705  10.431 -0.2906 -0.0241  0.2214
11918W        W28392  16.004   9.696  13.238  0.0072  0.1107 -0.0597
11919W        W28393   4.019  18.708  12.235 -0.0654 -0.0161  0.2107
11920W        W28394   8.642  16.986   0.661  0.2107  0.1431 -0.0693
11921W        W28395  11.404   5.762   5.211 -0.0956  0.0964  0.2641
11922W        W28396  13.772   3.583   4.015  0.0057  0.1253  0.0955
11923W        W28397   8.436  17.405   4.818  0.0704  0.1284 -0.3355
11924W        W28398   2.419  13.409   5.279 -0.0676  0.0175 -0.0732
11925W        W28399   1.337   5.220  13.678 -0.0404  0.1721  0.1714
11926W        W28400   1.353  14.572   0.042 -0.1139  0.1303 -0.1067
11927W        W28401   6.749   5.313   0.489 -0.1522  0.0918  0.3431
11928W        W28402  16.937   6.968   4.504 -0.0350 -0.0162  0.0042
11929W        W28403   0.163  17.245   2.747  0.1700  0.0376  0.1981
11930W        W28404   9.973  17.965   5.012 -0.0480 -0.0708  0.2270
11931W        W28405   0.531  10.538  13.552  0.0045 -0.1976 -0.2884
11932W        W28406   4.607   5.354  11.765 -0.0419 -0.0693 -0.4577
11933W        W28407  15.136   5.429   3.841 -0.1095 -0.2874 -0.1044
11934W        W28408   2.714   1.546  14.602 -0.1760  0.1758 -0.4226
11935W        W28409  11.071  17.784  10.679 -0.2481 -0.4078  0.0082
11936W        W28410   6.877  14.195   3.199  0.1115 -0.0742  0.1094
11937W        W28411   5.324  17.615  12.506 -0.0331  0.3201  0.3052
11938W        W28412  18.828   6.386  13.673 -0.0451 -0.2713  0.2338
11939W        W28413  12.158   6.084   4.253 -0.1927  0.0694  0.4044
11940W        W28414   0.950  15.981   1.340 -0.1694 -0.2849 -0.0492
11941W        W28415   2.580  11.222   3.443  0.2737 -0.2515  0.0405
11942W        W28416  17.200   0.316  10.864 -0.1040  0.0636 -0.0092
11943W        W28417  12.630   9.777   3.243 -0.2154 -0.2850 -0.0544
11944W        W28418   7.525  14.286  12.105  0.0669  0.0471 -0.0689
11945W        W28419  15.267  11.277  13.901  0.1220 -0.2831 -0.0616
11946W        W28420   5.219   3.896   1.843 -0.2989 -0.1587 -0.0723
11947W        W28421  11.703  19.021   5.060 -0.0199  0.0792  0.2134
11948W        W28422  12.596   1.817   1.940 -0.0004  0.2151 -0.2450
11949W        W28423  17.590   6.671   1.449 -0.2106 -0.1307  0.0826
11950W        W28424  11.180  12.886   4.313 -0.3659  0.0970 -0.0492
11951W        W28425   9.828  18.685   3.196  0.0961  0.2989 -0.0159
11952W        W28426  15.825   3.638   1.361  0.0202 -0.3301  0.1355
11953W        W28427   5.337   0.331  11.554 -0.1069  0.0891  0.0081
11954W        W28428   1.764   2.167  12.237  0.1454  0.2128 -0.0204
11955W        W28429  17.903  11.910   3.882 -0.5372 -0.0633 -0.1480
11956W        W28430   5.279   0.217   2.287 -0.0310  0.0910  0.1526
11957W        W28431   8.726   8.141   3.650  0.0612 -0.0835 -0.0134
11958W        W28432  17.422  11.174  13.612 -0.3724 -0.4774  0.1734
11959W        W28433   4.005   2.726   3.194 -0.2129  0.0857  0.5718
11960W        W28434   1.278  11.303   1.079  0.0863 -0.3675  0.2186
11961W        W28435  17.215  16.888   2.640  0.0442 -0.2071 -0.2615
11962W        W28436   8.991  17.353  14.689  0.2646  0.0131 -0.2520
11963W        W28437  12.900   2.371   3.384 -0.3628  0.0263 -0.1307
11964W        W28438  19.085  14.327  10.496 -0.5197 -0.0361 -0.1588
11965W        W28439   4.842   8.108  13.385 -0.0196 -0.2291  0.2007
11966W        W28440  17.232  18.417   1.964 -0.0978 -0.0735 -0.1059
11967W        W28441   9.035  11.528   4.859  0.0916  0.1398 -0.1235
11968W        W28442   0.784   6.184  15.063 -0.0202  0.3399  0.2484
11969W        W28443  17.516   9.456  11.170 -0.0313 -0.1655 -0.0202
11970W        W28444  16.572   5.859   9.583  0.2174 -0.3585 -0.3748
11971W        W28445   5.775  10.943   4.325  0.0592  0.1254 -0.1624
11972W        W28446  10.931   8.051  15.147  0.0795 -0.3122 -0.1363
11973W        W28447  10.025  19.136  11.651  0.1555  0.2500 -0.1139
11974W        W28448  13.919   3.927   0.664 -0.3277 -0.1706 -0.3168
11975W        W28449  11.385   5.568   2.574  0.1618 -0.1683 -0.1673
11976W        W28450  18.900  11.200  13.777 -0.0040  0.1282  0.0616
11977W        W28451  13.809  16.639  12.659 -0.1645 -0.2055  0.1163
11978W        W28452   3.896   5.680   1.229  0.6570 -0.2879 -0.1220
11979W        W28453  12.786   7.353  11.503  0.1979  0.3433 -0.0130
11980W        W28454  15.489   2.283   4.513  0.1510 -0.1388 -0.0581
11981W        W28455  17.318  10.311  13.345 -0.1076 -0.1913  0.1322
11982W        W28456   9.576   7.650  11.518 -0.0559 -0.0721 -0.2001
11983W        W28457   6.279   8.152  14.874 -0.1239  0.3638  0.1002
11984W        W28458   9.389  16.394  10.331  0.0755  0.0515  0.1242
11985W        W28459   3.471   8.496   3.387 -0.1985 -0.0077  0.2393
11986W        W28460  19.006  17.184   1.793 -0.0502  0.3765 -0.2443
11987W        W28461   8.472  14.690   0.724  0.1273 -0.0825  0.2940
11988W        W28462  11.460  18.879  13.707  0.1678  0.1926 -0.0316
11989W        W28463  11.121   1.046   1.044  0.1793 -0.4066  0.2704
11990W        W28464  12.354  13.086  10.969  0.0886  0.0250  0.1353
11991W        W28465   0.148   5.326  13.054  0.0424  0.0138  0.3423
11992W        W28466  14.374   6.487  13.350 -0.2247  0.2672 -0.1284
11993W        W28467   5.598  18.606  11.563 -0.2339 -0.4219 -0.0871
11994W        W28468   8.684   7.741  14.766 -0.1186  0.2074 -0.1841
11995W        W28469   6.442   5.481   0.944 -0.0332 -0.2315  0.1865
11996W        W28470   2.985   6.864   2.759 -0.1480 -0.0032  0.0249
11997W        W28471  12.671   8.308  14.545 -0.1388  0.1551 -0.1321
11998W        W28472   0.425   4.411  11.979  0.0330 -0.3098 -0.0598
11999W        W28473  10.460  12.027   1.710 -0.3343  0.1832 -0.0319
12000W        W28474   8.993   3.799  15.042  0.2562  0.1925  0.1091
12001W        W28475  10.698  14.405  14.522 -0.2624 -0.2474 -0.2543
12002W        W28476   8.419   3.023   0.075 -0.1281  0.1393  0.0966
12003W        W28477  11.642   8.608   0.136 -0.0061 -0.3729 -0.4537
12004W        W28478  17.885  16.667   4.744 -0.1068 -0.0349  0.0252
12005W        W28479   1.331   0.526  10.873 -0.2089 -0.0053 -0.1991
12006W        W28480  12.004   6.037   4.831  0.1118 -0.0099 -0.2338
12007W        W28481   2.088  13.365   4.830  0.1480  0.0418  0.0347
12008W        W28482  13.367   7.958   4.305 -0.2124  0.2629 -0.2054
12009W        W28483   3.242  14.716   1.201  0.0232 -0.1125 -0.0523
12010W        W28484   0.531   5.718  11.046  0.0105  0.0669 -0.1180
12011W        W28485  17.345  12.256   2.651 -0.1604  0.0489  0.2336
12012W        W28486  15.738  11.142   3.611  0.1337  0.1820 -0.2205
12013W        W28487   5.052   0.502  14.237  0.0129 -0.0579 -0.0330
12014W        W28488  13.594   2.511   1.223  0.1062 -0.5498  0.0214
12015W        W28489  14.766   0.504  13.544  0.2964  0.1208  0.0310
12016W        W28490  19.111  12.299   0.289 -0.0576 -0.1483 -0.0525
12017W        W28491  18.735  17.333   0.447  0.3931 -0.0664 -0.2462
12018W        W28492  17.201  17.170   5.393  0.1809 -0.2555  0.1210
12019W        W28493   0.005   7.229   5.566  0.0358 -0.2436 -0.0730
12020W        W28494   1.562  18.775  10.926  0.2196  0.1433  0.0916
12021W        W28495   2.479   8.648   0.999  0.2087  0.1251  0.2052
12022W        W28496   4.718  18.216   2.443 -0.2051 -0.1380 -0.1226
12023W        W28497   0.078   3.499  11.640  0.0968 -0.1085  0.1974
12024W        W28498   6.686  16.617   0.705  0.0422 -0.1474 -0.1648
12025W        W28499  12.687   5.563   1.074 -0.0501 -0.2732 -0.1953
12026W        W28500   0.263  16.108   9.742  0.0571 -0.1494 -0.0750
12027W        W28501   6.482  14.379  10.625 -0.1177  0.2706 -0.0609
12028W        W28502  13.115  14.282   4.274  0.0508  0.0947  0.1267
12029W        W28503   3.073  17.697   0.459 -0.1070 -0.1390  0.3293
12030W        W28504  11.026   5.198   2.058 -0.1018  0.0163 -0.3318
12031W        W28505  11.514   0.893   1.761 -0.0625 -0.0242  0.1506
12032W        W28506   4.064  13.332  11.337  0.0358 -0.0665  0.0584
12033W        W28507   4.336   1.478  11.108 -0.2864 -0.2579 -0.0735
12034W        W28508  10.966   7.828   0.747 -0.4143 -0.4597 -0.1790
12035W        W28509   8.471  17.137   3.972  0.2045  0.2188 -0.0088
12036W        W28510  11.222   7.516  10.876 -0.1142  0.0959 -0.3681
12037W        W28511  10.409   6.261  15.073 -0.2197 -0.1066  0.2503
12038W        W28512  10.242  16.170   0.273  0.0394 -0.0012 -0.1739
12039W        W28513   3.598  15.626   2.040  0.0803  0.0539 -0.1035
12040W        W28514  14.264   8.838   1.976 -0.0108  0.0067  0.0202
12041W        W28515  12.916  11.227   0.422 -0.1479 -0.2234  0.0067
12042W        W28516   0.410  10.073   2.287 -0.1916  0.1791  0.1811
12043W        W28517   7.682  17.309  10.858  0.0838 -0.0056 -0.4124
12044W        W28518   2.743  11.153  10.897  0.0841  0.0361 -0.0448
12045W        W28519   8.602   7.800   3.321  0.1974 -0.3392  0.2255
12046W        W28520  18.915  14.031   0.083  0.0253 -0.0881  0.1181
12047W        W28521   0.030   8.690  10.679 -0.0838 -0.1266  0.0523
12048W        W28522  19.023   7.360  11.095 -0.1281  0.1254 -0.5846
12049W        W28523  12.953   0.577   4.738  0.0709  0.1098  0.1983
12050W        W28524  12.897  12.337   2.072  0.1524 -0.0608  0.1621
12051W        W28525  11.563   0.792   4.827  0.3492 -0.1683 -0.0285
12052W        W28526  19.147  10.090  11.225  0.0149  0.0408  0.1370
12053W        W28527   3.101   0.527  11.710  0.0993  0.2083 -0.0288
12054W        W28528  11.628   0.331   2.755 -0.0788 -0.0083  0.3836
12055W        W28529   3.692   4.185   0.521  0.2250 -0.2168  0.3959
12056W        W28530  14.132   2.982  12.089  0.6041 -0.0415 -0.0418
12057W        W28531  12.959  12.363   2.635  0.2994 -0.1255 -0.0551
12058W        W28532  14.730   7.274  11.603  0.1649  0.3007  0.0322
12059W        W28533   5.676   5.145   2.382  0.0700 -0.1374 -0.0478
12060W        W28534  14.384  12.226  10.579 -0.1480 -0.0038  0.0958
12061W        W28535  19.070   9.085   2.540 -0.1678 -0.0724  0.4493
12062W        W28536  15.910   6.606   0.650  0.4751  0.2150 -0.2372
12063W        W28537  15.247   1.658  10.741 -0.5148 -0.0316 -0.0539
12064W        W28538   8.230  14.292   3.303 -0.1502  0.1130 -0.0845
12065W        W28539  17.447  10.625  10.428  0.2186 -0.0164 -0.1141
12066W        W28540   4.624   9.856  12.123 -0.1315  0.0430  0.0019
12067W        W28541  14.639   0.073  11.564 -0.1581 -0.1258  0.2047
12068W        W28542   7.129   2.820   5.259 -0.1576  0.2261 -0.0386
12069W        W28543   6.277  13.372   2.726 -0.0884  0.1970  0.0914
12070W        W28544   7.643  18.819   2.719 -0.1541  0.1099 -0.1366
12071W        W28545   7.586  10.027  10.886 -0.0615 -0.2827  0.0973
12072W        W28546   2.999  13.419   3.565  0.0314  0.0227 -0.2442
12073W        W28547   1.696  16.360  12.464  0.1198  0.0712 -0.3608
12074W        W28548   9.964   6.699   0.546 -0.0654  0.0480  0.2074
12075W        W28549  10.306  12.856   0.557  0.2289 -0.0046  0.0851
12076W        W28550   8.819  14.046  11.076  0.1260 -0.0061 -0.0714
12077W        W28551   3.868   3.353   2.285 -0.3084 -0.0839 -0.1215
12078W        W28552  13.206  10.031  13.769  0.1776 -0.0602 -0.2356
12079W        W28553   2.079  17.460  11.157 -0.0597 -0.0483 -0.2204
12080W        W28554   3.102  12.286  13.981 -0.0661 -0.1111 -0.0874
12081W        W28555  17.200   8.114  10.703  0.1183  0.1762  0.0196
12082W        W28556  10.660  15.865  12.002  0.1225  0.2114 -0.0493
12083W        W28557  11.561  17.772  15.074  0.0746  0.1273 -0.1511
12084W        W28558   5.769  14.027   1.584  0.2296  0.2348  0.3015
12085W        W28559  14.721   1.552  10.778  0.2498 -0.1624  0.1577
12086W        W28560   4.782   9.253  14.232 -0.2543  0.0357 -0.3177
12087W        W28561  16.061   3.373   4.281 -0.0586  0.1541 -0.2152
12088W        W28562  11.234  13.036  11.752  0.2394  0.0571  0.1472
12089W        W28563  17.712   6.039  14.510  0.1125 -0.1483  0.0423
12090W        W28564   3.719   9.038   3.272 -0.0020  0.0781  0.1549
12091W        W28565   6.824  10.847   2.981  0.2308 -0.1130 -0.1744
12092W        W28566  10.798   2.841  13.674 -0.0893 -0.1483 -0.1366
12093W        W28567   7.546  18.740  12.371  0.0958 -0.2138  0.2365
12094W        W28568  15.120   1.345   2.279 -0.2323 -0.3549  0.2756
12095W        W28569   8.518   6.375  10.084  0.3349 -0.1960  0.1807
12096W        W28570   0.114   5.154   1.054 -0.1100 -0.0518 -0.1370
12097W        W28571   7.042  15.602   1.422 -0.0283 -0.1144 -0.2290
12098W        W28572  10.527   9.715   2.458 -0.1388  0.1738 -0.0323
12099W        W28573  12.417  15.809   5.114  0.1808  0.2543 -0.1822
12100W        W28574  12.015  12.122   2.296 -0.1651 -0.0829 -0.0643
12101W        W28575  11.409  18.227   1.162 -0.2484 -0.1912 -0.3344
12102W        W28576   4.302   9.829  13.898 -0.0956  0.3065  0.1515
12103W        W28577   7.750   9.921   2.005  0.1201 -0.5326 -0.0724
12104W        W28578  14.137  13.195   4.528 -0.1310 -0.2587 -0.0894
12105W        W28579  15.230   9.060  13.704  0.1641  0.2940 -0.0642
12106W        W28580  15.880  18.649  12.967 -0.0277 -0.1296  0.3819
12107W        W28581   7.838   6.100   0.983 -0.3853 -0.0036  0.1247
12108W        W28582   1.959  10.751  13.067  0.1380  0.2436  0.0364
12109W        W28583  16.364   5.323   3.235  0.1507 -0.0782 -0.3110
12110W        W28584   7.328   1.476   0.837 -0.1300 -0.1953  0.1221
12111W        W28585  14.960   3.721  11.040  0.1037 -0.0317 -0.1977
12112W        W28586  12.721  14.729  12.344 -0.2294  0.2283  0.1302
12113W        W28587   7.705   5.829  13.055 -0.0865  0.3611  0.0310
12114W        W28588   5.392   5.028  11.431  0.0959 -0.0425 -0.3515
12115W        W28589   8.008   2.737  15.064  0.2114 -0.4107  0.0362
12116W        W28590   3.475  18.829   9.874  0.0507 -0.3446  0.2462
12117W        W28591   9.460   1.387  14.047  0.1180 -0.0483  0.2541
12118W        W28592  18.714  10.699   1.190 -0.1983 -0.0374 -0.1968
12119W        W28593  15.434   5.401   3.079 -0.0359 -0.0446 -0.0923
12120W        W28594   0.860   1.955   3.589  0.3219  0.2621  0.0530
12121W        W28595   9.251  15.772  12.066  0.1188  0.0414 -0.1027
12122W        W28596   5.977   9.313  12.202 -0.0165  0.0430  0.0140
12123W        W28597  19.139  17.044  13.970  0.0631 -0.2268 -0.0912
12124W        W28598  11.643  11.830   5.124  0.0454  0.2284  0.1267
12125W        W28599  11.524   0.513   2.140  0.0223 -0.3037  0.0278
12126W        W28600   1.927   3.075  14.535  0.2530 -0.2625  0.2295
12127W        W28601   3.887   7.353  14.557 -0.0708 -0.1518 -0.0805
12128W        W28602   8.642  14.360   4.380  0.1686  0.1053 -0.0808
12129W        W28603   0.616  10.833  14.470  0.1209  0.0707  0.4271
12130W        W28604  18.721  18.594  14.763  0.2034 -0.0211  0.1005
12131W        W28605  14.625   9.003   0.109  0.0292  0.1352  0.0042
12132W        W28606   3.611  11.056   4.217  0.0915  0.2035  0.0028
12133W        W28607  15.477   7.911   3.821 -0.0430 -0.2806  0.0238
12134W        W28608   7.429   5.294  12.921 -0.2802  0.1506 -0.2437
12135W        W28609   4.918   6.118   4.964  0.5223  0.0586  0.2116
12136W        W28610  11.619   2.963   3.126 -0.0258 -0.1425  0.0190
12137W        W28611  12.419  16.802   3.365  0.0728 -0.1559  0.1600
12138W        W28612  10.801   2.575  11.359  0.1514 -0.0590 -0.2369
12139W        W28613   3.331  14.545  13.084  0.2559 -0.1385  0.1886
12140W        W28614   4.860   2.393  13.492  0.2190  0.1227  0.1581
12141W        W28615  14.173   0.255  12.836 -0.3228  0.3011  0.0744
12142W        W28616  12.947   1.018   3.310  0.0577  0.3590  0.0195
12143W        W28617  14.918   8.749  12.503 -0.2031  0.0751  0.1537
12144W        W28618   0.668   8.175  14.206 -0.3574 -0.0003  0.0469
12145W        W28619  14.643  16.712  14.798  0.0522 -0.0257  0.0583
12146W        W28620  19.119  13.667  12.893  0.1196 -0.0838  0.0091
12147W        W28621  13.296  11.945  13.313 -0.2518 -0.3532 -0.1605
12148W        W28622  14.930   6.660  13.121  0.4375 -0.3879 -0.1484
12149W        W28623  11.529  19.102   2.457 -0.1215  0.1412 -0.1497
12150W        W28624   6.139  11.938   3.203 -0.0802  0.3419 -0.2455
12151W        W28625   7.652   6.973   4.600 -0.0694  0.2952 -0.2395
12152W        W28626   0.980  13.643  12.778  0.1460 -0.0643  0.1992
12153W        W28627  16.876   6.741   0.660 -0.4920 -0.1248  0.0126
12154W        W28628   1.158  12.732   4.834  0.0727 -0.1479 -0.2118
12155W        W28629   5.962   6.880  11.398 -0.0136 -0.0685 -0.1307
12156W        W28630  11.742   7.307   5.472 -0.2259  0.0817 -0.2527
12157W        W28631   5.921  18.453  12.383  0.0677 -0.0581  0.4158
12158W        W28632  11.080  11.323   3.862 -0.1770 -0.0310 -0.2491
12159W        W28633   3.389   1.308  14.086  0.0684 -0.1268 -0.0235
12160W        W28634   0.769   3.285  14.256  0.0458 -0.0855 -0.0781
12161W        W28635   0.905   2.340   0.568 -0.5293 -0.0994  0.1692
12162W        W28636  18.304  18.542  14.463  0.2404  0.2522  0.1442
12163W        W28637   9.396   1.324   3.012 -0.1901  0.1135 -0.0987
12164W        W28638  13.940  15.052  12.972 -0.2083 -0.1289 -0.0691
12165W        W28639  12.874   7.136  12.822  0.4092 -0.0781  0.0697
12166W        W28640  14.695  13.736  14.959  0.3358 -0.0190  0.1721
12167W        W28641   3.702   3.787   2.605  0.1738 -0.4146 -0.5373
12168W        W28642  18.664   7.031  11.960 -0.1720 -0.1138 -0.1943
12169W        W28643   4.385   7.184  13.773 -0.0400  0.2393 -0.0187
12170W        W28644  10.820  13.854   0.334 -0.1698 -0.1474  0.1945
12171W        W28645   8.683   8.736  14.409 -0.0731  0.1624  0.0340
12172W        W28646  18.559   3.564   3.929  0.2286  0.0362 -0.3171
12173W        W28647  10.984   2.363  10.229 -0.0114 -0.3058  0.1103
12174W        W28648   6.425   0.311   0.640 -0.1231 -0.2338 -0.1342
12175W        W28649  15.563  18.391   9.633 -0.4285  0.3450  0.2197
12176W        W28650   1.426   6.207   2.263 -0.0232 -0.2278  0.1762
12177W        W28651  15.760   6.007   0.663  0.1597 -0.1428  0.1891
12178W        W28652  18.356   0.390  14.224 -0.2053  0.2166 -0.3566
12179W        W28653   3.734  10.767   1.135 -0.0972 -0.0228 -0.2976
12180W        W28654  17.723   6.433  10.633  0.2088 -0.1187 -0.1824
12181W        W28655   5.262   0.941   3.198  0.1466  0.0253 -0.1441
12182W        W28656   1.071  14.653   4.465 -0.0351 -0.0808  0.3137
12183W        W28657   5.493   1.893   5.308 -0.0987  0.1789 -0.0033
12184W        W28658   5.522   5.134   3.725 -0.1528  0.0300 -0.3521
12185W        W28659   1.352  18.426   1.537 -0.1745 -0.0115 -0.3002
12186W        W28660  17.505   5.503   1.820 -0.3600  0.1644  0.0868
12187W        W28661   0.297  16.604  10.596 -0.1866  0.3223  0.2851
12188W        W28662   4.410  16.047   0.553 -0.0741 -0.2052 -0.3048
12189W        W28663  14.395   8.335   0.963  0.0065  0.2340  0.0247
12190W        W28664   0.290  14.311  14.415  0.0186  0.0620 -0.1064
12191W        W28665   9.548  12.057  11.202  0.1103 -0.1646 -0.1001
12192W        W28666   9.203  16.372  13.857  0.1394  0.0449 -0.0698
12193W        W28667   2.591   1.868   1.493  0.1477  0.0670  0.2354
12194W        W28668  15.736  14.710  12.168  0.0706 -0.2897  0.2383
12195W        W28669   9.273   0.444  11.747 -0.1350 -0.2042  0.3466
12196W        W28670   9.637   5.234   4.445  0.0539  0.0763  0.0711
12197W        W28671  11.701   9.997   3.105  0.4406  0.1709 -0.0389
12198W        W28672   8.508  17.831  12.627 -0.0833 -0.1498 -0.1319
12199W        W28673   1.134  14.123   0.177 -0.0654 -0.2761  0.0508
12200W        W28674   2.645   8.810  12.840 -0.0385  0.0578 -0.4531
12201W        W28675  11.573   0.808  13.517  0.1043  0.3154  0.0922
12202W        W28676  13.424   5.940  12.630  0.0681 -0.3871 -0.2869
12203W        W28677   4.463  14.615   4.489 -0.2608  0.0209 -0.0297
12204W        W28678   9.585  12.229  13.924 -0.2467  0.0110  0.1628
12205W        W28679  13.047  18.256  10.392 -0.1180  0.0545 -0.1231
12206W        W28680  14.754   1.028   0.590 -0.1234  0.3700 -0.0388
12207W        W28681  14.063   8.183   2.450  0.0642 -0.0662 -0.0696
12208W        W28682   5.418  18.290  13.940 -0.0094 -0.1792 -0.1615
12209W        W28683  19.098   7.451   4.273  0.1220  0.0978  0.2710
12210W        W28684   1.841   1.371   2.451 -0.3553  0.2619 -0.1080
12211W        W28685  11.483  12.233   1.205 -0.0123  0.6090  0.2840
12212W        W28686   6.147   0.590  12.036 -0.0086  0.3276  0.1562
12213W        W28687  11.512   8.375  11.025 -0.1774 -0.0203  0.0795
12214W        W28688  15.497   4.722   2.382  0.1593  0.1181  0.2503
12215W        W28689  11.863   2.425  14.600 -0.0795 -0.0510  0.2369
12216W        W28690   6.495  12.125   2.505 -0.1691 -0.1567 -0.4083
12217W        W28691   4.997   9.553   2.687  0.1991 -0.1640  0.0892
12218W        W28692   0.883   7.785  12.138 -0.0626  0.4091  0.2697
12219W        W28693  13.222   3.174  10.847  0.0184  0.2309  0.5203
12220W        W28694   1.765  14.269   4.855  0.0512 -0.0143  0.2930
12221W        W28695  13.568  12.758  14.687  0.0344  0.0340  0.1004
12222W        W28696   6.026  10.437  10.766  0.0530 -0.0001 -0.2062
12223W        W28697  17.914   4.186   0.537  0.1593 -0.0325 -0.0796
12224W        W28698  15.822  14.750   2.542 -0.2092 -0.0250 -0.1004
12225W        W28699  10.925  13.963  13.045  0.0781  0.2196  0.0491
12226W        W28700   4.541   9.264   0.852  0.2230  0.1488 -0.0372
12227W        W28701  15.834  10.671   4.176 -0.0824  0.2799 -0.0015
12228W        W28702   8.496   1.840  11.659  0.0609  0.3238  0.0439
12229W        W28703  10.698   6.111  12.596 -0.1695  0.2763  0.2690
12230W        W28704   8.160   0.203   4.435 -0.0555 -0.3272  0.1356
12231W        W28705  12.233   5.218   0.055  0.0284  0.1390  0.1026
12232W        W28706   9.920   5.901   0.138  0.1902  0.2497 -0.0486
12233W        W28707  15.846   2.682  13.217 -0.1531 -0.1781  0.1153
12234W        W28708   4.209  17.221   3.471  0.0567 -0.2002  0.3674
12235W        W28709  13.410  17.539   0.027 -0.1962 -0.4481 -0.2110
12236W        W28710  18.160  10.441   9.542  0.0855 -0.2078  0.0642
12237W        W28711  19.080   1.116   2.212  0.0860 -0.2783 -0.3760
12238W        W28712   2.972   5.252  11.319  0.1708 -0.0786 -0.0869
12239W        W28713  10.974  14.281  10.383  0.0993 -0.0479  0.1287
12240W        W28714   0.530   3.105  13.448  0.3501  0.0199  0.1495
12241W        W28715   6.722   1.849   0.087  0.0394  0.0415 -0.1180
12242W        W28716  18.741  15.219   4.613 -0.2050 -0.2006 -0.1487
12243W        W28717  14.345   0.379   1.638  0.3732 -0.0484 -0.1496
12244W        W28718   8.435  13.780  10.826 -0.2387  0.0374  0.2669
12245W        W28719   1.297  14.983  13.873 -0.1133  0.0829 -0.0868
12246W        W28720  12.515  11.371  12.837 -0.3625  0.1695 -0.1564
12247W        W28721   2.780  18.406   0.855 -0.3071 -0.1432 -0.0970
12248W        W28722   6.235  18.141  14.730  0.3233  0.1330 -0.1329
12249W        W28723   2.806  10.599  14.444 -0.0350  0.1682  0.1681
12250W        W28724   9.833  17.562  14.383 -0.7356  0.0176  0.0800
12251W        W28725   8.988   6.220  11.777  0.2380 -0.0870  0.0565
12252W        W28726  18.407   9.833  10.693  0.3543 -0.0039 -0.0613
12253W        W28727  15.159  14.879   0.448 -0.0775  0.3350 -0.0650
12254W        W28728  12.126   3.764  12.967 -0.0702  0.5165 -0.3678
12255W        W28729  13.758  17.180   4.498 -0.1752 -0.1333  0.0547
12256W        W28730   5.530  10.636   1.646  0.0397 -0.0161 -0.0302
12257W        W28731  12.028  15.250  12.624  0.2266 -0.0821 -0.4542
12258W        W28732  19.112  17.766  11.669 -0.4937 -0.2289 -0.0993
12259W        W28733  15.113  16.026  13.300 -0.0616  0.1916  0.3850
12260W        W28734  12.498   1.721   2.569  0.4920 -0.0739 -0.0157
12261W        W28735  12.529   9.331   3.626  0.0787  0.2287  0.2613
12262W        W28736   4.890  12.921   0.380  0.0031  0.0449 -0.1000
12263W        W28737  12.579  18.890  11.020 -0.1058 -0.1531 -0.0435
12264W        W28738  10.848   4.641   1.971 -0.2213 -0.1542  0.0489
12265W        W28739  14.915   2.900   4.607 -0.0830 -0.0010  0.0165
12266W        W28740  17.815   3.558   0.747 -0.0217 -0.0667 -0.2920
12267W        W28741   4.991  12.723  12.467  0.3106 -0.0159 -0.1089
12268W        W28742  11.068   5.444  13.352  0.1154 -0.4942  0.0411
12269W        W28743  18.349  14.310  11.044  0.0546 -0.0033 -0.1837
12270W        W28744   0.417   9.991   4.644 -0.0990 -0.1396  0.1725
12271W        W28745  17.489   7.758   2.730 -0.0357 -0.0985 -0.1957
12272W        W28746   0.511   9.055  13.517 -0.1177 -0.1555  0.4512
12273W        W28747  18.141   2.166  11.305  0.0382 -0.0985  0.3500
12274W        W28748   5.290   1.422  13.685 -0.0734 -0.1877 -0.3107
12275W        W28749   2.747  11.091  13.601 -0.3696  0.0715  0.2392
12276W        W28750  13.646   9.372   4.601 -0.3279 -0.0249  0.1387
12277W        W28751   4.283   0.054   2.561 -0.2233  0.0313 -0.1752
12278W        W28752  18.378   1.112   1.560 -0.1411 -0.0852  0.2835
12279W        W28753   0.410  12.625   0.083  0.4326 -0.2605 -0.0432
12280W        W28754  12.157  12.002   4.599  0.1226 -0.0936  0.3161
12281W        W28755  10.012   9.301  14.859 -0.3641  0.1911  0.0554
12282W        W28756  16.599  17.834  14.643  0.1898 -0.1366  0.0561
12283W        W28757  11.906   1.796  10.988  0.1169 -0.3976  0.0594
12284W        W28758   3.277  19.138   0.288  0.0982  0.1146  0.0417
12285W        W28759   7.853   4.136  11.843  0.0742  0.4054  0.1409
12286W        W28760  14.561  17.540   0.880 -0.1479 -0.0482 -0.0822
12287W        W28761  17.995  16.132  14.380 -0.1258  0.0249  0.3279
12288W        W28762   9.380  17.333  14.285  0.0930  0.1127 -0.1526
12289W        W28763   9.855   1.861   1.128 -0.0209  0.2987 -0.2064
12290W        W28764   6.079   5.932  12.018 -0.0124 -0.1143  0.0630
12291W        W28765  10.769   1.505   4.930  0.1241  0.0706  0.2452
12292W        W28766  17.275  16.212  13.053 -0.1404  0.1257  0.2493
12293W        W28767  13.763   9.880  11.766 -0.0913  0.1129  0.2483
12294W        W28768   3.948   6.019  13.805 -0.0707 -0.2089  0.3822
12295W        W28769   3.543  16.289  11.910  0.0349 -0.1721 -0.1119
12296W        W28770  11.515   5.034   0.741  0.5341 -0.0159  0.2604
12297W        W28771   4.288  13.567   4.127 -0.1044  0.1856 -0.3354
12298W        W28772   4.561   3.673   5.679  0.1738 -0.0089  0.2104
12299W        W28773  14.138  17.428   1.447  0.2475  0.1038  0.0201
12300W        W28774   6.896   5.931   2.634  0.0322 -0.2334 -0.2954
12301W        W28775   2.204  17.773   2.743 -0.3634 -0.1062  0.0425
12302W        W28776  15.695  18.402  11.736  0.1011  0.0909 -0.1486
12303W        W28777   6.171  13.341  14.429  0.1240  0.0875 -0.1433
12304W        W28778  14.996  19.047  11.201 -0.0023 -0.2351  0.1019
12305W        W28779  14.725  15.808  13.112  0.0774 -0.0903 -0.1106
12306W        W28780   5.604  13.327   0.750 -0.0957 -0.1458  0.0863
12307W        W28781   0.562  13.792  13.700  0.1840  0.0502  0.0944
12308W        W28782   2.544   0.319   0.836  0.0587 -0.3123  0.0143
12309W        W28783   8.415   1.574  12.787  0.0243  0.0092  0.3434
12310W        W28784   2.841   1.137   0.239  0.0150  0.1452  0.0312
12311W        W28785  17.932   1.429  10.922 -0.1307 -0.0554 -0.1376
12312W        W28786   8.474   5.514   4.917  0.1514  0.1724  0.1398
12313W        W28787   4.884  13.271   3.319 -0.0419 -0.1351 -0.3708
12314W        W28788  16.317  11.099   2.257  0.3217  0.2779  0.0052
12315W        W28789  18.298  14.149  13.643  0.1248  0.2179 -0.1353
12316W        W28790  17.705  12.672   4.479  0.1243  0.1276 -0.1129
12317W        W28791  14.487  16.561  11.408 -0.3484 -0.1032 -0.1297
12318W        W28792  13.195   0.865   4.036 -0.2409  0.2310 -0.0429
12319W        W28793   7.430   8.001  14.473  0.0535 -0.1976  0.2806
12320W        W28794  15.755  10.482   1.683  0.1679  0.0604 -0.3156
12321W        W28795  15.518  17.275  13.131 -0.4096  0.2561 -0.0943
12322W        W28796   0.128  12.235  14.930 -0.1405 -0.0857 -0.2276
12323W        W28797   3.531   6.743   5.217  0.2746  0.1479 -0.1429
12324W        W28798   1.985   8.817  14.488 -0.1967  0.2653 -0.1016
12325W        W28799  18.606   5.089  12.852 -0.0047  0.1712  0.2309
12326W        W28800  10.688  17.443   4.760 -0.4588  0.3623 -0.2095
12327W        W28801  16.058  15.627   4.194 -0.0070  0.1264  0.2865
12328W        W28802   2.821   7.587  14.472  0.0618  0.0697  0.3700
12329W        W28803   9.274  15.573   5.182  0.0651  0.2991 -0.0589
12330W        W28804  10.777  14.219  11.275 -0.1377  0.0717  0.2113
12331W        W28805  14.290  12.641  13.246  0.0820 -0.0415  0.1391
12332W        W28806  17.146  13.114   0.043 -0.1457  0.1244 -0.0534
12333W        W28807   4.526  10.106   3.288 -0.1645  0.1203 -0.3681
12334W        W28808  13.086   8.811   5.368  0.2104 -0.0837 -0.1413
12335W        W28809   5.596  14.165   0.308 -0.0201 -0.1412 -0.0892
12336W        W28810   7.439  16.028  13.531  0.2693 -0.1807 -0.1442
12337W        W28811  13.104   3.507   0.660 -0.1486  0.1674 -0.0992
12338W        W28812  17.839  13.060  10.749  0.1294 -0.1945 -0.0698
12339W        W28813   9.324   6.958  14.804  0.0126 -0.3797 -0.0295
12340W        W28814  17.388  16.802   2.201 -0.0372 -0.0727 -0.0175
12341W        W28815  18.414   4.574  11.422  0.0205  0.1904  0.0336
12342W        W28816  12.398  12.425  12.333  0.0909  0.0542 -0.0179
12343W        W28817   7.688   4.424   1.685  0.2102  0.1173 -0.0781
12344W        W28818  19.102   6.828   0.174 -0.1392 -0.1427 -0.0605
12345W        W28819   1.144  15.705   2.092  0.1405  0.2467 -0.1398
12346W        W28820  14.322   8.629  11.969  0.0894 -0.2070 -0.2137
12347W        W28821   5.314   3.080  15.053  0.0410  0.1082 -0.0614
12348W        W28822  11.255  15.573   0.315  0.1460 -0.0956 -0.1992
12349W        W28823  14.073  12.598   3.229 -0.0642 -0.1809 -0.1651
12350W        W28824  18.933  12.913   1.185 -0.0847 -0.0285 -0.0617
12351W        W28825  12.691  18.978  13.479  0.0855 -0.3114  0.2189
12352W        W28826  15.573  14.376  13.676 -0.2379 -0.0986 -0.0734
12353W        W28827  14.422  13.453   4.205 -0.0774 -0.2235 -0.1630
12354W        W28828   4.220   9.451  11.075 -0.2513 -0.0084 -0.0061
12355W        W28829   5.530   4.463   0.714  0.0735  0.0761  0.3527
12356W        W28830  18.913   3.885   0.999 -0.0103  0.0585 -0.0031
12357W        W28831   9.942   8.039  14.471 -0.0888  0.2081 -0.0751
12358W        W28832  11.995  18.321   3.611  0.5082  0.1339 -0.0952
12359W        W28833  10.232  17.851   1.173 -0.0726  0.0475 -0.1765
12360W        W28834  17.847  10.397   1.157 -0.0407 -0.1188  0.0938
12361W        W28835   5.532   1.036   3.734  0.0521  0.0684  0.0903
12362W        W28836   6.251   7.737  11.397 -0.4594  0.0594  0.2425
12363W        W28837  11.865  11.813  14.618 -0.0679  0.0261 -0.0085
12364W        W28838   2.300  12.466  12.528 -0.0301 -0.0919 -0.0605
12365W        W28839  16.296  16.565   2.985  0.2920 -0.0708  0.0218
12366W        W28840   9.238   7.198  12.832 -0.2797 -0.3513  0.0898
12367W        W28841   4.151  18.655   2.996 -0.2147 -0.2559 -0.0445
12368W        W28842  14.900  10.100   0.800  0.1431  0.0885  0.1803
12369W        W28843   8.819   2.487   1.782  0.0862  0.0236  0.2323
12370W        W28844   7.875  13.171   4.428 -0.0207 -0.0080  0.1626
12371W        W28845  14.668  15.476  15.025  0.1270 -0.0508  0.0489
12372W        W28846   2.248  16.491  14.178  0.3472  0.3361 -0.1101
12373W        W28847  12.389   2.163   2.804 -0.2540 -0.1915 -0.4643
12374W        W28848   8.123  18.087   3.672  0.1015  0.1689  0.1690
12375W        W28849   2.003   3.995   3.781  0.1789  0.0972  0.0239
12376W        W28850   9.672   0.946   0.314 -0.2691  0.2172 -0.1079
12377W        W28851  12.811  13.241   2.171 -0.0388  0.1844  0.0776
12378W        W28852  15.532   7.338  11.039 -0.1718  0.0904  0.0358
12379W        W28853  18.902   9.617  10.649 -0.2768  0.2513  0.0645
12380W        W28854   6.529   9.247  11.146 -0.2289  0.0990  0.2440
12381W        W28855  12.559  12.375   1.698  0.2437 -0.0156 -0.1520
12382W        W28856  12.153  13.103   4.721 -0.1363 -0.0103  0.0497
12383W        W28857   1.483  17.981   3.219 -0.1793  0.0279  0.0939
12384W        W28858   3.468  12.247   3.068 -0.0552  0.1389  0.0061
12385W        W28859   6.543  14.159  14.038  0.0733 -0.0998 -0.4837
12386W        W28860  18.757   8.345  13.221  0.0295 -0.0218 -0.1028
12387W        W28861  17.498   1.658  13.169  0.1848 -0.0511  0.3385
12388W        W28862   6.656  15.770  14.838  0.1397  0.3833  0.0630
12389W        W28863  10.834   1.086  14.632 -0.0534 -0.2577  0.2228
12390W        W28864   2.464  18.015  11.911 -0.0145 -0.1122  0.1106
12391W        W28865  11.282   3.519  14.000 -0.0203 -0.2563  0.2497
12392W        W28866  15.962  15.051  13.174  0.1608 -0.1337  0.0473
12393W        W28867   5.235  13.640  12.578 -0.0968 -0.2692 -0.0360
12394W        W28868   9.993  12.390   4.654  0.1273 -0.0841 -0.5456
12395W        W28869   5.898   4.021   2.846 -0.3476 -0.2066  0.0646
12396W        W28870   3.500  13.929   1.607 -0.1114 -0.1339 -0.3479
12397W        W28871  15.291   8.814   2.068  0.3106 -0.0545  0.0023
12398W        W28872  16.679   7.011  12.991 -0.0605 -0.1374  0.0424
12399W        W28873   3.584   8.480  12.797  0.0283  0.2178  0.0376
12400W        W28874   0.972   3.242  13.311 -0.2740 -0.1734 -0.1302
12401W        W28875  19.007   9.757   4.692  0.2139 -0.2098 -0.0740
12402W        W28876   9.462  17.767   0.297  0.2185 -0.0779  0.2977
12403W        W28877  15.655   2.211  13.026 -0.2016 -0.3195  0.4356
12404W        W28878  13.502   2.173  13.591 -0.2006 -0.2668  0.0208
12405W        W28879   5.498  14.141  14.667  0.0967 -0.2313 -0.3389
12406W        W28880  11.206  11.738   2.390  0.0286 -0.0998  0.0535
12407W        W28881   8.473   8.387  12.154  0.1194 -0.0410 -0.2074
12408W        W28882  18.569   2.471  13.024  0.1727 -0.1943  0.1995
12409W        W28883  11.602   5.100   4.248  0.1460  0.1383 -0.1556
12410W        W28884   3.283  13.584   3.156  0.0607 -0.1778  0.0592
12411W        W28885  10.096   0.738   0.198 -0.2097  0.0796  0.1629
12412W        W28886   3.318   0.415   4.136  0.1266 -0.3276 -0.0450
12413W        W28887   3.631  10.079   9.442 -0.2007  0.0588 -0.2102
12414W        W28888  17.895   6.883  12.961  0.1449 -0.0035 -0.1371
12415W        W28889   4.427  16.537  12.265 -0.0054  0.0574 -0.3249
12416W        W28890   6.751   1.882  11.434  0.1835 -0.0980 -0.0318
12417W        W28891  13.572   8.728   0.832 -0.3261  0.3540 -0.3238
12418W        W28892  17.481  16.858  11.753 -0.1290  0.0389  0.0062
12419W        W28893  16.826  13.750   3.188 -0.2452  0.1259  0.0758
12420W        W28894  13.400   3.251   4.016 -0.1533  0.0374 -0.2179
12421W        W28895   8.596   6.487  14.747 -0.2878  0.1022 -0.0635
12422W        W28896   8.552   7.660   2.343 -0.3339 -0.2562 -0.0022
12423W        W28897  13.423   5.943  14.187  0.4744  0.4578  0.0173
12424W        W28898  15.051   6.476   5.029  0.1898 -0.0442  0.1837
12425W        W28899  11.622  10.950  14.610 -0.3256 -0.0360 -0.0131
12426W        W28900   7.202   6.798   5.663 -0.0390  0.0516 -0.2156
12427W        W28901  11.619   7.932   1.565  0.0655 -0.0552 -0.2102
12428W        W28902   7.905  16.657   4.562 -0.0094 -0.0633  0.2024
12429W        W28903  17.415  11.941  13.915 -0.2871 -0.3565  0.0313
12430W        W28904  13.200  11.085  12.765  0.3084 -0.1627  0.0462
12431W        W28905   9.884   6.695  11.146  0.1171  0.1039 -0.0274
12432W        W28906   6.972   9.389  13.613  0.4288 -0.1911 -0.1805
12433W        W28907   2.209  10.093   3.000  0.1619  0.1103  0.0192
12434W        W28908   8.656  14.231   3.009 -0.1023 -0.0176 -0.1743
12435W        W28909   8.726  11.002  12.968  0.1354 -0.1819 -0.2184
12436W        W28910   5.248  15.038   3.519 -0.2466  0.1359  0.0909
12437W        W28911   6.926  18.899  11.304  0.5179  0.0286 -0.2185
12438W        W28912   8.994  12.169  11.426  0.1549 -0.1558  0.1964
12439W        W28913   4.221  10.192  12.033 -0.1377 -0.2864  0.1046
12440W        W28914   1.568  16.774   6.203  0.3949  0.0125  0.1593
12441W        W28915   0.529   5.783  13.843 -0.0883  0.0136 -0.0026
12442W        W28916  17.751   1.119  12.374 -0.1613  0.2020  0.2157
12443W        W28917   6.906   8.224  13.269  0.1300 -0.1940  0.0368
12444W        W28918  10.676  14.415   1.244 -0.0577  0.1434 -0.2007
12445W        W28919  17.240   4.753  10.890 -0.1553 -0.4701  0.1201
12446W        W28920   8.406   4.079  13.458 -0.0630  0.1485 -0.0313
12447W        W28921   7.834  14.106   1.298  0.0226 -0.3100 -0.1777
12448W        W28922   5.550  17.437   2.527 -0.0875  0.0985 -0.0430
12449W        W28923   1.833   2.239  13.499  0.1184 -0.2584  0.0818
12450W        W28924   4.897   4.966  11.584  0.1529 -0.0927  0.0065
12451W        W28925   1.944  17.574  13.567  0.1071  0.0443  0.1657
12452W        W28926  14.092   6.798   1.899 -0.2183  0.3203 -0.0039
12453W        W28927  17.602  18.069   5.389 -0.0453  0.1062  0.4067
12454W        W28928   4.228  14.897  13.958  0.1317 -0.0003 -0.2573
12455W        W28929   0.071  15.439   1.242  0.2896  0.0808 -0.1316
12456W        W28930   0.018  12.147   4.336 -0.2707  0.1386  0.1727
12457W        W28931   8.427   4.806   4.089  0.0486  0.0713 -0.0337
12458W        W28932  18.744   4.519   0.617  0.2809 -0.0031 -0.0299
12459W        W28933  13.604   5.259   3.708 -0.0199  0.0798 -0.0647
12460W        W28934   5.349   1.748  14.842  0.0210 -0.0497  0.0384
12461W        W28935  11.257  10.102   3.810 -0.3048 -0.0105  0.1499
12462W        W28936   9.571  13.163   0.768  0.3368 -0.1368  0.0769
12463W        W28937   8.433   2.228  12.600  0.0926 -0.2230  0.0448
12464W        W28938  11.241   5.103  14.898  0.0659  0.2081 -0.0651
12465W        W28939  17.187   3.670  10.660 -0.1273 -0.0781 -0.1686
12466W        W28940  15.104  10.832  14.018  0.1877  0.1518 -0.0977
12467W        W28941  12.777  11.382   1.441 -0.2250  0.0581  0.1016
12468W        W28942   0.972   8.664   0.664 -0.0679 -0.1833 -0.1854
12469W        W28943   8.358  15.868  13.009  0.0156 -0.3466 -0.0324
12470W        W28944  18.526  18.548  10.982  0.2740 -0.3829  0.2464
12471W        W28945   7.934   6.572  13.517  0.1667 -0.0184 -0.1559
12472W        W28946   2.649  11.027  14.208 -0.5283 -0.2615  0.3288
12473W        W28947  18.668  17.512  14.757 -0.0659  0.1538  0.0397
12474W        W28948   8.916   5.110   4.889 -0.1125  0.3238 -0.0522
12475W        W28949  12.163  18.802   0.888  0.0360 -0.0326 -0.0220
12476W        W28950  14.453   0.201  12.431 -0.2403 -0.2605  0.1342
12477W        W28951  12.541  12.158  11.269  0.0103 -0.2008 -0.3453
12478W        W28952  13.589  10.629   2.234  0.3127 -0.4044 -0.0533
12479W        W28953   7.655  13.100   0.776 -0.1135  0.2492 -0.1702
12480W        W28954   0.921   7.295  11.309 -0.0701 -0.1862 -0.0448
12481W        W28955  15.009   0.508   4.035 -0.0862 -0.2643 -0.0292
12482W        W28956  17.105   5.525  11.405 -0.1109 -0.1084  0.0121
12483W        W28957  17.228  18.411  11.640 -0.0292 -0.1114  0.1431
12484W        W28958   6.517   1.462   5.135  0.1065  0.1320  0.0792
12485W        W28959  17.767   8.545  12.712  0.0702  0.0190 -0.0704
12486W        W28960   8.248   9.802   4.276  0.3576 -0.2333 -0.1731
12487W        W28961   7.010  14.490  14.419 -0.0841 -0.1065  0.2042
12488W        W28962   4.419  17.182  12.771  0.1828  0.2169 -0.4920
12489W        W28963   2.864   4.836   0.431 -0.1332  0.2470 -0.1031
12490W        W28964  12.039  11.068  12.827 -0.1874  0.0334  0.0806
12491W        W28965   4.012  16.372  12.137  0.2303 -0.0562 -0.1396
12492W        W28966   1.240  17.357  12.157 -0.0127 -0.1147 -0.4973
12493W        W28967  13.731   9.857   2.419  0.1043 -0.3964  0.1530
12494W        W28968   8.144   2.799  14.563  0.1588  0.3541  0.0167
12495W        W28969   4.982  17.076   0.381 -0.0128 -0.0993  0.0242
12496W        W28970  17.246   3.714  15.102  0.0128  0.0243  0.2562
12497W        W28971   1.505   0.806   1.263 -0.0145  0.2949 -0.0525
12498W        W28972   6.745   2.345  12.294  0.0502 -0.2381  0.1692
12499W        W28973   8.488  10.427  10.241 -0.1133  0.1369  0.2586
12500W        W28974   2.609  16.553  12.103 -0.1393  0.0958 -0.0359
12501W        W28975   2.126  17.645   5.981  0.0105 -0.1580  0.2837
12502W        W28976   9.317   0.928   2.679 -0.3502  0.0804 -0.0571
12503W        W28977  13.545  11.142   2.269 -0.0388  0.3322  0.1420
12504W        W28978  15.326   8.060   1.101 -0.0683  0.2021  0.0299
12505W        W28979   7.311   0.603   0.415  0.0714  0.0269  0.1803
12506W        W28980  13.231  13.781   2.998 -0.1505  0.1705  0.0393
12507W        W28981  14.423   5.488   4.721  0.0036  0.0399  0.2244
12508W        W28982   5.411  18.847   1.659 -0.1297  0.2731  0.0735
12509W        W28983   3.138   7.079  10.876 -0.3054 -0.0329  0.1406
12510W        W28984   8.487   1.674   3.927 -0.3465  0.0954 -0.0674
12511W        W28985  12.967   9.846  14.849  0.1220  0.1385 -0.2826
12512W        W28986   2.438  10.706  10.641  0.1480 -0.1072 -0.2514
12513W        W28987  13.053   9.955  13.266 -0.2445 -0.2714  0.0902
12514W        W28988  16.648  17.715   3.453 -0.2841  0.1120  0.0638
12515W        W28989   0.895   0.839  10.728  0.3734  0.0069  0.0183
12516W        W28990   6.910   5.008   2.828 -0.1746 -0.0830  0.1553
12517W        W28991  16.019   6.328  10.460 -0.2710  0.1525 -0.1679
12518W        W28992   7.894   0.097   1.790 -0.1294  0.0701 -0.0484
12519W        W28993   5.615   5.525   1.518  0.0955  0.1933  0.1798
12520W        W28994   9.098  10.801  11.280 -0.0218  0.3983  0.1238
12521W        W28995   5.284   7.018  14.095 -0.2700  0.1155  0.2109
12522W        W28996   4.148  16.311  11.018  0.1441 -0.3191  0.0849
12523W        W28997  13.074  12.021  12.494 -0.1913 -0.0581 -0.0713
12524W        W28998  18.902   9.847  12.203 -0.4406 -0.3521 -0.0368
12525W        W28999   9.451   6.812  11.956  0.3741 -0.0044 -0.2302
12526W        W29000  14.670   2.539   5.345 -0.0913  0.1497  0.0967
12527W        W29001   7.455  17.852   4.176  0.2240 -0.0428  0.2329
12528W        W29002  15.597   0.965   2.174  0.2362  0.0672 -0.0124
12529W        W29003  12.829   9.030   4.972  0.1895  0.0756  0.1940
12530W        W29004   2.649   5.315  15.144 -0.0281  0.1666  0.0366
12531W        W29005  10.670   2.556  14.124  0.2648  0.1485  0.3523
12532W        W29006  15.463   0.191  12.443 -0.0728 -0.0707  0.0589
12533W        W29007  19.112  14.393   1.355 -0.2554 -0.0482  0.1182
12534W        W29008   8.928   3.445  14.620 -0.1106  0.0158  0.2117
12535W        W29009  14.963  17.660  10.598 -0.2573  0.0390 -0.0001
12536W        W29010  12.001  18.855  12.841  0.0888 -0.2793  0.0112
12537W        W29011   2.155  14.970  14.959 -0.1622  0.1461 -0.1660
12538W        W29012   3.616   7.023   2.028 -0.3018 -0.1219 -0.1260
12539W        W29013  18.100   2.440   0.961  0.1523  0.0083 -0.0984
12540W        W29014  12.594   7.438  14.070  0.0375 -0.0429 -0.0161
12541W        W29015   7.270   9.903  12.621  0.0665 -0.2452 -0.0454
12542W        W29016  14.265   7.657  13.298  0.1557 -0.1681 -0.0101
12543W        W29017   5.479  18.870   0.666  0.0705  0.0485 -0.2994
12544W        W29018  10.707   4.672   4.490 -0.2339  0.4440 -0.0209
12545W        W29019   5.478   0.522  13.101  0.1564 -0.0916  0.2428
12546W        W29020   4.230   7.508  14.193  0.1442  0.1089  0.2813
12547W        W29021   5.544   0.562  14.553 -0.0504  0.2051 -0.4371
12548W        W29022  18.654   9.102   1.423 -0.0850 -0.0979  0.0434
12549W        W29023   2.480   7.678   3.252 -0.2911 -0.1490 -0.2848
12550W        W29024  17.589  11.089   4.354 -0.2281  0.0615 -0.3950
12551W        W29025   1.328   3.827   1.417 -0.2719  0.2492 -0.0752
12552W        W29026   1.599  17.489  14.598  0.0669 -0.1148  0.1415
12553W        W29027   4.155  10.051  11.594 -0.1351  0.1614 -0.2969
12554W        W29028  18.001  16.003  11.858 -0.1796  0.2270  0.2303
12555W        W29029  14.511   3.131   2.558  0.0322  0.0309  0.1941
12556W        W29030   4.971  11.033  14.419  0.2152 -0.1541  0.1417
12557W        W29031   5.755   3.789  14.036  0.0697  0.1353  0.0816
12558W        W29032  15.267  11.075   4.735  0.3616  0.0610  0.0920
12559W        W29033   1.813  17.759   4.005 -0.0309  0.0605  0.0512
12560W        W29034  16.815   1.326  12.395 -0.0730  0.1822  0.3690
12561W        W29035  11.707  17.059  13.653 -0.1080  0.1754 -0.0397
12562W        W29036  15.580   2.927  10.968 -0.0015 -0.3882 -0.0673
12563W        W29037   4.099  17.601  10.323 -0.0839 -0.0673 -0.1005
12564W        W29038  17.284  11.724  12.492  0.0014  0.0066  0.0406
12565W        W29039   6.720  17.835  13.157  0.0156 -0.0353  0.4029
12566W        W29040   4.720   8.014   1.083  0.1161  0.0028  0.0037
12567W        W29041   7.148   7.708   1.827 -0.0916 -0.3823  0.2970
12568W        W29042   1.687  14.997   0.742 -0.1026  0.0037 -0.7049
12569W        W29043  12.267   2.023  11.890 -0.1942  0.0809 -0.1199
12570W        W29044   3.107   9.955  14.431  0.1142  0.1788  0.1422
12571W        W29045  10.290  11.105   0.650  0.1753  0.2932 -0.0978
12572W        W29046  16.021   5.848  12.830 -0.2358  0.0481  0.1145
12573W        W29047   1.513   0.564   0.384  0.1387 -0.0787 -0.4041
12574W        W29048   3.116  12.732   2.273 -0.2064 -0.1106  0.1047
12575W        W29049  15.197  18.106   9.454  0.2795 -0.2549  0.0100
12576W        W29050   0.827   1.022   0.865 -0.0681 -0.0698  0.1673
12577W        W29051  15.789   4.958  14.977 -0.3025  0.2989  0.2807
12578W        W29052   3.904   6.310  12.884  0.2696  0.0071  0.1908
12579W        W29053  18.657  15.613  14.763  0.0646  0.0799 -0.0186
12580W        W29054  18.879   3.022  15.126  0.0145 -0.1428  0.3312
12581W        W29055  13.968   1.879  10.452  0.0406  0.1107 -0.0519
12582W        W29056   1.690  17.823  13.914  0.1375 -0.0685 -0.1215
12583W        W29057   6.480  12.520  12.409 -0.0925  0.3513  0.2099
12584W        W29058  15.091   5.443   1.824  0.0923  0.0289 -0.2613
12585W        W29059  11.228   3.700   0.563 -0.4010 -0.3329  0.1375
12586W        W29060  13.866   5.167  10.744 -0.2471 -0.3350  0.1946
12587W        W29061   8.829  18.346   3.362  0.1467  0.0590  0.1683
12588W        W29062  11.795   2.811   4.859  0.0949  0.2257 -0.1996
12589W        W29063   0.045   5.504   0.280 -0.1267 -0.0876  0.0232
12590W        W29064  18.497  18.600   0.094  0.3289  0.0696 -0.1192
12591W        W29065  15.665  11.167   4.174  0.0358  0.1543  0.2046
12592W        W29066  18.593  13.257  13.752  0.2582  0.0399  0.0951
12593W        W29067  15.082   4.627  10.606 -0.0465  0.0054  0.2259
12594W        W29068   9.515  17.985   2.076  0.0019  0.4315  0.1664
12595W        W29069   2.015   6.023   4.769 -0.2624 -0.3467 -0.0059
12596W        W29070   6.688  12.179  10.682 -0.1601 -0.2230 -0.0983
12597W        W29071  13.838   9.847  12.764  0.4302 -0.0786  0.2212
12598W        W29072   7.114   7.964  10.856  0.0850 -0.1092 -0.0079
12599W        W29073  18.840  17.092  11.794  0.2715  0.0236  0.3198
12600W        W29074   3.713   6.199  10.052 -0.1799 -0.1129 -0.0478
12601W        W29075   5.299  15.452   1.029 -0.2063 -0.1869  0.0678
12602W        W29076   9.700  13.206  13.957 -0.1705  0.2000 -0.3293
12603W        W29077  17.439   0.472   0.459  0.0729  0.1564  0.1627
12604W        W29078   8.855  16.901  12.010  0.0812  0.1688 -0.0185
12605W        W29079   8.945   5.467  12.139 -0.0070 -0.1063 -0.0731
12606W        W29080   0.518   6.742   0.055  0.0028  0.3553 -0.0626
12607W        W29081   0.237   9.235  11.343  0.1405  0.1585 -0.1739
12608W        W29082  13.209  10.420  13.426 -0.0929  0.0720  0.0584
12609W        W29083   3.352  17.622  13.416  0.0712 -0.2205 -0.1090
12610W        W29084  11.490   3.800  14.415 -0.1703 -0.1799  0.0238
12611W        W29085  14.746   5.275  11.140 -0.0771  0.2048  0.1026
12612W        W29086   3.897   7.878  14.478  0.2436  0.1234  0.1587
12613W        W29087   1.035  14.959  11.069 -0.1630 -0.0418  0.0668
12614W        W29088  15.198   1.922   1.075  0.0893  0.1135  0.2741
12615W        W29089   2.993  17.583  12.521  0.2479 -0.0411  0.0380
12616W        W29090   3.021  16.316  13.028  0.1722  0.0280  0.1610
12617W        W29091   4.839   4.250   1.027 -0.0149 -0.2117 -0.2123
12618W        W29092   8.279   8.355   1.900  0.1779 -0.0006  0.0396
12619W        W29093  15.440   3.161   4.807 -0.0507 -0.0876 -0.2344
12620W        W29094   5.596   4.206   2.445  0.3413  0.0657 -0.5392
12621W        W29095   5.635  13.268  14.495 -0.2379  0.2957 -0.1380
12622W        W29096  12.087   1.141  10.694  0.0276 -0.0374  0.1507
12623W        W29097   4.237  14.602  13.465  0.0307  0.0804  0.4165
12624W        W29098  18.128   7.752  11.429  0.3306  0.2606  0.0582
12625W        W29099  10.669   5.721   5.700 -0.0153  0.1284  0.1117
12626W        W29100   5.811   1.438   2.738  0.0828 -0.2268  0.0916
12627W        W29101  14.209  14.141  14.064  0.3200 -0.0241  0.1094
12628W        W29102   4.311  15.727   3.013 -0.0268 -0.1606  0.3075
12629W        W29103   7.117   1.421  10.578 -0.0476  0.0107  0.0937
12630W        W29104   7.227  10.190   3.968 -0.1381 -0.4446 -0.0809
12631W        W29105  10.909  14.630   2.882 -0.3112  0.2059  0.3615
12632W        W29106   1.691  13.766  13.989 -0.1256 -0.1316 -0.2367
12633W        W29107   0.868   8.048  10.479 -0.0243 -0.2602 -0.1822
12634W        W29108   2.486   5.486   3.125 -0.1498 -0.2038 -0.1642
12635W        W29109  14.912   3.891   4.913  0.0349  0.3661  0.4215
12636W        W29110  15.727  15.705   3.794  0.2842  0.1568 -0.0333
12637W        W29111   1.991   1.041   5.014 -0.0057  0.1540  0.0725
12638W        W29112  18.836   9.812  13.721 -0.2434  0.1607 -0.3263
12639W        W29113   0.550  15.211   1.394 -0.2613  0.2952 -0.2679
12640W        W29114  17.953  11.620   2.818 -0.0697  0.1558 -0.2134
12641W        W29115  10.048  13.917   4.704 -0.1473  0.2361  0.3213
12642W        W29116   8.027   3.597   2.139  0.1839 -0.1326  0.1126
12643W        W29117  15.610   9.573   3.961  0.0489 -0.1029 -0.1550
12644W        W29118  16.321  18.717  14.548  0.1514  0.0629  0.0639
12645W        W29119   5.105  12.638  11.105 -0.1697  0.3645  0.2172
12646W        W29120   9.134   4.860  13.744  0.1155  0.0181  0.0559
12647W        W29121   6.761   8.570  10.047 -0.1924 -0.2779 -0.0315
12648W        W29122  18.425  17.280   1.302 -0.0933  0.1053 -0.5599
12649W        W29123   0.253  12.464   2.118 -0.0271  0.1222  0.0775
12650W        W29124   2.079  17.368  14.667  0.1091 -0.0962 -0.1676
12651W        W29125   7.649   4.549  13.508  0.1773 -0.0065 -0.1024
12652W        W29126   8.737   8.883   5.433  0.0720 -0.1600 -0.1113
12653W        W29127   7.611   7.590  14.722  0.1811 -0.0968 -0.3293
12654W        W29128  18.832  12.832   3.731 -0.2747 -0.0593 -0.2258
12655W        W29129  10.056   3.414   4.153  0.0870 -0.2361  0.1008
12656W        W29130   8.839   0.406   3.269  0.3775 -0.0296  0.0585
12657W        W29131  10.488  17.043  10.620  0.1536  0.1088  0.0500
12658W        W29132   3.956  12.791   1.250 -0.3832 -0.1366 -0.0197
12659W        W29133  15.796  17.145   1.810 -0.1436  0.1044 -0.0574
12660W        W29134   4.263   8.118  10.526  0.0051  0.3052 -0.1255
12661W        W29135   3.507  10.348  13.703  0.2835 -0.3716 -0.0599
12662W        W29136   7.173   3.420  11.196  0.0334  0.2714  0.1092
12663W        W29137  11.850  14.005  11.092  0.1738 -0.0097  0.1930
12664W        W29138   8.465  13.555   4.321 -0.2307  0.2594  0.0037
12665W        W29139  13.712  18.249  11.402 -0.0038  0.0154  0.0878
12666W        W29140  16.635   1.639   0.979  0.0682 -0.1984  0.0746
12667W        W29141   9.877   4.034  13.438 -0.1838 -0.0918 -0.1907
12668W        W29142  12.717  14.695   2.987 -0.1622 -0.0540 -0.1231
12669W        W29143   5.903   8.891   3.853 -0.2122 -0.1182 -0.1008
12670W        W29144  18.511   1.041  13.080  0.0383  0.0420  0.3263
12671W        W29145  11.654   5.174  12.719 -0.0487  0.4430 -0.1705
12672W        W29146  12.661   8.506   4.753 -0.0226  0.1985  0.2044
12673W        W29147  13.831  15.171  14.645  0.0342 -0.3631  0.0730
12674W        W29148  14.673   0.891   0.125  0.4000  0.1282  0.1391
12675W        W29149  19.071  13.913   1.209  0.0409  0.0492 -0.1358
12676W        W29150  15.005   9.230   4.655 -0.0043 -0.1006  0.0945
12677W        W29151  15.122  11.711  12.134 -0.0184  0.3060 -0.1800
12678W        W29152   2.394  14.708  10.126  0.4896  0.0709 -0.1493
12679W        W29153  15.682  10.878   0.709  0.0852 -0.0365  0.0922
12680W        W29154   5.810   4.633  12.338 -0.3484  0.0819  0.0751
12681W        W29155  14.998  13.128  13.756  0.1479 -0.0693 -0.1362
12682W        W29156  14.944   8.795  11.228 -0.1505 -0.1760 -0.1470
12683W        W29157  12.955   8.230  11.347  0.0132 -0.2485 -0.4173
12684W        W29158   7.329  10.364  11.166 -0.0010  0.1545  0.1272
12685W        W29159  18.228   7.064  14.843 -0.2930 -0.2421 -0.3170
12686W        W29160   6.678  16.193  10.896  0.2011 -0.2451 -0.1870
12687W        W29161  16.687  11.621   4.406  0.2600  0.0144 -0.0711
12688W        W29162  16.751   4.693  10.788  0.0028 -0.0246  0.1032
12689W        W29163   0.136   2.250   1.845 -0.0946 -0.0241  0.1348
12690W        W29164   7.796  12.069  14.189  0.0584 -0.0158  0.5183
12691W        W29165  10.103   1.369  10.629 -0.1875 -0.1350 -0.0102
12692W        W29166   5.744   1.773   4.707 -0.2061  0.3374 -0.1681
12693W        W29167  15.070   7.648  13.894 -0.0292  0.4682 -0.2098
12694W        W29168   2.471  16.006   5.014  0.0465 -0.0712 -0.0801
12695W        W29169   7.752   7.925   4.881  0.1236  0.0153 -0.0613
12696W        W29170   4.675   3.737  14.872 -0.0794 -0.2208 -0.0609
12697W        W29171   1.247   6.034   1.815  0.0371 -0.3534  0.1688
12698W        W29172  13.359   9.895   5.053 -0.0134  0.1200  0.2047
12699W        W29173  12.517   5.069  10.531 -0.0756  0.0510 -0.2007
12700W        W29174   9.336   8.416   4.287  0.2873  0.1268 -0.2132
12701W        W29175  11.594   4.295  10.043  0.0707 -0.2649  0.0263
12702W        W29176   4.921  14.377   2.318 -0.0040  0.2385  0.2186
12703W        W29177  17.491  13.022   3.056 -0.0291 -0.0328  0.0047
12704W        W29178  15.248  16.932  14.203  0.1001  0.1891 -0.0962
12705W        W29179  10.055   1.484  13.994 -0.0626 -0.1756 -0.1003
12706W        W29180   6.367  10.317   3.505  0.3222  0.1637  0.1842
12707W        W29181  10.136  10.337  14.355  0.2003 -0.1527 -0.0945
12708W        W29182  16.406  11.446   0.597 -0.2947 -0.2545  0.1156
12709W        W29183  17.689   7.350   0.170 -0.2113 -0.0887  0.0521
12710W        W29184  18.963  18.168   5.012 -0.6025  0.0033 -0.1744
12711W        W29185  15.288   5.366   4.373 -0.1533  0.2024 -0.0853
12712W        W29186   3.057  13.024  12.561 -0.0316  0.1697 -0.2997
12713W        W29187   8.814   9.420   0.354  0.0311 -0.2116 -0.2198
12714W        W29188  16.513   1.485   0.004 -0.2414  0.0203  0.0599
12715W        W29189   1.550   6.329   5.461 -0.2436 -0.1473 -0.1646
12716W        W29190  16.871   8.731   3.747  0.1878 -0.0048 -0.0722
12717W        W29191  14.146   4.208  15.018 -0.1749  0.1888 -0.1874
12718W        W29192  11.644  18.366  12.007  0.2995  0.2675 -0.1318
12719W        W29193  15.925  17.486   5.577 -0.0596 -0.1252  0.0259
12720W        W29194  13.578  16.741   1.447 -0.3454 -0.0432 -0.1773
12721W        W29195   4.013  17.844   1.285  0.3733 -0.0826  0.3936
12722W        W29196   7.672  16.131   4.288  0.2306 -0.2963 -0.1771
12723W        W29197  15.925   6.786  14.468 -0.0968  0.0573  0.3426
12724W        W29198   9.909   5.336  11.764  0.0179  0.2169 -0.0150
12725W        W29199   5.553   1.896   2.669 -0.1729  0.2775 -0.0044
12726W        W29200  17.540   9.645   5.349  0.2158  0.0041 -0.0267
12727W        W29201   1.997  18.101   5.700  0.4071 -0.0985 -0.2196
12728W        W29202  17.702   9.824   4.817  0.0834 -0.1582 -0.0721
12729W        W29203   0.055   0.124   2.942  0.0067  0.2816  0.1335
12730W        W29204   6.817   8.113   0.130  0.1806 -0.1638  0.0237
12731W        W29205  12.730  10.907  12.726 -0.1891 -0.1197 -0.0952
12732W        W29206   0.234   1.712   1.041 -0.0481 -0.1962 -0.0104
12733W        W29207  12.352  14.267   3.549  0.2033  0.2819 -0.2499
12734W        W29208   2.709   5.721  12.120  0.0126 -0.3211 -0.1070
12735W        W29209   3.820   0.007   6.081  0.0730 -0.4117 -0.3287
12736W        W29210   1.480   0.846   4.722  0.5370  0.0317  0.0505
12737W        W29211   8.674   1.989  11.150  0.2452 -0.1290 -0.2256
12738W        W29212  12.161  18.587   4.914  0.1997  0.1373 -0.2247
12739W        W29213   8.603  13.331   1.460  0.1911  0.0599 -0.2650
12740W        W29214  14.791   7.114  10.440  0.0651 -0.0553 -0.0297
12741W        W29215   9.683  17.268  14.699 -0.0364 -0.0188  0.0127
12742W        W29216   2.578   6.445  12.558 -0.1030  0.1104 -0.3577
12743W        W29217   3.476   2.524  13.852  0.2554  0.3130  0.0028
12744W        W29218   9.492   7.583   0.404 -0.1849 -0.0937 -0.1747
12745W        W29219   5.425   1.694   3.132  0.0249  0.0186 -0.1158
12746W        W29220   7.897   3.434  12.626 -0.1286  0.0986 -0.2311
12747W        W29221  10.307   3.118   3.763 -0.1091 -0.0373  0.0747
12748W        W29222  17.514  10.749   3.071 -0.1542 -0.2507  0.1279
12749W        W29223   8.914  18.380   1.720 -0.0147 -0.1154  0.1379
12750W        W29224  15.711  15.088   5.346  0.1538 -0.2404 -0.0988
12751W        W29225   7.809   8.349  14.405 -0.1317 -0.2058  0.0318
12752W        W29226   6.487  17.079   1.620  0.0697  0.0616 -0.1073
12753W        W29227   8.040   5.170  12.122 -0.0295  0.4130 -0.0137
12754W        W29228   0.872  14.191   2.310  0.0354  0.0704 -0.0867
12755W        W29229   8.195  16.380  12.963 -0.2120 -0.1376  0.1598
12756W        W29230  10.736   0.955  14.182 -0.0162 -0.1990  0.1192
12757W        W29231   6.056  11.753   0.002  0.2220  0.1420 -0.0930
12758W        W29232   7.561  14.107  13.582  0.1006 -0.1701 -0.3020
12759W        W29233  14.282   5.719   1.803  0.0125  0.0617  0.4392
12760W        W29234   8.164   7.208   0.856 -0.1876  0.0680  0.2176
12761W        W29235  10.935   8.241   9.791 -0.0058  0.2030  0.3895
12762W        W29236  15.848   1.287  14.040  0.0546  0.0517 -0.0128
12763W        W29237   5.201   7.586  12.622  0.1065  0.2504 -0.2387
12764W        W29238  17.283   2.749  15.034 -0.0124 -0.0818  0.2023
12765W        W29239   8.910  14.802   0.942 -0.2483  0.1161  0.1230
12766W        W29240  14.061  11.048  12.623 -0.2052  0.3786 -0.3133
12767W        W29241  10.379  12.407  12.448 -0.3901  0.1177 -0.2456
12768W        W29242   4.322  12.152  13.695 -0.3111 -0.1439 -0.2976
12769W        W29243  18.494   0.968   4.542  0.2333  0.4028 -0.0188
12770W        W29244  14.002   9.831   2.943 -0.0778 -0.3329  0.0956
12771W        W29245   8.541  10.177   5.126  0.0951  0.0592  0.1671
12772W        W29246  16.000   0.722   0.134 -0.0008 -0.1840  0.2174
12773W        W29247  10.454   7.711  10.650 -0.1474 -0.2281  0.2185
12774W        W29248   5.953  18.792  11.946  0.0002  0.2435  0.0143
12775W        W29249  17.014   7.979   0.423  0.0373  0.1594  0.0923
12776W        W29250  16.929   7.008   2.654  0.0205 -0.2244 -0.0960
12777W        W29251  16.852   7.411  12.502  0.0931 -0.2080 -0.1049
12778W        W29252   8.823  13.197  11.372  0.1759 -0.0882 -0.0810
12779W        W29253   8.404   9.019  14.035 -0.2105  0.3886 -0.1079
12780W        W29254  12.983   0.798  14.331  0.0782 -0.0542 -0.0053
12781W        W29255   8.643   7.412   0.564 -0.0985 -0.2202  0.1560
12782W        W29256   6.685  16.509   0.228  0.0407 -0.0864  0.1821
12783W        W29257   9.213  15.016   4.618  0.2125  0.5935 -0.1447
12784W        W29258   8.387   3.913   3.962 -0.1303 -0.2328 -0.0186
12785W        W29259   1.390  13.206  13.629 -0.1626  0.2271 -0.0079
12786W        W29260  14.813   6.879   4.210  0.1827  0.0171 -0.0452
12787W        W29261   9.567  18.957  10.206  0.0830  0.0205  0.2665
12788W        W29262  18.439   1.838   0.085  0.0606  0.1348  0.0468
12789W        W29263   0.736  19.024  14.838  0.0585  0.1648 -0.1808
12790W        W29264   3.943   1.579   1.075  0.0817  0.0471 -0.1027
12791W        W29265  18.120   9.840   2.880  0.2072  0.0726 -0.0431
12792W        W29266  10.174  16.010  13.956  0.1560  0.2851  0.1167
12793W        W29267  13.755   7.796   0.437  0.0634  0.0462 -0.0100
12794W        W29268  11.569  13.929   4.832  0.0746  0.0948 -0.0618
12795W        W29269  11.205   0.625   2.554  0.0594  0.0172  0.0441
12796W        W29270  17.047  16.198   5.057  0.0596 -0.0959  0.1238
12797W        W29271  16.357   1.703   3.412  0.1013  0.1472 -0.1762
12798W        W29272  17.911  14.404   2.239 -0.0972  0.1198  0.1945
12799W        W29273   5.927   8.479   3.522  0.0723  0.1199 -0.2046
12800W        W29274   9.060   8.138  15.017 -0.0459  0.0097  0.0730
12801W        W29275  14.867   4.315  14.193  0.1225 -0.0141  0.0473
12802W        W29276   3.494  15.846  13.866 -0.0666  0.0607  0.0791
12803W        W29277  16.379  14.027   3.025  0.0086  0.4560  0.0179
12804W        W29278   7.378   5.754   3.910 -0.0294 -0.0689  0.0113
12805W        W29279   5.142   3.591   4.504  0.2456  0.1666  0.1667
12806W        W29280  12.546   5.979   0.657 -0.1382 -0.2133  0.0187
12807W        W29281  10.984  18.417   4.399 -0.2388  0.1343 -0.2833
12808W        W29282  14.152  18.087  12.153  0.1659 -0.4296 -0.3080
12809W        W29283   4.392  14.234   2.418  0.0902  0.0369  0.1194
12810W        W29284   4.899  12.646   0.794  0.1269 -0.2197  0.5288
12811W        W29285   8.115  16.152   4.747 -0.2638 -0.3208 -0.0214
12812W        W29286   9.177  13.584  10.395 -0.2173  0.1381 -0.3176
12813W        W29287  12.432  10.137  12.094  0.0436 -0.1197 -0.1529
12814W        W29288  18.273   0.669  11.526  0.1848  0.2814  0.0988
12815W        W29289  18.965  10.536  12.617 -0.0065 -0.2211 -0.4564
12816W        W29290  14.581   0.813   4.986 -0.0391  0.1068 -0.0942
12817W        W29291   9.697   8.779  12.994  0.0277 -0.1777  0.0225
12818W        W29292  16.579  19.011   4.605 -0.1302  0.1998  0.0287
12819W        W29293   8.939   6.439   4.192 -0.2015  0.4270 -0.0104
12820W        W29294  15.491  10.702   5.003 -0.0465 -0.2936  0.2433
12821W        W29295  17.208  16.775   0.175  0.4209  0.0365  0.0274
12822W        W29296  10.623  17.032  12.909  0.0163 -0.1106  0.2111
12823W        W29297   8.230  11.730  13.111  0.0825  0.1214 -0.0734
12824W        W29298  11.398   9.997  13.614  0.3588  0.5465  0.3823
12825W        W29299   6.213  11.239   0.023  0.1439  0.1563 -0.1039
12826W        W29300  16.804  18.218   1.636  0.1315  0.0446 -0.0868
12827W        W29301  14.383  15.830   1.275  0.2134  0.0667  0.0274
12828W        W29302   0.925  12.249   5.228 -0.0130  0.2979 -0.1621
12829W        W29303  16.186  17.163   1.028  0.5383  0.1077  0.0838
12830W        W29304   4.884  18.084   2.928 -0.0660  0.2882  0.2025
12831W        W29305  16.282   1.601   9.822  0.0961  0.1227 -0.1493
12832W        W29306  16.718  15.304  13.367 -0.0879 -0.2543 -0.0282
12833W        W29307   8.651  18.763  10.955 -0.4059  0.2380 -0.0598
12834W        W29308  13.330   9.421   3.027  0.1249  0.0468 -0.1811
12835W        W29309  12.584  12.139   4.844  0.2786  0.2839 -0.0739
12836W        W29310  15.101  16.174   4.458  0.0260 -0.1711  0.2734
12837W        W29311   7.005  15.295  10.417 -0.0577  0.0579 -0.0003
12838W        W29312   9.767  11.655  11.437 -0.3990  0.1689  0.0750
12839W        W29313   9.570   6.176   2.404  0.1251 -0.0791  0.1703
12840W        W29314   2.081   0.504  14.462 -0.2475  0.2451 -0.1005
12841W        W29315  16.622   5.834  13.746  0.2386  0.5149  0.1013
12842W        W29316   6.998  16.236  13.278  0.0168  0.2999  0.2836
12843W        W29317  19.112  16.379  11.056 -0.1289 -0.3349 -0.2426
12844W        W29318  17.601   2.476   0.800 -0.2533 -0.1585  0.0962
12845W        W29319  10.965  18.298  14.742 -0.0920 -0.2129  0.0183
12846W        W29320   2.482   5.843  12.974  0.0383  0.1857  0.0858
12847W        W29321  18.598  12.255   2.160  0.0719 -0.1051 -0.0536
12848W        W29322  15.402   6.997  14.564 -0.0057  0.1755 -0.1196
12849W        W29323   4.032   9.121   1.642  0.0170 -0.0536  0.0530
12850W        W29324  16.372   0.309   4.127 -0.2653 -0.0325 -0.3107
12851W        W29325   0.198  16.590  13.085  0.1173 -0.0121  0.1040
12852W        W29326  11.139   3.230   3.055  0.3429  0.1418 -0.1473
12853W        W29327  13.018  18.350   0.885  0.0246 -0.0725 -0.4554
12854W        W29328   4.476   6.955   3.218 -0.2277  0.0205 -0.2644
12855W        W29329  14.944   9.182  13.100  0.1046  0.2283  0.2744
12856W        W29330  10.314  15.439  10.451  0.1093 -0.0098 -0.1318
12857W        W29331   3.272  12.194   1.941  0.0418 -0.0913  0.1958
12858W        W29332   4.332  18.943  13.194 -0.0085  0.2338 -0.0334
12859W        W29333  17.574  15.920  14.535 -0.2302  0.4366  0.4089
12860W        W29334  18.476  17.700   2.514  0.2883  0.0304 -0.1715
12861W        W29335  14.487  12.356  12.000  0.0435  0.2962 -0.1022
12862W        W29336   6.142   1.402   2.023 -0.0932 -0.2937  0.2189
12863W        W29337  10.881   4.639   3.037 -0.1309 -0.3488  0.0941
12864W        W29338   3.817   0.517   5.372  0.1115  0.0383  0.0573
12865W        W29339   2.770  13.318   4.899  0.0962 -0.1456  0.1150
12866W        W29340  15.769   7.974   5.503  0.0403 -0.1212 -0.0630
12867W        W29341   2.615  10.735   4.871  0.2251 -0.0256  0.0524
12868W        W29342  16.605   8.819   2.148 -0.0877  0.1320  0.0426
12869W        W29343   9.169   3.329  15.007 -0.2517  0.0612 -0.1019
12870W        W29344  16.855  14.360   4.109 -0.0890  0.1666 -0.1961
12871W        W29345   8.606  14.385   4.923 -0.1270 -0.2291 -0.2953
12872W        W29346   1.194   1.956   4.003 -0.2983  0.1985  0.0134
12873W        W29347   7.936  13.040   3.835  0.2312  0.0973 -0.0086
12874W        W29348   1.032   1.921  13.978 -0.2188  0.4613 -0.1847
12875W        W29349  18.503   8.425   0.676 -0.2270 -0.0204  0.2725
12876W        W29350  14.835  18.040   4.808 -0.2114 -0.1369  0.1777
12877W        W29351   6.418   6.223   3.348  0.1146  0.1449  0.0642
12878W        W29352  16.985   0.357  14.150 -0.1176  0.0845 -0.4581
12879W        W29353   6.167   1.031  14.999  0.1230 -0.4540  0.0064
12880W        W29354  16.559   1.481   3.878 -0.0960  0.1180 -0.4257
12881W        W29355  16.988   7.408  12.971  0.0720  0.1751  0.1458
12882W        W29356   3.538   6.667   3.365 -0.0272  0.1110 -0.1732
12883W        W29357  18.402   0.137   4.215  0.3198 -0.1715  0.1623
12884W        W29358   1.855   0.882  14.228  0.0735 -0.1452 -0.3578
12885W        W29359  18.495   4.520   1.766 -0.1982  0.1543 -0.1712
12886W        W29360   2.412  12.388   0.566 -0.2281  0.3412  0.0846
12887W        W29361  16.553   6.334  10.517 -0.0826  0.0631 -0.2071
12888W        W29362   7.066   4.438   2.820  0.1435  0.1244  0.3423
12889W        W29363  14.371   5.869   3.594 -0.0201  0.0673  0.2407
12890W        W29364   8.637   9.968   2.615  0.0218 -0.1473 -0.0952
12891W        W29365   1.395   3.809   3.114 -0.3559 -0.1804 -0.1171
12892W        W29366   3.795  16.734  13.369  0.1574  0.1477  0.2630
12893W        W29367  11.251   7.647  13.209  0.0122 -0.3187 -0.3170
12894W        W29368   2.325   5.730   0.405  0.0883  0.4898 -0.0746
12895W        W29369  14.364  12.032   2.195  0.0445  0.1076  0.0297
12896W        W29370  11.011   5.346   1.298  0.0168  0.0495  0.0110
12897W        W29371  15.787   6.008   4.962 -0.3023  0.2926  0.2412
12898W        W29372   7.593  14.808   3.863  0.1037  0.0606 -0.4035
12899W        W29373  15.945  10.062   0.030 -0.0861 -0.0882  0.1011
12900W        W29374  11.561   3.917   2.362 -0.2606 -0.0760  0.1990
12901W        W29375   3.569  17.480  12.017 -0.0424  0.1982  0.0034
12902W        W29376  17.368   6.763   4.858  0.1012  0.0288 -0.0638
12903W        W29377  13.702  11.189  13.673  0.0602  0.1509  0.1007
12904W        W29378   2.733   9.261   0.361 -0.0728  0.0573  0.2503
12905W        W29379   4.372   4.620   4.637 -0.3499  0.2681  0.1400
12906W        W29380  17.359   5.939  11.658 -0.2675 -0.0652  0.1312
12907W        W29381  10.611  11.073  14.681 -0.1672  0.3471  0.3302
12908W        W29382  13.714  11.710  13.816 -0.1222  0.0160 -0.4122
12909W        W29383   2.273  17.152   1.446 -0.0659  0.0517 -0.0753
12910W        W29384   1.163   8.392   1.636  0.0363  0.2144 -0.0752
12911W        W29385   5.103  12.176  10.868  0.0205  0.0554 -0.2713
12912W        W29386  12.559  13.925   5.631 -0.0400  0.0202  0.0853
12913W        W29387  14.978   8.443   4.372  0.0448 -0.0717  0.1131
12914W        W29388   8.009   4.282   4.612  0.1194 -0.2057  0.0368
12915W        W29389   3.478   3.268   3.714 -0.1709 -0.1257 -0.2847
12916W        W29390   1.669  12.140   4.116 -0.0240 -0.4935 -0.0767
12917W        W29391   5.195   9.761   1.329 -0.1476  0.0793  0.1159
12918W        W29392   1.267   2.749   0.538  0.2106 -0.2285  0.1299
12919W        W29393   1.799  16.978  13.054 -0.0791  0.1701  0.0298
12920W        W29394   4.167  12.169  10.540  0.3656 -0.1262 -0.2226
12921W        W29395   6.028  12.121  11.574  0.2182 -0.2139 -0.0341
12922W        W29396   2.600   5.720   4.058 -0.0096 -0.0717 -0.0429
12923W        W29397  18.198  16.729  12.072 -0.0685  0.0573  0.0626
12924W        W29398   6.523   5.015  13.994  0.2362  0.3350  0.0639
12925W        W29399   6.788   5.306  12.918 -0.2530  0.0957  0.1043
12926W        W29400  11.734  16.832   4.116  0.1737 -0.0980 -0.0647
12927W        W29401  12.174   2.029   1.764  0.2615 -0.0890  0.0871
12928W        W29402   3.309  15.725   3.715  0.0943  0.3507  0.0648
12929W        W29403  13.328  14.457   4.704  0.0360 -0.1617 -0.0590
12930W        W29404   6.620   0.323  13.915 -0.0081  0.0972  0.1921
12931W        W29405   4.372   1.555   0.644  0.2433 -0.0141 -0.2767
12932W        W29406   3.247  11.388   5.071  0.0602  0.3348  0.0374
12933W        W29407   9.042   4.536  13.301 -0.0380  0.0900  0.0288
12934W        W29408  18.932  13.842  14.758 -0.2258  0.2098 -0.0876
12935W        W29409  17.385   4.916   0.923 -0.2159 -0.1851 -0.2250
12936W        W29410  17.869   5.253   4.695 -0.0912  0.1982  0.2585
12937W        W29411   3.684   4.118   3.495  0.4763 -0.1371  0.1844
12938W        W29412   2.579   8.810  10.175 -0.0334 -0.3536 -0.2175
12939W        W29413   3.812  18.219  14.552 -0.3458 -0.1758 -0.4779
12940W        W29414  13.248   8.403   5.776  0.1848 -0.0875  0.0658
12941W        W29415  18.764  13.063   3.318 -0.4381  0.1232  0.0749
12942W        W29416   4.065   8.082  12.081  0.0828 -0.0292  0.4612
12943W        W29417  13.703  14.965   3.870 -0.2019  0.1251 -0.0102
12944W        W29418  17.226  10.154  10.479  0.0540 -0.0060 -0.0382
12945W        W29419   4.555  18.923  11.931  0.2551  0.0542 -0.1079
12946W        W29420   3.766   5.093   1.178  0.0302  0.1247 -0.2327
12947W        W29421  15.637   8.530  12.944  0.3242 -0.0375 -0.2403
12948W        W29422   1.420  19.105   0.125 -0.0091 -0.1019 -0.0194
12949W        W29423   2.821  15.159   4.898  0.1379 -0.2273 -0.0902
12950W        W29424  13.788   1.404   0.533 -0.0023 -0.1864 -0.1783
12951W        W29425  18.593  12.089   1.705 -0.3063 -0.0420 -0.0355
12952W        W29426   6.962   5.839  11.689 -0.0833  0.2423 -0.1008
12953W        W29427   1.741  11.697  11.550  0.2794  0.2845 -0.1679
12954W        W29428   1.054  11.627   4.464 -0.1952 -0.2766  0.1344
12955W        W29429   9.984  14.086   2.217 -0.2310 -0.0751  0.0289
12956W        W29430  13.370  10.382   1.028 -0.1046  0.1526  0.0586
12957W        W29431  14.726  16.234  13.702  0.3663 -0.2596 -0.3704
12958W        W29432  12.419  11.152   4.775 -0.0295  0.0146 -0.2622
12959W        W29433   6.801   6.994  10.335 -0.2713  0.2171 -0.3998
12960W        W29434   0.256   2.605   2.919 -0.0128 -0.0779 -0.2336
12961W        W29435   4.165  11.728   3.169 -0.0353 -0.0287 -0.3380
12962W        W29436  15.444   2.990   2.090  0.0808 -0.3261 -0.0937
12963W        W29437   9.296  17.241   3.655  0.3606  0.0816  0.1572
12964W        W29438   6.154  13.991   0.162  0.1404  0.0603 -0.0734
12965W        W29439   3.119   5.753  11.812 -0.2698  0.1919 -0.0025
12966W        W29440   8.949  14.109  14.678 -0.3232  0.0244 -0.1439
12967W        W29441  17.623  17.613   5.094 -0.0874  0.1925 -0.0233
12968W        W29442  10.466   5.615  10.662  0.0698  0.0473 -0.4508
12969W        W29443  13.994  15.915  11.367 -0.0042 -0.0648  0.0469
12970W        W29444  16.695   8.023   4.859 -0.2330  0.3250  0.1858
12971W        W29445  14.752  19.060   0.056 -0.2311  0.0043  0.0373
12972W        W29446  17.075   7.331   3.482 -0.2720 -0.0453  0.1309
12973W        W29447   7.727   1.224   1.112  0.2793  0.0742 -0.3896
12974W        W29448  10.862   0.076  14.395 -0.3843 -0.0834 -0.0044
12975W        W29449   0.945   8.379   4.098  0.1102  0.1259 -0.1599
12976W        W29450  18.114  18.506   5.841 -0.0696  0.0018 -0.0534
12977W        W29451  18.895   1.684  14.273  0.1095  0.0220 -0.2461
12978W        W29452   2.510   2.796   4.630  0.1122 -0.0067  0.3625
12979W        W29453  18.331   5.930  14.403 -0.2503  0.1462  0.0579
12980W        W29454   5.579   0.380   3.709 -0.0114 -0.0177  0.0555
12981W        W29455  10.688  16.536  13.003 -0.0444  0.1214  0.2952
12982W        W29456   4.392  12.958  11.738 -0.0483 -0.1028  0.1777
12983W        W29457  11.505   8.621  13.324  0.0727  0.1188  0.0103
12984W        W29458   8.794   5.574   0.936  0.5930 -0.1019 -0.1381
12985W        W29459   7.758   9.628  14.210  0.2048  0.2266 -0.2719
12986W        W29460  16.050  17.501  12.580  0.0341  0.0591  0.0178
12987W        W29461  13.494   3.124   5.006 -0.0722 -0.5711 -0.1353
12988W        W29462  13.017  11.296  14.478  0.0035 -0.0368 -0.1104
12989W        W29463   2.239  12.539   3.610  0.1776  0.0481 -0.1529
12990W        W29464   3.455  16.541   1.647 -0.1033  0.2117  0.0754
12991W        W29465   5.832  17.034  11.689  0.1605  0.0747 -0.2775
12992W        W29466   3.591  16.326  13.590  0.0054  0.4022 -0.1702
12993W        W29467   5.438   5.373   1.985 -0.0696 -0.1127  0.0268
12994W        W29468   8.144   0.212   2.253 -0.2730  0.0550 -0.1595
12995W        W29469  12.811  18.968   4.112 -0.1108  0.4658 -0.2373
12996W        W29470  15.914  10.516   0.459  0.0032  0.0615  0.2616
12997W        W29471  16.732  14.633   3.705  0.0301  0.3608 -0.1113
12998W        W29472  12.089   4.684   1.374  0.0734  0.1363  0.0561
12999W        W29473   1.292  14.309   0.995  0.2006  0.2438 -0.1674
13000W        W29474  17.034   0.819   3.386  0.1102 -0.2114  0.0667
13001W        W29475   1.148   1.408  14.223 -0.1684 -0.2749 -0.2155
13002W        W29476   0.302   0.377  12.446  0.2102  0.2535  0.1114
13003W        W29477   2.837  12.816  10.824  0.2810 -0.1441 -0.1728
13004W        W29478   6.894   6.756   3.960 -0.0659  0.2973 -0.2176
13005W        W29479  17.463   8.163  12.880 -0.0891  0.1433 -0.4445
13006W        W29480  13.138   1.917   9.977  0.0010 -0.0498 -0.1435
13007W        W29481  14.609  18.111  12.311  0.1760  0.0942  0.0303
13008W        W29482  14.139   0.333  10.278 -0.1535 -0.0773  0.1112
13009W        W29483  10.140   6.992  13.511  0.0922 -0.2136 -0.0124
13010W        W29484   6.289  11.285  14.140 -0.0635  0.0011 -0.2074
13011W        W29485   8.491  18.606   3.711  0.1939  0.1386 -0.0551
13012W        W29486  16.044   8.123   1.688  0.2593 -0.1324 -0.0247
13013W        W29487   4.986   9.399   5.111  0.1807  0.0656 -0.0236
13014W        W29488   6.748   6.245   3.968  0.1124  0.1291  0.0406
13015W        W29489  11.849   0.457   3.651  0.0949 -0.0155 -0.0656
13016W        W29490   9.045   4.650  11.322 -0.1283 -0.3523  0.3812
13017W        W29491  10.023   7.530   1.324 -0.0475  0.2410  0.1306
13018W        W29492  15.597  17.864   9.449  0.0429 -0.0479  0.0400
13019W        W29493  11.469  11.012  14.140 -0.0733 -0.4600  0.0592
13020W        W29494  16.802   6.871  11.181  0.2268  0.4545 -0.2487
13021W        W29495   8.163   8.974   1.910 -0.0658  0.3082 -0.1785
13022W        W29496  11.576  17.737  12.580  0.0875 -0.0174  0.1017
13023W        W29497  14.092   3.512   0.844 -0.0507  0.1064 -0.5229
13024W        W29498   6.409   7.191   5.235 -0.0333  0.3819 -0.3387
13025W        W29499   7.577  18.074  14.608 -0.4830  0.0027 -0.1425
13026W        W29500   5.481  19.031  11.320  0.0301 -0.3563  0.0140
13027W        W29501   2.388  11.370  12.400  0.1129 -0.1052  0.1350
13028W        W29502  18.762  14.151   1.742  0.1479  0.1043 -0.1762
13029W        W29503   1.525   1.358  13.584 -0.2013 -0.0720  0.0532
13030W        W29504   6.077   6.091  13.075 -0.1408 -0.0024  0.3468
13031W        W29505   9.025  13.015  10.977 -0.0625  0.0866  0.0327
13032W        W29506   8.374  14.530   3.969  0.1390 -0.1334 -0.2322
13033W        W29507   4.728  15.829   2.593 -0.0477  0.1156 -0.1949
13034W        W29508  18.853  10.548  14.858 -0.2035  0.2668  0.0464
13035W        W29509  11.262  17.959  10.175  0.5745 -0.2246 -0.0257
13036W        W29510   3.831  10.678   3.919 -0.2843 -0.2695  0.0950
13037W        W29511   9.393  18.176  12.301 -0.1365  0.2328 -0.1552
13038W        W29512   3.340   8.622  10.445  0.0045 -0.3263  0.1719
13039W        W29513   3.729  17.356   1.184  0.1259 -0.1330 -0.1470
13040W        W29514   2.873  18.006  14.145 -0.0347  0.3510  0.1713
13041W        W29515   8.889  17.237   4.886 -0.5067 -0.1995 -0.0469
13042W        W29516   3.190   8.495  11.590  0.0377 -0.0266 -0.1948
13043W        W29517  13.226   3.777  13.477 -0.0284  0.0973 -0.0846
13044W        W29518   1.294  16.888  11.237 -0.1477  0.0507  0.1884
13045W        W29519  15.388   4.379   2.734 -0.0903 -0.1741  0.2437
13046W        W29520   7.285   7.308   2.107 -0.2452 -0.1170 -0.0901
13047W        W29521   5.769  11.307   0.333  0.0172 -0.2694 -0.0001
13048W        W29522   2.553   8.325   4.094  0.1933  0.0771  0.0516
13049W        W29523  13.491  14.007  12.500 -0.0992  0.1821 -0.0562
13050W        W29524  16.162   6.845  14.987  0.0001 -0.0223  0.2214
13051W        W29525  18.070   8.433   3.773  0.0469  0.2636 -0.1808
13052W        W29526   7.448  15.303   1.342 -0.4050  0.0425  0.2275
13053W        W29527  13.865  11.198  14.196  0.0037  0.0429  0.0345
13054W        W29528  18.682   3.280   2.170 -0.3006 -0.2027 -0.1423
13055W        W29529  13.969  17.659   4.730  0.2706 -0.1727 -0.3196
13056W        W29530   3.915   4.865  12.957 -0.1332  0.0535 -0.1919
13057W        W29531   9.072   0.031   1.478  0.1719 -0.1986  0.0602
13058W        W29532  14.779  10.367   3.274  0.1628  0.0179  0.0113
13059W        W29533   4.386   8.249   1.773 -0.2080 -0.1182  0.0902
13060W        W29534  18.298  16.923   4.001  0.3065  0.2387  0.2086
13061W        W29535  16.550  17.882   0.439 -0.0420 -0.0826  0.2171
13062W        W29536   5.076   3.488   5.411  0.1994 -0.1275  0.1014
13063W        W29537  18.027  15.847  13.308 -0.1537 -0.1912 -0.0486
13064W        W29538   3.524   7.267   2.440  0.1016  0.1113  0.2351
13065W        W29539  11.398   5.874   1.179 -0.3702 -0.3775 -0.0211
13066W        W29540   8.246  14.938  14.417 -0.1965 -0.3565 -0.0179
13067W        W29541   0.114  14.977   1.441 -0.0236 -0.0563 -0.2230
13068W        W29542  14.226   7.326   0.671  0.0065  0.1151  0.1444
13069W        W29543   1.880   0.048  14.292  0.0221 -0.0617 -0.0754
13070W        W29544  14.154  18.289   3.036 -0.0535  0.0989  0.2095
13071W        W29545   4.411   8.438   1.030  0.1108 -0.0649 -0.0629
13072W        W29546   7.655  15.406  10.442 -0.1826  0.3716  0.0300
13073W        W29547  14.916  18.648   0.312  0.0673  0.1291  0.2389
13074W        W29548  12.913   0.374   4.220 -0.1093  0.0533  0.4303
13075W        W29549  16.906   6.797  12.152  0.0251  0.1963  0.4568
13076W        W29550  16.791   6.416   1.711 -0.3265 -0.0017 -0.6223
13077W        W29551  12.010  11.748  12.937 -0.4675 -0.1584 -0.2852
13078W        W29552  16.561   9.293  10.771 -0.1128  0.0792  0.1188
13079W        W29553  15.115  16.565  14.539 -0.0184  0.0625  0.1489
13080W        W29554   8.433   8.137   4.084 -0.0459 -0.1755  0.0084
13081W        W29555   9.767   3.712   3.457 -0.1600  0.3952 -0.1755
13082W        W29556   6.010   6.812  15.021 -0.0289  0.0710 -0.1756
13083W        W29557  10.724   5.878  14.854  0.3913 -0.0879  0.1161
13084W        W29558  16.014  19.091  14.740 -0.0314  0.1069  0.0041
13085W        W29559   5.758   1.417  12.065 -0.1310 -0.2041 -0.0572
13086W        W29560   0.128   3.732   1.584  0.1306  0.4130  0.0650
13087W        W29561  15.174  11.261   1.456  0.0680 -0.0913  0.1051
13088W        W29562  16.471  18.528  13.048 -0.1028 -0.1030 -0.0821
13089W        W29563   5.943   8.345   2.637 -0.0167  0.1062 -0.0464
13090W        W29564  14.901   7.776   0.167  0.1231  0.0349  0.0182
13091W        W29565   0.990  13.352   2.103  0.2366 -0.0799 -0.0171
13092W        W29566  13.348   9.724  12.849  0.2695 -0.1619  0.0666
13093W        W29567   6.576  13.981   0.401  0.0127 -0.1497 -0.0831
13094W        W29568   5.561  12.178   2.598 -0.1277 -0.0136  0.0489
13095W        W29569  17.679  17.738  12.254  0.2976 -0.5634  0.1244
13096W        W29570  12.683   8.646   5.632 -0.1780  0.1860  0.2498
13097W        W29571  13.011   2.490  11.385  0.1149  0.2333  0.0889
13098W        W29572  18.518  10.432  10.716  0.2992 -0.0604 -0.1044
13099W        W29573  11.407  15.027  13.082 -0.0498 -0.1405 -0.3329
13100W        W29574   5.706  15.087   2.185 -0.1662 -0.0288 -0.0587
13101W        W29575   6.631  19.130   1.045  0.1319 -0.1976  0.2630
13102W        W29576   6.880  17.129  12.913 -0.0390 -0.1707 -0.2077
13103W        W29577   3.966   5.735   3.011 -0.0167  0.0975 -0.0881
13104W        W29578  18.094   6.449   3.420  0.3029 -0.1042 -0.0990
13105W        W29579  14.544  19.061   3.837 -0.3027  0.0393 -0.0657
13106W        W29580   1.125   4.668  12.680  0.0116  0.1294  0.0182
13107W        W29581  13.460   9.470   6.091 -0.0818 -0.3288  0.0559
13108W        W29582  17.750  13.968  12.839 -0.0260 -0.0306  0.1791
13109W        W29583  18.607   3.506  13.200 -0.2060  0.0752 -0.1479
13110W        W29584  16.008   9.355  11.019  0.0835 -0.0097  0.3053
13111W        W29585   5.003  12.814   3.159  0.0389  0.1679 -0.2087
13112W        W29586  11.822  16.051  14.010  0.1186 -0.3510 -0.0370
13113W        W29587  17.252  17.980   1.636  0.6453  0.0739  0.1041
13114W        W29588   3.234  17.537  13.895  0.0127  0.0975 -0.0153
13115W        W29589   7.401  14.677  13.316 -0.2910 -0.0702 -0.2346
13116W        W29590   8.638   8.601  10.880  0.0040  0.2911 -0.1631
13117W        W29591  14.094   5.765  13.883  0.0400 -0.2217  0.2157
13118W        W29592  11.202   0.619   9.728 -0.1318  0.3073  0.2608
13119W        W29593   1.651  13.872  10.613 -0.1802 -0.2766 -0.1058
13120W        W29594  18.829   4.603  13.225  0.0236 -0.0778 -0.1586
13121W        W29595   8.893   1.613   5.261  0.1321  0.0099  0.0721
13122W        W29596  13.666  15.103   0.382  0.3788 -0.1372  0.0573
13123W        W29597  15.132   5.917   4.038 -0.0898 -0.0387 -0.1083
13124W        W29598  14.837   3.178   0.377 -0.2573  0.2925 -0.3292
13125W        W29599  14.681   6.249   3.632  0.0849 -0.0512 -0.2952
13126W        W29600  18.310   1.808  13.784 -0.1326  0.1363 -0.2271
13127W        W29601   3.454   1.112  12.397 -0.1919 -0.1592 -0.3035
13128W        W29602   1.362   6.698  13.653 -0.0078 -0.0202 -0.0690
13129W        W29603   9.866  16.366  10.415  0.1937 -0.1669  0.0124
13130W        W29604   5.916  14.907   5.101  0.1938  0.2270  0.0364
13131W        W29605  19.046  13.188  13.084 -0.0748 -0.0389  0.2130
13132W        W29606   7.245  12.684   3.199 -0.2836  0.2881  0.0939
13133W        W29607  12.237  10.396  13.181  0.0034  0.3610 -0.0677
13134W        W29608   9.381  15.215  11.994  0.3072  0.1211  0.2424
13135W        W29609  18.394   1.387  13.440  0.3108  0.1526  0.3616
13136W        W29610   6.662   3.920  13.013 -0.1930  0.1453  0.0705
13137W        W29611  10.634  18.697   1.519  0.0817  0.0849 -0.1108
13138W        W29612  19.101   0.910   3.213 -0.2975 -0.1122  0.2172
13139W        W29613   0.474   8.627   4.116 -0.2360  0.0205 -0.0565
13140W        W29614   8.586  13.934  13.377 -0.0885 -0.0062 -0.0467
13141W        W29615   2.332  17.374  13.183 -0.2992  0.2097  0.0924
13142W        W29616  14.268  17.504   3.678 -0.0205 -0.0378  0.3141
13143W        W29617   2.089   5.367   1.233 -0.3904 -0.2003  0.2779
13144W        W29618   7.974   0.538  13.716  0.1455 -0.1664  0.0472
13145W        W29619   2.205  17.238   0.036 -0.3896 -0.1119 -0.1851
13146W        W29620  18.245  14.081   3.724  0.1178 -0.0078  0.1727
13147W        W29621   2.737   0.169   2.387  0.3429  0.1499  0.0634
13148W        W29622  11.759  12.291  14.708  0.0563  0.2223 -0.2115
13149W        W29623   2.427   0.238   0.140 -0.0572 -0.0076 -0.2066
13150W        W29624   6.720   7.176   3.072 -0.2410  0.2195  0.1126
13151W        W29625  12.776   0.336   9.227  0.1864  0.0979 -0.1329
13152W        W29626  16.581  10.142   2.405  0.0426 -0.1195 -0.1423
13153W        W29627  13.587  10.361   4.855 -0.1923 -0.1771  0.0385
13154W        W29628  13.173   4.743   5.365  0.0419 -0.0286 -0.1054
13155W        W29629  15.881   3.566   3.216  0.1182 -0.1044  0.0334
13156W        W29630   2.933  18.182   4.265  0.0297  0.2180 -0.0207
13157W        W29631   8.244  17.088   4.412  0.1626 -0.0702 -0.0455
13158W        W29632   9.878   2.493   2.700  0.2807  0.1982  0.0092
13159W        W29633  17.690  15.295   1.551 -0.1901 -0.0132 -0.1919
13160W        W29634  15.390  12.414   4.334  0.0906  0.1859 -0.0551
13161W        W29635   4.092   2.353   4.884 -0.1745 -0.3774 -0.0366
13162W        W29636  14.768  13.123   3.777  0.4140  0.0999  0.2211
13163W        W29637  11.145  18.001   0.028  0.1633 -0.0963 -0.1509
13164W        W29638   9.192   4.160  11.515 -0.0710  0.0235  0.0964
13165W        W29639   5.994   6.140   9.403 -0.1138  0.1969  0.0812
13166W        W29640   5.402   2.157   1.852 -0.0530 -0.0258  0.2225
13167W        W29641  14.878   0.830  10.981  0.0170  0.0274 -0.0107
13168W        W29642   8.875   2.257   0.052  0.2488 -0.0581 -0.1062
13169W        W29643  10.442  12.835   2.889 -0.2000 -0.1398  0.2095
13170W        W29644  17.772  19.078  13.685 -0.1722 -0.1148  0.0207
13171W        W29645   0.621  16.161  11.610  0.0460 -0.3368  0.1392
13172W        W29646   0.956  12.573  10.904 -0.2462 -0.0923  0.1230
13173W        W29647   9.365   8.896   2.030 -0.3161 -0.1378  0.1132
13174W        W29648   9.883  14.055  12.365 -0.2501 -0.2432  0.3459
13175W        W29649  18.898  11.220   9.521 -0.0926  0.3137  0.1314
13176W        W29650  10.339  14.024  12.148 -0.0753 -0.0422 -0.0351
13177W        W29651  11.580   0.991  11.451 -0.1186  0.1310 -0.0111
13178W        W29652   3.335   4.824  11.110 -0.0751 -0.0786 -0.0391
13179W        W29653  14.539  11.944   4.543 -0.1956 -0.0980  0.3932
13180W        W29654  12.332  16.013  12.028 -0.2222  0.2319  0.1530
13181W        W29655  16.464   9.158   4.989  0.2262  0.0326 -0.3151
13182W        W29656  10.482  18.766  12.465 -0.2237  0.1235 -0.2340
13183W        W29657  17.935   8.292   1.494  0.0087  0.0174  0.1511
13184W        W29658  14.390  11.863  10.890  0.0120 -0.1705  0.3821
13185W        W29659   5.809  11.615   9.376 -0.0279  0.3488 -0.0226
13186W        W29660  11.303   5.562   3.929 -0.1314  0.2329  0.1236
13187W        W29661  16.478  18.542  14.002  0.1034  0.1514  0.0383
13188W        W29662   3.614  11.745   3.170 -0.0096 -0.0923  0.2271
13189W        W29663  15.571   1.786   2.857  0.0329  0.3443  0.0250
13190W        W29664  18.821  16.450  12.482 -0.0097 -0.1515  0.1526
13191W        W29665  12.434  15.709   2.323  0.1382 -0.0752  0.2509
13192W        W29666   1.449  12.323   0.164 -0.4095  0.3096 -0.0122
13193W        W29667   8.472   3.844  14.730  0.1734 -0.1128  0.1281
13194W        W29668   9.263  13.635   0.760 -0.0224  0.1080  0.3794
13195W        W29669   3.779   6.161  11.969  0.1060 -0.1706 -0.1288
13196W        W29670   6.942  14.542  10.806  0.4353 -0.2970  0.2818
13197W        W29671   2.778  14.926   4.026 -0.0992 -0.0182 -0.1985
13198W        W29672   0.519  16.541   0.592 -0.1431  0.2190  0.2152
13199W        W29673  12.822  17.585  11.654  0.0659  0.1917  0.0885
13200W        W29674   3.942   5.076  13.938  0.0042 -0.1061  0.2549
13201W        W29675   2.233   3.378   0.683  0.2183 -0.0203 -0.0260
13202W        W29676   2.435  18.164   2.887  0.4218 -0.0840  0.1573
13203W        W29677  18.681  14.077   3.022 -0.1325 -0.0747  0.1337
13204W        W29678  11.311  14.212  11.275 -0.4006  0.1341  0.3585
13205W        W29679   3.165   5.383   0.021  0.3158 -0.0564  0.2964
13206W        W29680   6.847  18.441  14.808  0.1842  0.0558 -0.2029
13207W        W29681   8.373   8.953   4.558  0.1686  0.2638 -0.1979
13208W        W29682  17.623   8.055  13.334 -0.3674  0.2718  0.0731
13209W        W29683  16.977   1.478   4.661  0.1359  0.2128  0.0224
13210W        W29684  11.609  10.453  11.628  0.2118  0.1284  0.1386
13211W        W29685   8.770  18.282   1.262 -0.0730  0.0859  0.2774
13212W        W29686   1.297   5.588  12.694 -0.2090  0.1103  0.2654
13213W        W29687   8.098   1.743  14.372 -0.2016 -0.0078  0.2870
13214W        W29688  14.131   8.894   3.114 -0.1649 -0.1633 -0.1179
13215W        W29689   8.957  16.429   3.009  0.0858  0.0338  0.2228
13216W        W29690  11.335   1.311  12.799 -0.1890 -0.5939  0.1360
13217W        W29691  10.664  17.635  12.660 -0.5381  0.2015 -0.0282
13218W        W29692   2.567  16.927   1.820 -0.0605  0.1181 -0.0529
13219W        W29693   6.750   8.512   2.281  0.2118 -0.1553 -0.1116
13220W        W29694   1.470   9.766  10.589 -0.0940 -0.0133  0.1050
13221W        W29695   4.064  11.762   0.555  0.2815 -0.0340  0.2660
13222W        W29696   3.923   3.768   1.185  0.0533  0.1232 -0.1162
13223W        W29697  13.978  16.479  14.650 -0.1268 -0.2443  0.4519
13224W        W29698   9.131  14.326   9.807  0.1508 -0.1074 -0.0943
13225W        W29699   2.158  14.134   2.853 -0.0315  0.1013 -0.2359
13226W        W29700   5.068   5.615   0.355  0.0918  0.0951 -0.3101
13227W        W29701   5.245  16.479   4.672  0.0243  0.0237 -0.0809
13228W        W29702   2.897  13.291   2.178  0.0535  0.0362  0.0461
13229W        W29703  11.020   3.731   1.414 -0.1833  0.2159 -0.4197
13230W        W29704  14.556   2.743   1.140 -0.3461 -0.0108  0.1981
13231W        W29705   6.770  13.516  14.792  0.0689 -0.4174 -0.1584
13232W        W29706   8.502  16.561  11.145  0.4013 -0.1764 -0.0799
13233W        W29707  12.491   2.588   1.389 -0.0105 -0.1800 -0.2277
13234W        W29708   8.192  10.207   1.940  0.0963 -0.1158 -0.1764
13235W        W29709  13.711   4.689  11.675 -0.1710 -0.0984  0.0415
13236W        W29710   8.306  13.054   4.236  0.1336 -0.2961 -0.3086
13237W        W29711  17.404   4.355  11.165  0.0720 -0.0656  0.1313
13238W        W29712   1.479  13.928  12.144 -0.0187 -0.1073  0.1933
13239W        W29713   9.926  16.793  11.066 -0.0410  0.0096  0.1291
13240W        W29714   2.264  16.814   0.901  0.1245  0.0745 -0.3678
13241W        W29715   4.380   9.102  11.588  0.0986 -0.1031 -0.1819
13242W        W29716   4.730  17.395   2.442  0.2240 -0.1119 -0.0845
13243W        W29717  18.334  12.968   0.013  0.1613 -0.0032  0.0049
13244W        W29718  15.061   0.703   2.254 -0.1196  0.3439  0.0401
13245W        W29719   1.604  11.789   0.258  0.0372  0.2642  0.0463
13246W        W29720   8.965   0.263  13.107 -0.0091 -0.2540 -0.2097
13247W        W29721  17.248  17.482  12.932 -0.3125  0.3320 -0.0303
13248W        W29722  12.914   7.459   2.728 -0.0724 -0.1049 -0.1822
13249W        W29723  18.871   4.171   4.661  0.0768  0.0205 -0.5053
13250W        W29724   5.167   0.908  14.713  0.1916 -0.3910  0.0126
13251W        W29725  10.368  13.134  11.198 -0.0595 -0.0513  0.2685
13252W        W29726  18.572   3.437   5.063  0.1061  0.1100 -0.3302
13253W        W29727   0.181   2.641  14.577 -0.1010 -0.0214  0.1063
13254W        W29728  11.484   9.681   4.051 -0.3902  0.1119 -0.0951
13255W        W29729   4.856   5.815   5.335  0.5625  0.0382  0.2930
13256W        W29730   5.086   6.105  12.903 -0.1213  0.2078 -0.0222
13257W        W29731  12.108  16.727   0.522 -0.3667 -0.3585  0.1795
13258W        W29732   7.459  14.164  15.095 -0.0913  0.0450 -0.3547
13259W        W29733  12.270  13.388   1.237  0.0026  0.0990 -0.2016
13260W        W29734   6.869   8.503   1.317 -0.0017  0.0224 -0.3462
13261W        W29735   5.678   6.968   1.312 -0.2304 -0.3093 -0.2566
13262W        W29736   0.315  17.402   1.776  0.1950  0.2054  0.2290
13263W        W29737   9.971   0.909  11.332 -0.1660 -0.2071  0.0164
13264W        W29738   4.701  12.218   2.117 -0.1827  0.3559  0.1802
13265W        W29739   1.874   3.710   3.397  0.0154  0.0075  0.0286
13266W        W29740  18.750   9.899   4.235  0.3940 -0.1338  0.0316
13267W        W29741   4.163  11.522  11.657  0.4150 -0.0850  0.1559
13268W        W29742   1.120  19.151   5.048  0.0580  0.0007  0.2074
13269W        W29743  13.029   9.047   2.085  0.0576  0.4887 -0.0633
13270W        W29744   9.605   2.873  11.779 -0.1596 -0.0420  0.2828
13271W        W29745  12.483   3.471  11.607  0.1119  0.2620  0.0575
13272W        W29746   9.656  18.225   5.469  0.0116  0.0555 -0.1080
13273W        W29747   3.424  13.585   1.957 -0.3365  0.3930  0.1328
13274W        W29748  16.574   9.980  12.597  0.1399 -0.0098 -0.1842
13275W        W29749   9.564   5.496  10.969  0.2379 -0.0536  0.0362
13276W        W29750   6.784  12.101  11.264  0.0568  0.2443 -0.2922
13277W        W29751   3.364   4.387   4.656 -0.0756 -0.0059  0.0045
13278W        W29752  12.941   5.259  10.881  0.1990 -0.2931 -0.1248
13279W        W29753   2.307  15.092  10.899  0.4018  0.3922 -0.3468
13280W        W29754   5.699  13.645   2.995  0.2406  0.2495  0.1894
13281W        W29755   5.832  17.587  12.874  0.2940 -0.4443 -0.1712
13282W        W29756   9.922  17.219   2.592 -0.0212 -0.2428 -0.0559
13283W        W29757  11.134  16.048  14.963  0.1559  0.0956  0.0188
13284W        W29758   6.963   1.078   5.740  0.3787  0.0543  0.1245
13285W        W29759  10.076  14.070   5.522  0.1911 -0.2118 -0.0574
13286W        W29760   0.508   7.507   2.967 -0.1804 -0.2091  0.0755
13287W        W29761  15.175   1.172   4.907 -0.0134 -0.0792 -0.0350
13288W        W29762   2.294   5.266   4.015  0.2707  0.1960 -0.1045
13289W        W29763  10.528   1.804   1.323 -0.0040  0.0806  0.2421
13290W        W29764  13.313  14.668   0.997  0.1494 -0.2530 -0.2243
13291W        W29765  15.447  11.142  11.916  0.0778 -0.5810  0.1405
13292W        W29766   0.411  15.094  10.933  0.1790  0.0313 -0.2832
13293W        W29767   8.545  14.680   3.392  0.1472  0.0079 -0.0982
13294W        W29768   0.821   5.077   3.906 -0.0686 -0.0817  0.0029
13295W        W29769  18.237   0.981  12.224  0.2024  0.0259  0.2401
13296W        W29770   0.355  11.071   4.378  0.0724 -0.1172 -0.0707
13297W        W29771   8.523  10.571   0.993 -0.1781  0.2650  0.4471
13298W        W29772   2.016   9.228  14.200  0.3551  0.2720  0.1426
13299W        W29773  10.600  18.342  11.654 -0.0504 -0.1468  0.3502
13300W        W29774   8.096   9.110  15.065  0.2802 -0.1956 -0.0993
13301W        W29775   6.164  18.325   0.368  0.1525 -0.2247 -0.0361
13302W        W29776  18.694   9.526  14.586 -0.3350 -0.2611  0.0922
13303W        W29777   6.427   8.943  14.992 -0.0820 -0.1244 -0.2056
13304W        W29778   3.545  14.555  11.274  0.0967 -0.0892 -0.1517
13305W        W29779   5.901  18.777   3.264 -0.0617  0.1654  0.0652
13306W        W29780  11.073   8.324   2.884 -0.1822  0.2198  0.0695
13307W        W29781  19.071   0.959   1.358 -0.0893 -0.2909  0.0733
13308W        W29782   5.390   5.930   5.100  0.2928 -0.1546  0.0319
13309W        W29783  13.596  10.980  12.396 -0.1885 -0.4610  0.1400
13310W        W29784  14.439   1.060  10.037 -0.0907 -0.3290 -0.0563
13311W        W29785   2.111  16.212   2.624 -0.3247  0.2365 -0.1931
13312W        W29786  12.698  13.207   4.669  0.1047  0.0328  0.1394
13313W        W29787   3.289   1.120  14.838  0.1347 -0.1451  0.0933
13314W        W29788  18.234  10.190  10.394  0.1120 -0.0790 -0.1978
13315W        W29789  17.713   7.561   4.995  0.0556 -0.0744  0.1698
13316W        W29790   0.275   0.018  14.860  0.0093  0.2536  0.2950
13317W        W29791  14.644  16.036   0.877 -0.1992 -0.0460  0.0114
13318W        W29792  15.800   3.878   3.868  0.2167 -0.3013 -0.2489
13319W        W29793   7.824  13.661  13.799 -0.0537 -0.0454 -0.0063
13320W        W29794  16.014  14.648  13.512  0.1186  0.1334 -0.1641
13321W        W29795   3.566   4.465   4.198 -0.2056  0.0018  0.0061
13322W        W29796   8.279  16.519   1.139  0.5190 -0.2287 -0.2142
13323W        W29797  17.314  18.151   0.103  0.2436  0.3281  0.0906
13324W        W29798   6.100   7.149   1.070 -0.0443  0.2608  0.0178
13325W        W29799   2.440   0.099  14.267 -0.0847 -0.0998 -0.2804
13326W        W29800   8.716  15.358  12.444  0.1618  0.0854 -0.0685
13327W        W29801  16.848  10.658  11.258  0.2021 -0.1210 -0.0881
13328W        W29802   4.576   6.403   3.460  0.4847  0.2808 -0.0418
13329W        W29803  16.108  10.357  14.739 -0.1161 -0.1095  0.3038
13330W        W29804   2.933   0.920   3.727 -0.0854 -0.3385 -0.1427
13331W        W29805  14.586   6.996  13.242  0.1182  0.1374 -0.2583
13332W        W29806   0.576   3.423   5.220 -0.1096 -0.2078 -0.0031
13333W        W29807  11.360  14.232  12.965  0.0264 -0.2698  0.0538
13334W        W29808   4.794   7.314   1.495 -0.2909  0.0186  0.1849
13335W        W29809   0.406  10.552   2.744  0.0698 -0.0555 -0.0182
13336W        W29810  13.426   9.002   5.067  0.1953 -0.1347 -0.2295
13337W        W29811  10.594  18.394  11.133 -0.0811 -0.1880  0.2389
13338W        W29812   4.921   0.547  10.906 -0.0622  0.3518 -0.1825
13339W        W29813   6.551  13.250   3.174 -0.0576 -0.1554 -0.0916
13340W        W29814   0.864  11.277   2.581 -0.2814 -0.2947 -0.1926
13341W        W29815  14.701   9.442   1.591  0.0903 -0.5150 -0.1063
13342W        W29816   3.150   3.660   2.847 -0.2105 -0.0659  0.1029
13343W        W29817  17.821   1.980   1.640  0.0487  0.4037 -0.1757
13344W        W29818   9.351   0.264  11.278 -0.4193 -0.2243  0.1896
13345W        W29819  12.021   0.156  12.044 -0.0582 -0.0162  0.0007
13346W        W29820  11.558  15.329  15.110 -0.0795  0.1434 -0.2583
13347W        W29821  12.643   6.657  14.852  0.3241  0.5506  0.0426
13348W        W29822   8.916   1.654  11.439 -0.0917 -0.0486  0.4116
13349W        W29823  10.223   4.166   1.466  0.3191 -0.1425 -0.1523
13350W        W29824  14.030   0.793   4.429  0.0691 -0.0566 -0.2230
13351W        W29825  14.720  15.354   2.849  0.0981  0.1691 -0.0184
13352W        W29826   7.963   5.836   3.225 -0.2611  0.2178 -0.0571
13353W        W29827   2.911   6.591  10.711 -0.1778  0.0803  0.0587
13354W        W29828  17.390  13.857  10.972 -0.1968 -0.1957 -0.0232
13355W        W29829   5.511  18.788  13.992 -0.0943 -0.2224  0.0999
13356W        W29830   5.906   7.442  11.120 -0.0246  0.0435 -0.3031
13357W        W29831   4.432   8.583  10.554 -0.0294 -0.0852 -0.2074
13358W        W29832  10.537  16.878   1.916 -0.0396  0.0129  0.1717
13359W        W29833  12.074  13.352   3.866  0.0270  0.0441  0.1135
13360W        W29834   9.435   5.282  11.915 -0.0788 -0.1565  0.3345
13361W        W29835   0.136  19.118  11.183 -0.1508 -0.1233 -0.0543
13362W        W29836   4.571  10.315  14.500  0.0887 -0.0820 -0.0585
13363W        W29837  17.797  11.746   3.344  0.0954 -0.0903  0.2619
13364W        W29838   3.423   7.558  10.152  0.3552 -0.2881  0.0287
13365W        W29839  12.242   2.218   3.926  0.0253 -0.0642  0.1521
13366W        W29840   9.067   3.827   3.854  0.0089  0.1601 -0.0990
13367W        W29841   0.508   4.831  11.057 -0.0861 -0.0150 -0.1345
13368W        W29842  15.274  14.246   2.216  0.0800  0.2673 -0.4229
13369W        W29843   5.363   2.911  10.033 -0.0578 -0.0285 -0.1859
13370W        W29844  15.610   8.256  11.503  0.0541 -0.1788  0.0596
13371W        W29845   3.259   7.989  11.549  0.3641 -0.0358  0.0026
13372W        W29846   1.735   1.770  13.549 -0.2833  0.0729  0.2276
13373W        W29847   7.422   1.191   4.933 -0.2160 -0.2512  0.0456
13374W        W29848  11.465   2.242  13.539 -0.2866  0.0768  0.1609
13375W        W29849   3.375   2.880  10.146  0.0247 -0.0755 -0.0776
13376W        W29850   7.009   8.554  12.371  0.1880 -0.1405  0.2543
13377W        W29851   9.276   4.570  10.882 -0.0822  0.2699  0.1927
13378W        W29852   3.643   1.424  14.557 -0.1479  0.0311  0.0477
13379W        W29853   2.020  17.301   1.892  0.0746  0.1409  0.2920
13380W        W29854   8.169   0.025  10.263 -0.1711 -0.1293 -0.2307
13381W        W29855   9.029   1.382   3.406  0.1253 -0.2773  0.0096
13382W        W29856  12.352   0.724   3.663 -0.0185  0.1174 -0.1034
13383W        W29857   4.052   4.240   1.385  0.1314 -0.3084  0.1796
13384W        W29858   4.872  18.292   1.027  0.0420  0.1226  0.0749
13385W        W29859   4.276  18.277  12.164 -0.1564  0.1149 -0.2473
13386W        W29860   2.400  15.611   1.630  0.0608 -0.2676  0.0103
13387W        W29861  10.166   7.861   1.653 -0.0636  0.0936  0.0222
13388W        W29862   0.005  14.278  14.890 -0.1787  0.0362 -0.0270
13389W        W29863  19.155   4.913  11.229 -0.3026  0.1764  0.3856
13390W        W29864  17.275  11.234   1.055  0.3103 -0.0465 -0.1356
13391W        W29865   9.977   5.875  11.560 -0.0193 -0.3342 -0.0915
13392W        W29866  13.407   7.715   9.559 -0.0310 -0.1993  0.0355
13393W        W29867   3.340   9.335   3.559 -0.1033  0.1638  0.0887
13394W        W29868   0.765  16.139  12.320  0.0239  0.2746  0.0593
13395W        W29869  16.965   7.895   9.385  0.1318 -0.0737  0.0627
13396W        W29870  14.551   6.056   1.501 -0.0424  0.1516 -0.0276
13397W        W29871   4.471  14.544   0.368  0.1053 -0.0780  0.1688
13398W        W29872   1.213   7.758   2.525  0.5241  0.0820 -0.1024
13399W        W29873  11.347  10.294  10.839  0.0524 -0.1808  0.1826
13400W        W29874  18.590   3.633  11.640 -0.1033 -0.0636 -0.0561
13401W        W29875   6.012   2.181   4.018  0.0783  0.1560 -0.1214
13402W        W29876   2.661   0.755  14.432 -0.2158  0.1260  0.0297
13403W        W29877  10.903  14.280   3.405 -0.1537  0.3381 -0.0422
13404W        W29878   9.895   3.298  12.780  0.1441  0.2539  0.1336
13405W        W29879   8.891  13.323   9.980  0.1705 -0.0502  0.0392
13406W        W29880  15.257  16.377   3.565  0.0681  0.1271  0.1001
13407W        W29881   8.764  10.183  13.144 -0.1095  0.3396 -0.1686
13408W        W29882   6.481  12.563   4.423 -0.0320 -0.4029  0.0912
13409W        W29883   9.744   7.205   2.788 -0.3409  0.1402 -0.2024
13410W        W29884   9.191   0.656   4.178  0.0505 -0.0156  0.3411
13411W        W29885  15.938   7.749   0.207  0.1426 -0.2902  0.0108
13412W        W29886  10.989   8.254   5.973  0.0378 -0.0976  0.0196
13413W        W29887   6.197   9.649  12.564  0.2244  0.0631  0.1203
13414W        W29888   2.162   7.631  12.303 -0.0093  0.3499 -0.1279
13415W        W29889  13.488  14.929  14.431 -0.3134  0.1925 -0.0205
13416W        W29890   5.806   3.265  12.176 -0.1710  0.0819  0.2445
13417W        W29891   1.011   5.854  11.068 -0.0413 -0.1281 -0.0256
13418W        W29892  10.583   6.144  10.757 -0.1469 -0.0944  0.0857
13419W        W29893   1.811  14.696   4.004  0.0229  0.3066 -0.1915
13420W        W29894   7.297  18.008   1.629  0.0170 -0.1188 -0.2291
13421W        W29895   6.568   4.634   2.772  0.1145  0.1941 -0.1244
13422W        W29896   7.799   0.579   3.128 -0.2725 -0.1120 -0.1087
13423W        W29897  11.124   3.954   0.955 -0.1130  0.2490 -0.1972
13424W        W29898   7.208   8.543   3.630  0.0801 -0.1812  0.2097
13425W        W29899   6.221  12.269   4.883 -0.0930 -0.0710  0.0276
13426W        W29900   3.463   2.975   2.366  0.1596 -0.0790 -0.1481
13427W        W29901  13.424  18.020  10.083 -0.1508 -0.2705 -0.2197
13428W        W29902  14.414   3.388  12.364 -0.0008  0.2303  0.0639
13429W        W29903  17.999  18.222  13.354 -0.0573  0.1605  0.1088
13430W        W29904   8.365  13.937   2.283 -0.0042  0.0017  0.0274
13431W        W29905  17.761  10.150  13.256 -0.0238  0.1727  0.1561
13432W        W29906  17.118  18.497   2.998  0.0777  0.0752 -0.3490
13433W        W29907   4.480   3.964   0.127 -0.3188 -0.3631  0.2077
13434W        W29908  18.171  15.611  14.453 -0.0135 -0.0839  0.2095
13435W        W29909   1.300  16.692  11.708  0.0487  0.1212  0.3120
13436W        W29910  12.091   0.848   5.308  0.1808 -0.1575  0.0903
13437W        W29911   7.745  10.728  14.550  0.2438  0.1192 -0.1646
13438W        W29912  13.595  15.965   0.830  0.0601  0.1818  0.3009
13439W        W29913  16.503   7.578   0.168  0.1706 -0.0231 -0.2595
13440W        W29914  14.179   0.457  13.792 -0.1172  0.1148 -0.0677
13441W        W29915  12.252  14.270  11.500  0.2207  0.1598 -0.0477
13442W        W29916  18.042   3.290   1.176 -0.1095  0.2928 -0.1527
13443W        W29917   9.917   5.880   1.074  0.1037  0.0509 -0.3001
13444W        W29918  16.782   5.627   1.299 -0.1226 -0.1501 -0.3072
13445W        W29919  16.494  13.325   2.406  0.2156  0.1355 -0.2948
13446W        W29920  10.767   4.032  12.366 -0.0782 -0.1024 -0.2207
13447W        W29921   9.856  13.593  13.531  0.4196 -0.0454  0.4641
13448W        W29922   4.364   8.761   5.304 -0.1846 -0.2324  0.1889
13449W        W29923   6.139   8.063  14.327 -0.0812 -0.1223  0.1816
13450W        W29924   2.701   7.460   4.484  0.1487 -0.1703 -0.2081
13451W        W29925  18.567   4.505  10.425 -0.0366  0.1971  0.0726
13452W        W29926   1.444  16.761   3.579  0.1818  0.2399  0.0088
13453W        W29927  15.270  13.345   3.341  0.0161  0.0126 -0.1938
13454W        W29928  12.585   2.904  13.124  0.0742  0.4230 -0.3349
13455W        W29929  14.611   0.272  14.178 -0.0118 -0.2485  0.0936
13456W        W29930  10.628  12.837  11.610  0.0454  0.2081 -0.2006
13457W        W29931  14.226   6.169  14.729  0.0187 -0.4101 -0.0741
13458W        W29932  17.384  15.995  12.595  0.0339  0.0362 -0.1221
13459W        W29933  11.380  14.800   9.837  0.2297 -0.1913  0.1669
13460W        W29934  18.981   6.695  10.790 -0.0730 -0.0727  0.1602
13461W        W29935  11.644  14.859  11.590 -0.3613 -0.1347 -0.1485
13462W        W29936   1.861  18.265  12.628  0.0517  0.0368  0.0738
13463W        W29937   7.417  12.443   1.448 -0.1647 -0.1031  0.3544
13464W        W29938   0.375   1.375   5.419 -0.1485  0.0195  0.1193
13465W        W29939   9.916   6.546   4.140  0.1907 -0.0188  0.1589
13466W        W29940   2.593   9.335  12.229  0.2404  0.0757  0.1119
13467W        W29941  12.481   8.568   0.181  0.0190  0.3354  0.0051
13468W        W29942   4.266   0.638   5.222  0.3412  0.2167 -0.1872
13469W        W29943   5.611  10.749  13.369 -0.0576  0.0438 -0.2001
13470W        W29944   2.604   4.806  11.711  0.0307 -0.1531  0.2509
13471W        W29945   0.651  17.393  12.908  0.1113  0.3126  0.1139
13472W        W29946   3.646  16.043  12.395 -0.2048  0.2392 -0.0811
13473W        W29947   6.981   6.553  14.974 -0.1994 -0.0969 -0.0078
13474W        W29948   4.704  14.751  13.591  0.1656  0.1641  0.0055
13475W        W29949   3.867  11.317   1.845  0.1520  0.0860  0.2076
13476W        W29950   0.272  18.223   5.237  0.0738 -0.1313 -0.1477
13477W        W29951   7.653   6.132  13.481 -0.0401  0.0689 -0.3431
13478W        W29952  10.215  10.593   2.223  0.0179 -0.1329  0.2058
13479W        W29953   8.632   0.646   2.002 -0.4409  0.0988 -0.0570
13480W        W29954   0.167  13.326   1.726 -0.3341  0.1442  0.3271
13481W        W29955   6.893   4.260  11.983 -0.3078 -0.3780  0.2373
13482W        W29956   1.636  14.892   3.199  0.0699 -0.0249  0.0262
13483W        W29957  16.982   3.788   2.179  0.1908  0.2074  0.3654
13484W        W29958   2.140  16.300  12.019 -0.0596  0.1312 -0.0691
13485W        W29959   4.535   8.471  14.912 -0.0559 -0.2634 -0.0344
13486W        W29960  10.063   6.380   5.486  0.0012  0.0779  0.1080
13487W        W29961  14.537   5.253  13.173  0.2371  0.0818 -0.1461
13488W        W29962  15.281   0.689   0.746 -0.1086 -0.0677 -0.2769
13489W        W29963   4.651  18.121   5.108  0.3147  0.1456  0.0679
13490W        W29964   7.194   9.797   3.704  0.2087 -0.2272 -0.0269
13491W        W29965   0.227  15.143   4.664  0.1157 -0.1890 -0.2168
13492W        W29966  11.992   0.632   0.956 -0.3409 -0.1200  0.2146
13493W        W29967   3.026  17.716  11.986 -0.0606  0.0152 -0.1006
13494W        W29968   1.587   2.879  14.270  0.0147  0.0719  0.1552
13495W        W29969   1.640  10.453  13.296 -0.0718 -0.0763  0.2569
13496W        W29970   5.410   6.240  11.648 -0.0923  0.0600 -0.1221
13497W        W29971   1.583  14.347  12.536  0.0412  0.0399  0.2020
13498W        W29972   7.986   7.958   3.093 -0.1248 -0.2548 -0.2433
13499W        W29973   2.154   8.381  14.217 -0.1068  0.0118 -0.0131
13500W        W29974  14.565  10.482   0.653  0.2396 -0.1309 -0.0722
13501W        W29975   8.968   4.877  12.261  0.0265  0.1368 -0.0510
13502W        W29976   6.612  14.104   2.684 -0.1921 -0.2553 -0.1672
13503W        W29977   6.524   4.485  12.173 -0.3802 -0.2013  0.0757
13504W        W29978  18.988  11.365  14.518  0.0211  0.0537  0.1983
13505W        W29979   7.973   3.433   4.314 -0.1489 -0.0682  0.0656
13506W        W29980   1.223  16.691   2.166 -0.0714 -0.3251 -0.2891
13507W        W29981   8.530  10.538  12.838  0.1246  0.1278 -0.1186
13508W        W29982  17.953  15.297   3.030 -0.2349  0.1538 -0.2848
13509W        W29983  17.351  15.960  10.900 -0.0186 -0.1334 -0.2725
13510W        W29984  16.960   7.845  13.954 -0.2865 -0.2685 -0.0979
13511W        W29985  11.076   5.810  10.110  0.2614 -0.2625 -0.0992
13512W        W29986  11.812   5.554  11.825  0.0242  0.1790  0.3237
13513W        W29987  14.179   2.896   2.318  0.1466 -0.2368 -0.1141
13514W        W29988  17.531   1.066  10.413 -0.1345 -0.0620 -0.3020
13515W        W29989   5.573  13.688  10.481 -0.0630 -0.1468 -0.1192
13516W        W29990   5.927   4.209   1.613  0.1862  0.2368  0.0070
13517W        W29991  17.862   8.861  12.203  0.0370 -0.1029  0.1107
13518W        W29992  18.192   2.699  11.150 -0.2543 -0.5161  0.3048
13519W        W29993   6.873  12.790   1.311 -0.1472  0.4838 -0.1135
13520W        W29994  14.531   9.760  12.540  0.2741 -0.1423 -0.0524
13521W        W29995  11.833   2.273  11.879  0.3547  0.3096  0.3147
13522W        W29996   0.953   5.334  11.053 -0.3196 -0.0123  0.3894
13523W        W29997  16.156  15.332   1.092 -0.1141  0.1697 -0.2001
13524W        W29998   1.689   2.326  12.735 -0.2290  0.0318 -0.2173
13525W        W29999  16.621   6.213  13.379 -0.1571 -0.2872  0.0974
13526W        W30000   0.747   0.966   1.442  0.0389  0.0337 -0.2483
13527W        W30001   5.695   4.494   9.855  0.1765 -0.2621 -0.1844
13528W        W30002  16.452  14.750  10.937  0.0046  0.1010  0.0667
13529W        W30003  14.753  13.359   5.146  0.0027 -0.3384 -0.1319
13530W        W30004  18.921   7.036   0.576 -0.2269 -0.3348 -0.2207
13531W        W30005   6.699   5.461   1.368  0.0811  0.1269 -0.2140
13532W        W30006  14.625   9.579   9.849 -0.0063 -0.0559 -0.2504
13533W        W30007   4.098  10.549  14.559  0.0182  0.2440 -0.0232
13534W        W30008  16.538   5.164   1.334 -0.1078  0.4054 -0.0366
13535W        W30009   6.087  15.658  14.353 -0.2054  0.4001 -0.0532
13536W        W30010   4.264   1.075   4.961  0.3861 -0.0926  0.3426
13537W        W30011  13.425  14.307   1.420 -0.2131 -0.1075 -0.1181
13538W        W30012   1.276  13.461  13.183  0.0677  0.0220  0.1663
13539W        W30013   7.530   4.276   4.824  0.1737  0.1642 -0.2442
13540W        W30014  18.726   4.304   2.775  0.1780  0.5608  0.2004
13541W        W30015   4.687   3.621  11.071  0.3129  0.0372 -0.1726
13542W        W30016  16.401  17.390  12.150  0.1531 -0.1291  0.1409
13543W        W30017  12.834   9.001   0.424  0.0332  0.3307  0.4086
13544W        W30018   6.808   4.816  13.336 -0.0362 -0.2959 -0.0861
13545W        W30019   0.408  18.492  13.704  0.0977  0.0425  0.0028
13546W        W30020  18.914   2.195  15.040  0.0858 -0.1202 -0.1170
13547W        W30021   0.070  17.789  10.797  0.0327 -0.1710  0.1614
13548W        W30022  17.836   1.859  12.684 -0.1471 -0.0095  0.1129
13549W        W30023   9.206  11.122   2.322 -0.1716 -0.4424 -0.4721
13550W        W30024  13.955  11.129  13.149 -0.0388  0.0661 -0.0810
13551W        W30025  13.145  16.917  13.747 -0.2102 -0.0266 -0.1349
13552W        W30026   0.637  13.351  11.820 -0.0021  0.1826 -0.2495
13553W        W30027  18.906   0.748  14.439 -0.0221 -0.1147 -0.3291
13554W        W30028   9.767  18.145   3.143  0.0736  0.0482 -0.0678
13555W        W30029  19.158   7.459   0.639  0.1957 -0.1318 -0.0981
13556W        W30030  16.009  16.899   4.330 -0.0483  0.2629 -0.0978
13557W        W30031   0.416   5.644  10.427 -0.4544  0.0724  0.0679
13558W        W30032  12.970  10.685   5.385  0.2696 -0.1629 -0.1197
13559W        W30033   4.265  14.898   1.847 -0.0265 -0.2679 -0.1944
13560W        W30034  12.597  11.673   4.746  0.2465 -0.3652 -0.0738
13561W        W30035  14.649   6.294  10.005 -0.0590 -0.0446 -0.0005
13562W        W30036   7.834   1.305  15.062 -0.0348 -0.4248  0.3852
13563W        W30037  10.714  16.047  14.100  0.1004  0.1844  0.2442
13564W        W30038  15.542  15.483   4.303 -0.2195  0.0026 -0.0654
13565W        W30039   1.058   9.800   2.260  0.2031  0.4002 -0.4554
13566W        W30040  16.250  12.786  14.733 -0.3321  0.0635 -0.3546
13567W        W30041  11.557   8.813   2.199 -0.3522  0.1555  0.0393
13568W        W30042   0.581  13.494   1.139 -0.1493  0.1224  0.1387
13569W        W30043   3.318  13.303  12.216 -0.2250  0.1170  0.0360
13570W        W30044   5.014   7.152  13.413 -0.1867 -0.1690 -0.0661
13571W        W30045  14.139  14.982  13.507  0.1785  0.1638 -0.2356
13572W        W30046   7.827   9.342   3.670  0.0107  0.1062 -0.1359
13573W        W30047  16.918   2.057   1.069  0.1715 -0.1648  0.0253
13574W        W30048   8.207  18.752  12.773 -0.1001 -0.1828 -0.0752
13575W        W30049   3.518   7.783   4.058  0.0821 -0.0690 -0.0323
13576W        W30050   7.133   7.692   0.764 -0.2432 -0.2204 -0.0893
13577W        W30051  10.388  11.206  10.957 -0.0326 -0.1085  0.3669
13578W        W30052  16.651   9.352  12.565 -0.3294  0.0445 -0.1331
13579W        W30053  13.653  14.476  10.986 -0.0725 -0.0943  0.0822
13580W        W30054   5.956  18.698  13.732 -0.1111 -0.0356 -0.1054
13581W        W30055   7.346   2.616  13.167 -0.1775  0.1621  0.0217
13582W        W30056  18.158  15.333   3.847  0.0832 -0.1312  0.2170
13583W        W30057  15.462   0.536   2.452 -0.2895 -0.2665  0.3550
13584W        W30058   6.745   1.490   3.177  0.0041  0.2540 -0.3204
13585W        W30059   6.247  16.031   3.778 -0.0293 -0.0988 -0.3227
13586W        W30060  18.734   2.243   4.681  0.0298  0.0359  0.0772
13587W        W30061  10.375  18.314   3.786  0.3192 -0.0914 -0.2476
13588W        W30062   6.278   3.767  11.365 -0.2918 -0.0751  0.0444
13589W        W30063   4.545  18.772  14.388  0.0790  0.4054  0.3156
13590W        W30064   6.903   1.266   4.796 -0.1946 -0.2361  0.0460
13591W        W30065   7.437  15.408  11.943  0.2431 -0.2702  0.3639
13592W        W30066  12.334  16.248  11.532 -0.3402  0.3183  0.0088
13593W        W30067   3.665   7.641  14.874 -0.0173 -0.0646 -0.0649
13594W        W30068   1.237  15.476   3.002  0.2624 -0.4174  0.1298
13595W        W30069   6.974   7.572   2.372  0.1474  0.0882  0.1146
13596W        W30070   1.060   5.005  12.304  0.1208 -0.0473 -0.0921
13597W        W30071   0.120  17.048   4.291 -0.2259  0.0219 -0.4134
13598W        W30072   0.285  16.241  10.201 -0.1411 -0.2285 -0.0796
13599W        W30073   4.630   4.585  12.261 -0.0083 -0.0047  0.1589
13600W        W30074   7.052   3.348   3.415 -0.1614  0.1889 -0.3062
13601W        W30075   7.327   9.503  15.061 -0.0466 -0.1538  0.0092
13602W        W30076  10.890  15.157  13.064  0.0712 -0.1986  0.4594
13603W        W30077  16.101  18.545   1.326  0.0983  0.2747  0.0113
13604W        W30078   6.293   0.047   2.501  0.0982 -0.2474  0.1220
13605W        W30079  13.436  13.732  13.034  0.3347 -0.1588  0.2071
13606W        W30080  14.831   6.994  14.950  0.0484  0.1441 -0.2027
13607W        W30081  14.246  10.676   4.757  0.0733  0.0369  0.0422
13608W        W30082   1.252   5.607   2.654 -0.0877  0.1366  0.0341
13609W        W30083  14.923   1.894   0.644  0.0639 -0.1816  0.3629
13610W        W30084  17.006  13.027   4.459 -0.2434  0.1776  0.0169
13611W        W30085  15.823  13.428   5.235  0.0694  0.2144 -0.0749
13612W        W30086  15.517  16.328  13.196  0.0799  0.1867 -0.0020
13613W        W30087  13.437   7.745  12.498  0.1685 -0.1151 -0.1486
13614W        W30088  10.468  15.347  13.144 -0.1324  0.1687 -0.0659
13615W        W30089   2.451   3.235   3.745 -0.0584 -0.3367  0.2269
13616W        W30090   2.627   4.674   4.969 -0.1038  0.2097  0.1941
13617W        W30091  12.969  14.331  12.185 -0.0535  0.2774 -0.0381
13618W        W30092   6.285  13.665  11.914 -0.0337  0.1608  0.1288
13619W        W30093   8.667  13.813  12.131 -0.0775  0.2474  0.3528
13620W        W30094   4.404   5.184   3.939 -0.0461  0.2691  0.0694
13621W        W30095  14.319  17.107   3.383 -0.2570  0.0805  0.2090
13622W        W30096  17.151  16.937   1.704  0.1742 -0.0857 -0.1526
13623W        W30097  18.067  16.015   0.085  0.1245 -0.0512 -0.0499
13624W        W30098   7.886   5.006   1.833  0.3233  0.0640 -0.2108
13625W        W30099   6.186  16.291  10.964  0.3449 -0.3550  0.1365
13626W        W30100  15.997   1.736  11.940  0.6553 -0.0510  0.2772
13627W        W30101  12.096   3.720   3.652 -0.1915  0.0970  0.0001
13628W        W30102  15.561  13.514   3.765  0.4135 -0.0157  0.2593
13629W        W30103  17.883  18.374   0.816 -0.1474 -0.0602  0.0221
13630W        W30104   6.978  13.615   2.332 -0.1844  0.0038 -0.0928
13631W        W30105   8.885  14.699   3.765 -0.0827  0.2962 -0.0591
13632W        W30106   8.370   5.960   9.710 -0.0005 -0.0372 -0.1936
13633W        W30107  15.102   6.107  12.284  0.0915 -0.1367 -0.1811
13634W        W30108  14.125   4.554   1.877  0.0374 -0.0013  0.1471
13635W        W30109  12.062   5.583  13.708  0.0287 -0.2274  0.2381
13636W        W30110   2.661  11.967  13.266 -0.2516 -0.1901 -0.2793
13637W        W30111  12.232   8.832   1.630 -0.1643  0.0792  0.2119
13638W        W30112  12.196  18.665  11.485  0.1144 -0.0129 -0.3609
13639W        W30113   2.413  13.990   4.239 -0.1436  0.0011 -0.2992
13640W        W30114  11.206   5.250   2.957 -0.3339 -0.2627  0.3743
13641W        W30115  10.789   2.412   2.863  0.2953  0.1974  0.4322
13642W        W30116   0.564  18.574  14.716  0.0964  0.2150 -0.3219
13643W        W30117   2.823  11.484  14.531  0.0378 -0.1267  0.1564
13644W        W30118   6.343   2.625   1.788  0.0023 -0.0343 -0.2080
13645W        W30119  11.588   6.274  11.334 -0.1082  0.2883  0.2920
13646W        W30120   8.809   9.586   1.822 -0.2747  0.0788 -0.0595
13647W        W30121  16.554  10.149   0.226 -0.1747  0.0019 -0.1642
13648W        W30122  10.585  15.357  12.634  0.1762  0.2306  0.0793
13649W        W30123   1.639  18.409   2.672  0.0173 -0.0118  0.1727
13650W        W30124   5.429  10.484   3.678 -0.1866  0.1780  0.0528
13651W        W30125   9.908   1.049  12.116  0.1300 -0.0289 -0.3269
13652W        W30126   2.556  10.931  11.446 -0.0096  0.0647 -0.1187
13653W        W30127  11.047  11.954   0.526  0.1607 -0.0077 -0.0801
13654W        W30128  18.663  10.143   5.151  0.1343  0.2723 -0.1011
13655W        W30129   9.753  15.460   2.033 -0.1646 -0.0710 -0.1430
13656W        W30130   7.629  18.995   1.392 -0.1472  0.1144 -0.1754
13657W        W30131  17.711   0.033   0.429 -0.0724 -0.0026  0.3072
13658W        W30132  10.941  17.220  13.987 -0.0825 -0.2695 -0.3602
13659W        W30133  13.398   3.834  15.061 -0.1110  0.2859 -0.2897
13660W        W30134   7.944  18.597   1.813 -0.1083  0.1093  0.2653
13661W        W30135   4.221  11.051  13.603 -0.0120  0.0616 -0.3233
13662W        W30136   0.346  10.746  12.588 -0.2999  0.1164  0.0162
13663W        W30137   9.089  16.110  12.542  0.0189 -0.2149 -0.4917
13664W        W30138   5.193  15.612  13.352  0.1690 -0.1324  0.1435
13665W        W30139   8.303   2.708   3.711 -0.0436  0.0018  0.1142
13666W        W30140   9.818   9.456   4.891 -0.0640 -0.1155 -0.2459
13667W        W30141  12.073   0.473   5.621 -0.0204  0.3048  0.2005
13668W        W30142   2.194  15.352   3.269  0.1957 -0.0069  0.1835
13669W        W30143   8.943  13.350   1.081  0.1425  0.1436 -0.0294
13670W        W30144  13.754  13.261   1.873  0.0088 -0.1034  0.3981
13671W        W30145  18.274   1.766  12.996  0.2672 -0.1228 -0.0152
13672W        W30146   6.800  17.706  10.729  0.1010 -0.0482  0.0993
13673W        W30147   7.480  11.549   2.972 -0.0697 -0.0451  0.1209
13674W        W30148  10.434  14.978  15.018 -0.0112 -0.2208 -0.3835
13675W        W30149  10.260   0.784  11.871  0.2601 -0.1072 -0.1571
13676W        W30150  15.185   1.168   0.337  0.0675 -0.0003  0.0315
13677W        W30151  11.404   2.995   2.604  0.1046 -0.3453 -0.1451
13678W        W30152   6.888   1.363  12.160  0.2078  0.1371  0.0176
13679W        W30153   0.832  10.156   1.983  0.0177 -0.2690  0.0970
13680W        W30154   9.136  10.389  10.914  0.2278  0.0206 -0.0473
13681W        W30155  17.391  18.969  15.048  0.2969  0.0399 -0.1488
13682W        W30156   9.291   5.180   4.060  0.1156 -0.0587 -0.0079
13683W        W30157   3.361  17.027  10.877 -0.0892  0.1618 -0.1449
13684W        W30158   5.100   8.931  12.173  0.0864  0.0506 -0.0356
13685W        W30159  14.551   6.621   1.997  0.1082 -0.0032 -0.0777
13686W        W30160   2.012  11.780  12.526  0.1532  0.4678  0.2555
13687W        W30161  14.575   4.324   1.925 -0.2277  0.0447  0.2178
13688W        W30162   0.814  17.422   3.767  0.0775  0.3433  0.1372
13689W        W30163   1.958   0.021   3.624  0.1497  0.1628 -0.0416
13690W        W30164   1.299  15.438  14.699 -0.1259  0.0742  0.2373
13691W        W30165   6.065   0.306   3.247 -0.0339 -0.1018  0.2721
13692W        W30166   6.981  13.756  14.079  0.0343  0.2257 -0.2613
13693W        W30167   3.112   8.477   3.764 -0.0256  0.4139 -0.0939
13694W        W30168  16.260   8.457  12.685  0.2146 -0.0797 -0.1010
13695W        W30169  17.196   2.894   2.052  0.0874 -0.2411  0.2569
13696W        W30170   4.724   0.535   4.949  0.1908 -0.3283 -0.1792
13697W        W30171   2.744   7.761  10.461  0.1746 -0.2523 -0.0630
13698W        W30172   6.939  12.101  13.329  0.2529 -0.1006  0.1187
13699W        W30173   2.241   7.116  11.117 -0.1586  0.1810 -0.1619
13700W        W30174  10.578  14.668   0.257  0.1267 -0.2367 -0.1218
13701W        W30175   7.040  15.638   4.722  0.1441  0.2467 -0.0484
13702W        W30176  10.259  17.973   2.911 -0.2436  0.1818  0.0192
13703W        W30177  18.425  15.764   1.859 -0.3009  0.1864  0.0464
13704W        W30178   2.846  10.381  10.830  0.0568  0.1389 -0.3500
13705W        W30179   2.873   4.678   1.109 -0.2160 -0.0181  0.2858
13706W        W30180   3.630   9.517   3.143  0.3847  0.1121  0.0015
13707W        W30181  11.285   8.673   3.164 -0.1040 -0.4001 -0.0711
13708W        W30182   4.878  15.034  11.517 -0.1832 -0.0361  0.0298
13709W        W30183   0.361   8.355   1.167  0.2603  0.0653 -0.1179
13710W        W30184  11.566  15.439   3.695 -0.0107 -0.0929 -0.2427
13711W        W30185  14.391   2.258  11.148 -0.4969  0.1639 -0.0861
13712W        W30186  13.362   6.761  12.127 -0.0663 -0.3375  0.1050
13713W        W30187   6.513   9.775   1.608 -0.0548 -0.0039 -0.0219
13714W        W30188  17.423   6.196   1.071  0.4419  0.0309  0.0811
13715W        W30189   1.071   3.802   3.484  0.1519  0.2752 -0.0372
13716W        W30190  15.479  16.532  12.028  0.2042  0.1615  0.0352
13717W        W30191   9.530  17.038   4.963 -0.1213 -0.0535 -0.2751
13718W        W30192   6.411  18.931  11.100 -0.3414  0.1160  0.2173
13719W        W30193   4.867   3.093  13.628  0.2894  0.3551 -0.0111
13720W        W30194  17.943  17.594  14.646  0.0290  0.0737 -0.0035
13721W        W30195  12.841  15.284   4.457  0.1089 -0.0556  0.1224
13722W        W30196  18.482   2.020  14.199 -0.5326 -0.1763  0.0459
13723W        W30197   8.592   0.398   4.601 -0.2150 -0.3978  0.1595
13724W        W30198  15.941   0.473  14.083  0.1277  0.0139 -0.0976
13725W        W30199   6.699   4.580   0.646  0.0055 -0.3444  0.0708
13726W        W30200   7.472   7.956   4.273  0.1504 -0.2106  0.2438
13727W        W30201  16.811   8.287   4.191  0.0360 -0.4274  0.3717
13728W        W30202  10.846   6.643  12.513 -0.2061 -0.0008  0.1830
13729W        W30203  12.754   2.193  12.216  0.0349 -0.0592  0.1191
13730W        W30204   6.575   6.525   9.989  0.1863 -0.1603  0.0753
13731W        W30205  13.992   0.524  12.413 -0.4088 -0.2845  0.0017
13732W        W30206   6.653  11.270  11.107  0.0235  0.2170 -0.4423
13733W        W30207  18.461  16.956   3.148  0.0905 -0.0442 -0.3484
13734W        W30208   6.939   7.631  12.044  0.1090  0.1273 -0.3405
13735W        W30209   2.535   4.803   9.974 -0.1541  0.0066  0.1694
13736W        W30210  16.129  13.702   1.271 -0.0442  0.1792 -0.1547
13737W        W30211  17.428  12.818  10.635 -0.2357 -0.0144 -0.0893
13738W        W30212  18.517  18.996  10.829  0.2166  0.0941 -0.0118
13739W        W30213  16.975   7.626   3.064  0.0940 -0.0696  0.1217
13740W        W30214  17.745   3.979   2.657 -0.2298 -0.2597 -0.2892
13741W        W30215  17.482  17.146   3.949  0.1075  0.0292 -0.1038
13742W        W30216   0.679  15.076  13.120 -0.0501  0.1413 -0.1047
13743W        W30217   4.938  18.843   0.607 -0.1592  0.3718  0.2480
13744W        W30218   9.362   4.628  14.155  0.1633  0.1253  0.0584
13745W        W30219   3.988  19.067  11.539 -0.0310  0.1351 -0.0766
13746W        W30220   8.303  10.335  10.661  0.0912 -0.1011 -0.1518
13747W        W30221  10.329   9.868   1.133  0.1030  0.0589  0.2185
13748W        W30222   1.493  14.994   0.297 -0.1925  0.0994  0.0362
13749W        W30223  17.967  16.116   4.046 -0.1609 -0.0609  0.3683
13750W        W30224  11.925  17.978   1.447 -0.0046 -0.2956  0.1719
13751W        W30225  10.350  10.610   3.658 -0.1361 -0.1264 -0.2716
13752W        W30226   9.539  12.344  12.464  0.1553 -0.1831 -0.2061
13753W        W30227   4.095  15.336   3.831 -0.0511  0.0196 -0.0955
13754W        W30228   7.508  15.431   3.254  0.0505 -0.0290 -0.1241
13755W        W30229   0.420  15.872  12.693 -0.1284  0.1690  0.1678
13756W        W30230   5.827   6.203  10.304 -0.2892 -0.4956  0.0839
13757W        W30231  15.253   2.392  14.190  0.3500  0.1336  0.0133
13758W        W30232   7.814   7.003   2.520  0.3258 -0.3432 -0.1886
13759W        W30233   1.010   3.270   4.265  0.4211 -0.0634  0.1637
13760W        W30234  10.119   9.559   3.884 -0.1594  0.1069  0.1435
13761W        W30235   8.190   7.565   1.849 -0.0321 -0.0836  0.2502
13762W        W30236  18.141   8.732   2.915 -0.0942 -0.1489  0.0206
13763W        W30237  10.018   0.531  13.821  0.3839 -0.0841  0.3902
13764W        W30238  15.020  14.431  11.247  0.0192 -0.0439  0.3398
13765W        W30239  11.870  16.668   2.233  0.0983  0.2121 -0.1688
13766W        W30240  13.524  13.633  13.518  0.1514 -0.0024 -0.0170
13767W        W30241   0.471   3.554   3.445  0.0946 -0.2171  0.2034
13768W        W30242  11.570   2.770   1.595 -0.0184  0.3595 -0.0300
13769W        W30243   7.343  17.466   0.275  0.2734 -0.3493  0.1264
13770W        W30244   9.254   9.185  14.032 -0.0269 -0.0417  0.0844
13771W        W30245  16.395  10.991  12.183  0.4717 -0.1781 -0.3291
13772W        W30246  17.190  13.782  12.826 -0.1132  0.2989 -0.1258
13773W        W30247  17.650  10.760  14.667  0.0320 -0.3632  0.1750
13774W        W30248   3.205   4.110   3.687 -0.0376 -0.3547  0.1929
13775W        W30249  17.862  12.642   4.988 -0.0921  0.0516 -0.0219
13776W        W30250  13.136  18.261   4.334 -0.3263  0.2265 -0.2988
13777W        W30251  17.274   9.601   1.509 -0.1683  0.0735  0.3240
13778W        W30252  16.655   1.850  11.129 -0.1131 -0.0720  0.1261
13779W        W30253   7.639  17.076  12.768 -0.1161  0.0912 -0.2224
13780W        W30254   6.575  12.065  12.276 -0.3345 -0.0649 -0.0370
13781W        W30255   3.330   0.629   2.756 -0.2083  0.1024 -0.0486
13782W        W30256   5.568  10.535  10.921  0.0265  0.1478 -0.0088
13783W        W30257   1.729   5.612   4.576  0.0652  0.0521 -0.1298
13784W        W30258  18.217   6.048  12.639  0.2623  0.1669 -0.2928
13785W        W30259   5.105  14.096   3.494 -0.1079  0.0806  0.0857
13786W        W30260   4.807  17.760   4.767  0.3540  0.0257 -0.2559
13787W        W30261  16.110   1.236   3.331  0.1091 -0.1310  0.2524
13788W        W30262  18.166   0.519   9.490 -0.3582  0.0661  0.0621
13789W        W30263  15.067   1.510   4.353 -0.0702 -0.0129  0.1233
13790W        W30264   9.319  18.782   4.536 -0.1377 -0.0286 -0.0582
13791W        W30265  11.148  10.576  11.874  0.1216  0.2178  0.1096
13792W        W30266  13.812  13.692  11.208 -0.1859  0.1625 -0.1248
13793W        W30267  15.991  14.071  13.797 -0.0085 -0.2103 -0.0770
13794W        W30268   5.842  13.683  12.811  0.1145 -0.0887  0.0276
13795W        W30269  11.214  13.101   3.641 -0.0006 -0.0914 -0.1734
13796W        W30270  12.956  18.077   9.910 -0.2134 -0.2501 -0.0773
13797W        W30271  17.760  17.976   2.624  0.1159  0.0689 -0.2155
13798W        W30272  13.534   6.120   1.894 -0.0795  0.0580 -0.1029
13799W        W30273   6.446   1.982   1.895  0.1522 -0.1656  0.0220
13800W        W30274   1.799   5.509  13.294 -0.2057 -0.0438 -0.1780
13801W        W30275   1.579  14.459  11.111  0.2044  0.5490  0.1843
13802W        W30276  10.706   4.249  15.129 -0.0116 -0.1765 -0.1028
13803W        W30277  10.474  17.747   3.620 -0.3002 -0.0272  0.1501
13804W        W30278   5.303   3.115  12.914 -0.1854  0.1422  0.0859
13805W        W30279   7.139  14.943  12.831 -0.1723 -0.0748 -0.0765
13806W        W30280  11.669   1.455   3.557  0.2164 -0.0227 -0.2894
13807W        W30281   5.136   6.995   0.994 -0.1889  0.1288 -0.0261
13808W        W30282  13.372   6.232   3.574  0.0105  0.1661  0.1444
13809W        W30283   1.418   4.114   0.993 -0.0683  0.2806 -0.0954
13810W        W30284  10.245  17.040   1.446  0.0970  0.1603  0.1551
13811W        W30285   3.038  12.969  11.247 -0.2722  0.0049 -0.1819
13812W        W30286   4.535   5.480  13.443 -0.1160 -0.0375 -0.0889
13813W        W30287   2.976  16.685  11.697 -0.1914 -0.0836  0.0820
13814W        W30288   5.976   4.171  14.732 -0.0653 -0.1893 -0.2636
13815W        W30289   2.638   9.174   9.862  0.1046 -0.2718  0.0978
13816W        W30290   9.051  12.225  13.329 -0.0285 -0.2043 -0.2018
13817W        W30291  10.144   5.304   2.143  0.1885  0.0515 -0.0878
13818W        W30292  15.064   7.577   6.183  0.3029  0.0110  0.1899
13819W        W30293   4.970  12.215   3.926 -0.1922  0.3209 -0.0598
13820W        W30294  16.810  11.428  14.370  0.3426  0.4204  0.0222
13821W        W30295  10.455   7.365   9.997  0.0241  0.0631 -0.0866
13822W        W30296   5.109   0.388   2.765  0.2505  0.0575 -0.0130
13823W        W30297  16.304   9.369  12.963 -0.1008  0.0024  0.0025
13824W        W30298   6.663   4.039   2.098 -0.0695 -0.0978  0.0540
13825W        W30299   4.121  15.781  11.338  0.3534 -0.0215  0.0276
13826W        W30300   6.129  14.276  14.328  0.1921 -0.2461  0.2335
13827W        W30301   8.259  13.689  11.686  0.1071  0.0661 -0.3176
13828W        W30302   3.421  11.885  14.243 -0.2713 -0.2113 -0.0666
13829W        W30303  13.867  11.700   2.024  0.1694 -0.2299  0.1123
13830W        W30304   2.372   4.421  10.260  0.2713 -0.1923  0.0560
13831W        W30305  15.783  17.510  12.152  0.0273 -0.0600 -0.0067
13832W        W30306   9.370   4.591  12.337  0.5615  0.1143 -0.0540
13833W        W30307   8.797  14.932  12.175 -0.1557  0.1966  0.0418
13834W        W30308   9.573  13.117   2.853 -0.0228  0.4331  0.1439
13835W        W30309  17.930  17.060   3.070  0.0818  0.1455 -0.2832
13836W        W30310  10.615  10.656  11.853 -0.0460 -0.2497  0.0495
13837W        W30311   9.229   9.776   2.844  0.2213 -0.2157 -0.2718
13838W        W30312   5.643   6.654   5.934 -0.0453 -0.0150  0.0282
13839W        W30313   5.480   0.325  12.029 -0.0722 -0.1985 -0.0173
13840W        W30314   9.346   4.640   1.553 -0.1897 -0.0361 -0.1203
13841W        W30315  14.346   5.784  11.679  0.0991 -0.0097 -0.0508
13842W        W30316  14.013  15.358   1.777  0.2195 -0.0757  0.0727
13843W        W30317  17.600   1.146  14.021 -0.4127  0.1522  0.3727
13844W        W30318   6.721   4.482   4.506 -0.0186  0.0560 -0.1285
13845W        W30319  14.423   8.840   1.141  0.3640  0.0591 -0.1474
13846W        W30320   8.053  17.539   3.370  0.1836 -0.1126 -0.2000
13847W        W30321   4.734   4.806   1.724  0.1793 -0.0206 -0.1005
13848W        W30322  16.692   9.432  13.460 -0.1500 -0.0542  0.1882
13849W        W30323   1.136  16.200   2.345  0.0083 -0.1253 -0.1226
13850W        W30324  16.064   0.760  11.186  0.1440 -0.1063  0.0451
13851W        W30325  18.738   5.436   4.478 -0.2085 -0.2180  0.1954
13852W        W30326  13.405   1.300   5.007 -0.0002 -0.4958 -0.3452
13853W        W30327  16.363   6.067   4.827 -0.1021  0.1887  0.0152
13854W        W30328   1.186   8.674   2.423  0.0879 -0.2515  0.1012
13855W        W30329   3.089   4.055  11.629 -0.1749  0.1489  0.0995
13856W        W30330   8.612  18.186   2.827  0.1187 -0.0021 -0.0923
13857W        W30331  15.525   4.483   1.235  0.2345  0.1734 -0.0352
13858W        W30332  11.261   4.113  12.052  0.0356 -0.1117 -0.2549
13859W        W30333  12.424   1.603  12.923  0.2308 -0.1939 -0.1666
13860W        W30334  11.944   9.728  10.806  0.2227 -0.1067 -0.0542
13861W        W30335   9.764   6.202   0.692  0.5256  0.3893 -0.2170
13862W        W30336  19.158   3.876  11.260  0.1932 -0.4415 -0.1824
13863W        W30337   9.182  12.248   2.549  0.0022  0.1891 -0.1379
13864W        W30338   0.721  13.051   0.922 -0.1023 -0.0507 -0.2317
13865W        W30339  18.123  15.178  14.093  0.2570  0.0496 -0.0756
13866W        W30340  16.859   0.833  12.645  0.1038 -0.3327 -0.0231
13867W        W30341   4.741  18.103   3.453 -0.4333  0.3280  0.0481
13868W        W30342  12.701  16.340  12.322  0.0436 -0.0956  0.0009
13869W        W30343  18.297   0.573  13.140 -0.0237 -0.2098  0.1332
13870W        W30344   4.055   6.534   4.425  0.3334  0.1678 -0.1798
13871W        W30345  15.837   3.438  14.853 -0.3214 -0.1845  0.2814
13872W        W30346   8.348  18.420  13.341  0.0408  0.1361  0.6220
13873W        W30347  15.498  18.988  11.040  0.2649 -0.3010 -0.0707
13874W        W30348  12.038  17.086  12.540 -0.0921  0.1560 -0.1269
13875W        W30349  12.655  14.672   4.967 -0.4377  0.1321 -0.1101
13876W        W30350   7.998   2.340   5.198 -0.1874  0.0504  0.0230
13877W        W30351  10.478   5.538   2.479 -0.1485  0.0916 -0.0207
13878W        W30352  17.284   3.128   9.617 -0.0146 -0.2084 -0.0865
13879W        W30353  16.534   7.991   1.695 -0.0290  0.4559  0.3586
13880W        W30354  18.836   5.782   9.847 -0.0612 -0.0145 -0.4230
13881W        W30355   9.663  15.941   0.521  0.2807 -0.0872  0.0016
13882W        W30356   4.445   8.399  11.069  0.2838  0.0662 -0.4036
13883W        W30357   1.745   9.925   4.096 -0.0180  0.0519  0.1215
13884W        W30358   2.030   8.374   0.928  0.1400  0.4384  0.4090
13885W        W30359  15.680   4.265  14.298 -0.1400 -0.0216 -0.3187
13886W        W30360  17.472   9.986   1.943 -0.0629 -0.3233  0.0322
13887W        W30361  13.994  16.320   0.659  0.1036  0.3083  0.1163
13888W        W30362  17.123  13.869   0.958  0.2709 -0.1484  0.3445
13889W        W30363  15.265  11.865   3.671  0.0867 -0.1004 -0.0293
13890W        W30364  13.758  18.211  12.864 -0.2680 -0.0471 -0.1330
13891W        W30365   8.511   2.553  14.962 -0.1330 -0.1405  0.0185
13892W        W30366  11.917  17.288   2.715 -0.0169  0.0166  0.1517
13893W        W30367  13.956  13.333  13.837  0.1856  0.2662  0.1154
13894W        W30368   5.917  14.519   0.149  0.0032  0.0263  0.0443
13895W        W30369  11.410   8.079   3.739 -0.0727  0.1471  0.2956
13896W        W30370  17.895  11.930  13.650 -0.0704  0.0940  0.0772
13897W        W30371   0.616  13.035  15.028 -0.0391  0.2187 -0.0756
13898W        W30372  17.400  16.365   2.474 -0.0086 -0.0557  0.0840
13899W        W30373   6.260   0.691   4.419 -0.0846 -0.0328  0.0840
13900W        W30374   3.198   4.882   3.100 -0.1515  0.3281 -0.1508
13901W        W30375  15.386   7.835   5.221  0.0601 -0.0281 -0.0236
13902W        W30376   0.241   5.490   1.396 -0.1073 -0.0550  0.0264
13903W        W30377  11.788  19.035  11.580  0.0112 -0.0068 -0.1558
13904W        W30378   7.626  15.578  13.339  0.2461  0.0251 -0.0951
13905W        W30379   8.263   5.650   0.973 -0.4194 -0.1895  0.0605
13906W        W30380   5.676   6.136  12.274 -0.2735  0.3190 -0.0072
13907W        W30381   3.637   5.900  12.729 -0.1494 -0.0034  0.0345
13908W        W30382   4.974   1.865   3.379 -0.0244  0.0954  0.0215
13909W        W30383   5.989   9.044   5.389 -0.0086 -0.1004  0.0099
13910W        W30384  13.669  16.592  11.882 -0.0797  0.2270  0.0870
13911W        W30385   5.681   0.958   4.408 -0.0367 -0.0449  0.2231
13912W        W30386   2.330  13.797  11.904 -0.1310  0.3370 -0.0430
13913W        W30387  11.694  12.983   3.474 -0.0212 -0.2256  0.0919
13914W        W30388   7.915  17.903  14.238 -0.1001 -0.3378  0.1092
13915W        W30389   6.302   8.697   2.149  0.1560  0.0874  0.0117
13916W        W30390  15.769   4.216  12.146 -0.0228  0.1069 -0.2552
13917W        W30391   7.114  11.465  12.090  0.0064 -0.0265  0.2867
13918W        W30392  10.252   4.666   1.545 -0.1972 -0.0636 -0.2200
13919W        W30393   6.088   1.256   5.171  0.1036 -0.3930  0.5100
13920W        W30394   6.235   0.506   2.253 -0.3383  0.1936 -0.0019
13921W        W30395  14.740   6.205  10.934 -0.1268  0.0195 -0.1986
13922W        W30396   4.263   7.600   0.616 -0.0203 -0.0053  0.2141
13923W        W30397   8.763   7.240  11.212  0.0275  0.0412  0.1019
13924W        W30398   0.496  15.382   2.203 -0.3884  0.3495 -0.1728
13925W        W30399  14.566  14.458  12.062  0.0378 -0.1815  0.0923
13926W        W30400   1.372  17.114   2.046 -0.0492  0.3214 -0.0885
13927W        W30401   6.218   8.648  13.473  0.3514 -0.1716  0.1990
13928W        W30402  13.729  10.202   5.368  0.1182  0.2838  0.1541
13929W        W30403  11.842  15.872   3.514  0.1781  0.2804  0.2927
13930W        W30404   0.707   6.801   3.370  0.1590  0.1231 -0.2646
13931W        W30405  15.943   4.642  12.819  0.0256  0.1887 -0.1347
13932W        W30406   1.261  16.739   5.722  0.4237 -0.1113 -0.1047
13933W        W30407   9.368  16.659  11.158 -0.2297 -0.2865 -0.0576
13934W        W30408   9.357   8.464  13.197  0.0889 -0.1492  0.0448
13935W        W30409   2.066   5.285   0.698  0.0182 -0.1912  0.1126
13936W        W30410   8.542  14.442  14.475 -0.1926  0.1579  0.0302
13937W        W30411  16.358  16.936   9.437 -0.0568  0.1575 -0.1568
13938W        W30412  14.781  15.787   2.314  0.1964 -0.0717 -0.1101
13939W        W30413  17.943  13.552  11.651 -0.0096 -0.0833  0.1434
13940W        W30414  11.152  11.077  10.715 -0.1084  0.0700  0.1701
13941W        W30415  19.146   2.373   4.423 -0.5101 -0.0328  0.0330
13942W        W30416  11.428  17.946   5.882  0.2782 -0.0046  0.1814
13943W        W30417   2.968   5.770  10.720 -0.0568  0.3097 -0.2055
13944W        W30418   8.782   0.738   2.883 -0.1208  0.0853 -0.0668
13945W        W30419   1.986   9.056   1.957 -0.0492 -0.0392 -0.1500
13946W        W30420   0.056   4.601   2.780  0.1755  0.2302  0.1442
13947W        W30421  15.183   0.057   0.306 -0.0590  0.2531  0.1547
13948W        W30422   1.690  15.043  14.702  0.1528 -0.2388  0.0716
13949W        W30423   9.076   3.329   1.524 -0.1355  0.1200  0.0178
13950W        W30424  17.654  17.587  11.741 -0.2167 -0.0686  0.2108
13951W        W30425  15.480  12.496   3.055 -0.0922 -0.1612 -0.0163
13952W        W30426  19.127   9.034   4.378  0.2399 -0.4968 -0.0531
13953W        W30427   9.382  15.976   4.326 -0.1792 -0.1111  0.0910
13954W        W30428   2.874   8.007   3.043 -0.1508  0.0210  0.1070
13955W        W30429   8.161  17.824  11.458 -0.2101  0.1357  0.1185
13956W        W30430  14.331   6.218   3.257  0.0647  0.0590  0.1004
13957W        W30431  15.422   9.707   1.479  0.0578 -0.0497 -0.0598
13958W        W30432  12.328  17.220   0.469 -0.1465  0.0385 -0.1841
13959W        W30433   4.538   2.013  11.100 -0.1146  0.0570 -0.1197
13960W        W30434   4.854  17.395  14.993  0.2948  0.0779  0.0385
13961W        W30435  16.470  18.254  14.425 -0.0794  0.0086  0.0158
13962W        W30436  16.481  16.249   3.895 -0.1334  0.2378 -0.1954
13963W        W30437   0.406  10.543  14.136  0.3284 -0.1267  0.5594
13964W        W30438  19.057  19.066   1.306 -0.3991 -0.1719  0.1688
13965W        W30439   1.414  12.574  12.982 -0.3599  0.3543 -0.2435
13966W        W30440  18.463   8.683  12.926 -0.1714 -0.0483 -0.1093
13967W        W30441  12.546   0.619  11.295 -0.0416  0.0502  0.1456
13968W        W30442   8.846   2.829  13.187  0.0490  0.2847 -0.0329
13969W        W30443   3.102   6.862  11.899  0.2454  0.2391 -0.0502
13970W        W30444  18.215   6.478   1.247 -0.1822 -0.1281 -0.4535
13971W        W30445  13.015  16.973   2.128  0.1250 -0.0381  0.2313
13972W        W30446  15.688   9.398   9.592 -0.1280 -0.1209  0.0491
13973W        W30447   8.982   2.535  14.800  0.0099  0.0486 -0.0388
13974W        W30448  12.851  12.616   5.221  0.0858  0.0155 -0.1307
13975W        W30449  17.931   1.246   1.150 -0.1725 -0.1957 -0.3351
13976W        W30450   6.984  12.070   0.735 -0.2846 -0.0195 -0.1905
13977W        W30451   9.598   5.819  11.893 -0.0996 -0.3200  0.3482
13978W        W30452   2.629   9.795  12.482  0.1455 -0.0653 -0.1061
13979W        W30453   7.818   1.702   2.407 -0.0675  0.0891  0.1156
13980W        W30454  13.900   8.602  11.206  0.1991  0.1233 -0.2575
13981W        W30455   0.601   3.471  11.753 -0.1155 -0.3070 -0.0121
13982W        W30456  13.584  14.743  10.454  0.0037  0.0854 -0.0134
13983W        W30457  11.056   4.206   1.337 -0.0645  0.1118 -0.1602
13984W        W30458  17.186  13.574  13.734 -0.3605 -0.0747 -0.2424
13985W        W30459  12.266   4.948  12.558 -0.1428 -0.1277 -0.2040
13986W        W30460   8.663  10.356   1.424 -0.1868 -0.0819  0.1553
13987W        W30461  15.923  18.841  11.661  0.1043  0.1734  0.1880
13988W        W30462  12.402   1.935  10.926  0.2261  0.0807 -0.0688
13989W        W30463   3.765   6.197   3.124  0.0437 -0.3067  0.2475
13990W        W30464  18.873  12.620  14.955 -0.1391 -0.0833  0.0257
13991W        W30465   1.353  10.486  14.438  0.0813  0.0029  0.0998
13992W        W30466   8.700  15.135   3.422  0.1741  0.3345 -0.3025
13993W        W30467   2.344   6.699   4.078 -0.4190  0.1632  0.2027
13994W        W30468   2.748  14.832   4.538 -0.2262 -0.1565  0.0697
13995W        W30469  16.635  13.963   6.008 -0.0463  0.1596  0.3103
13996W        W30470   9.964  11.938   0.575 -0.2138  0.2058 -0.0828
13997W        W30471   5.476   4.451   3.078 -0.0189  0.0513 -0.0901
13998W        W30472  13.033   5.231   1.075 -0.3631 -0.1295 -0.3955
13999W        W30473   4.212   7.005  14.929 -0.1305  0.0353 -0.1694
14000W        W30474  18.104  16.261   3.558 -0.1522 -0.1975  0.3108
14001W        W30475  12.013   6.262   3.580  0.0490 -0.0957  0.1208
14002W        W30476   2.249   5.962   1.782 -0.0918  0.2111 -0.0664
14003W        W30477  17.309  11.886  11.694  0.1744  0.0718 -0.0430
14004W        W30478   8.933   2.498   1.196 -0.4257  0.1769 -0.4265
14005W        W30479   5.059   4.567  13.017  0.0131  0.2131 -0.3371
14006W        W30480   2.944   0.139  12.820 -0.1570 -0.1364  0.2683
14007W        W30481  16.835   0.048  13.760 -0.0796 -0.0028  0.2970
14008W        W30482   9.482  18.580   5.058 -0.0087 -0.2406 -0.1069
14009W        W30483   5.129  14.773  13.814 -0.0311 -0.1915  0.0404
14010W        W30484   0.486  17.393  14.808 -0.0322 -0.2771  0.1279
14011W        W30485   5.978  13.474   0.268 -0.1044 -0.0299 -0.1470
14012W        W30486   8.690   7.447   1.845 -0.0293  0.2637 -0.2396
14013W        W30487  12.254  18.446  14.168  0.1920  0.0513  0.0125
14014W        W30488  15.874   7.829  11.717 -0.1037  0.4025 -0.1524
14015W        W30489   1.220   6.970   3.288 -0.1463 -0.0621 -0.0811
14016W        W30490  10.354   9.173   2.217  0.1917  0.2890 -0.1670
14017W        W30491   6.936  10.585   0.276  0.2674 -0.1692 -0.1130
14018W        W30492  12.396   2.386  12.812  0.0092  0.1746 -0.0711
14019W        W30493  14.151   3.997   2.618 -0.0564 -0.3417 -0.0027
14020W        W30494   0.135   4.383   3.312  0.1569  0.1880  0.4344
14021W        W30495   4.868  17.517   0.565  0.1204 -0.0914 -0.2270
14022W        W30496  16.684  18.466   5.546 -0.0068 -0.0283  0.1010
14023W        W30497   5.316   9.830   1.870 -0.1891  0.1944  0.0252
14024W        W30498   3.671  10.243   2.411 -0.2716  0.0097 -0.0927
14025W        W30499  19.089   8.835   1.246  0.0905 -0.0518 -0.0167
14026W        W30500   6.911   7.788   4.211  0.2551  0.1734  0.2564
14027W        W30501  17.648   3.781  10.558  0.0681 -0.1127  0.5185
14028W        W30502   3.261  14.121   1.072  0.2296  0.3576  0.1231
14029W        W30503   2.040   2.386   2.647 -0.1706 -0.1684  0.0551
14030W        W30504  10.249   2.940   5.512  0.1345 -0.3612 -0.0140
14031W        W30505   1.188  16.277  14.275 -0.0022 -0.0388 -0.1681
14032W        W30506  17.831  14.117  12.327 -0.0084 -0.3462 -0.0075
14033W        W30507   4.616   6.184  10.710 -0.0941 -0.1494  0.0050
14034W        W30508   8.035  11.483   0.803 -0.2826 -0.0073  0.0924
14035W        W30509   3.869  10.652  10.590  0.2924  0.1765 -0.0950
14036W        W30510   1.266   7.479   1.595 -0.0091 -0.0367 -0.0367
14037W        W30511   8.384  17.647   4.308 -0.1139  0.0093 -0.1022
14038W        W30512  11.461  12.786   1.435 -0.1462 -0.0509 -0.1404
14039W        W30513   6.587   9.777   1.146  0.1539  0.3587 -0.2099
14040W        W30514   4.134   0.192  13.564 -0.5180 -0.1717  0.0950
14041W        W30515   0.881  14.222   3.429  0.1247  0.2756 -0.2189
14042W        W30516   8.302  10.483  11.297  0.1961 -0.0977 -0.1323
14043W        W30517  10.585   3.821   1.615  0.1964 -0.1345 -0.0127
14044W        W30518  17.877   7.702  13.024  0.0376  0.2042  0.1753
14045W        W30519  11.636  13.948  11.580 -0.3845 -0.1362 -0.1162
14046W        W30520  15.513  10.974  14.808  0.3328  0.1298  0.0312
14047W        W30521   8.943  12.373  14.667 -0.0706 -0.0338  0.0111
14048W        W30522   1.310  12.568   2.570 -0.0159 -0.5125  0.0341
14049W        W30523  12.192   1.958   0.826  0.2082  0.0643 -0.1330
14050W        W30524   4.169   8.692  11.352 -0.1620  0.0458 -0.2222
14051W        W30525   5.660   0.936  14.976  0.1381  0.1118  0.0357
14052W        W30526  17.550   4.702  10.427 -0.3311  0.0468  0.4318
14053W        W30527  13.004   4.443  14.387  0.0891 -0.3344  0.1286
14054W        W30528   1.032  11.782  12.626  0.2239 -0.2434 -0.1180
14055W        W30529   0.658  17.245   1.445 -0.1029 -0.1645  0.1625
14056W        W30530   6.012   2.590  12.271 -0.0390 -0.0693  0.2828
14057W        W30531  18.317  15.083   0.315 -0.2104  0.0955  0.0811
14058W        W30532  14.335  17.166   4.810  0.1539 -0.0910 -0.1832
14059W        W30533   8.485  18.983  13.242  0.3461 -0.0743 -0.1049
14060W        W30534  17.433   2.638  12.430 -0.0522 -0.1016 -0.0926
14061W        W30535   2.228  11.984  10.755 -0.0417  0.3215  0.0157
14062W        W30536  15.119  15.414   0.285  0.1798  0.2726  0.1085
14063W        W30537   3.206  12.944  14.964 -0.1187  0.0770 -0.1454
14064W        W30538  18.649  10.126   4.661 -0.2209  0.1188 -0.1904
14065W        W30539   2.849   0.309  13.540  0.3450 -0.0945 -0.0405
14066W        W30540   7.769  16.549   1.043 -0.2606  0.3486  0.1832
14067W        W30541  11.796   2.992   0.724 -0.0294 -0.0958  0.1105
14068W        W30542  17.935   5.988  10.876 -0.0669  0.0747  0.0270
14069W        W30543   4.065  18.800  14.625  0.0692  0.0158 -0.2711
14070W        W30544   7.072   8.783   4.726 -0.1741 -0.0132 -0.3882
14071W        W30545   9.674   8.309  12.131 -0.2603  0.2373 -0.2819
14072W        W30546   6.483   3.431   4.658 -0.2624 -0.0888 -0.1258
14073W        W30547   7.221   2.266   4.508  0.1161  0.0971 -0.0171
14074W        W30548   4.461   5.697   2.893  0.2428  0.5475 -0.0687
14075W        W30549   2.770  18.080  13.126  0.2690  0.0280 -0.0666
14076W        W30550   0.475   3.943  12.757  0.2827  0.0170  0.1322
14077W        W30551  14.853   1.856   3.642 -0.2067 -0.1402  0.4089
14078W        W30552   8.761   6.049  14.458 -0.0479  0.2559  0.1886
14079W        W30553   3.373   1.246   4.119  0.0191 -0.1667  0.2312
14080W        W30554  10.707   1.680   9.526  0.0822  0.1287  0.1813
14081W        W30555  12.902   0.118  13.078  0.2143  0.0063 -0.0674
14082W        W30556   1.430   3.102  12.175 -0.1055  0.1927  0.0770
14083W        W30557  10.610  13.024  10.204  0.1133  0.0063 -0.0373
14084W        W30558  17.584  15.154   1.083  0.1368  0.2682 -0.1703
14085W        W30559   0.951  17.603   3.174 -0.1444  0.1372 -0.2327
14086W        W30560  17.306  12.524   2.173  0.3571 -0.0268 -0.4131
14087W        W30561  16.920   4.010  13.675 -0.1276 -0.0451 -0.0620
14088W        W30562   4.733  11.083  13.206  0.0667 -0.0978  0.0308
14089W        W30563  13.783  12.823  11.917 -0.0471 -0.2495  0.1362
14090W        W30564   6.913   4.466  14.134  0.1531  0.0468  0.1021
14091W        W30565   1.745   2.034  11.762  0.2484 -0.2574  0.0275
14092W        W30566   3.736   6.222   1.230 -0.0468  0.2326  0.2010
14093W        W30567  13.170  13.589   2.030  0.1803 -0.1297  0.0810
14094W        W30568  15.862   7.074   2.496  0.0035  0.1035  0.0766
14095W        W30569   7.216  17.019  14.243 -0.5620  0.0223 -0.2936
14096W        W30570  18.625  15.483   0.507  0.1110 -0.1097  0.3655
14097W        W30571  13.397   2.404   3.913  0.0167  0.1341  0.0326
14098W        W30572   0.123   5.407  11.079  0.1101  0.1996 -0.1597
14099W        W30573  12.687  15.919  10.661 -0.0453  0.3073 -0.1207
14100W        W30574   4.008  12.583  10.358  0.0056 -0.1756 -0.1105
14101W        W30575  14.352   0.110   0.271  0.0045 -0.0871  0.2455
14102W        W30576   9.700   3.195   2.767 -0.2405 -0.0862 -0.0105
14103W        W30577   9.194  12.847   3.879  0.0685 -0.1788 -0.1123
14104W        W30578  16.688  18.615   1.957  0.1431 -0.0379  0.0420
14105W        W30579  11.921   6.827   5.324  0.1246  0.2259  0.0853
14106W        W30580  16.331   4.185   4.557 -0.3042 -0.0292  0.0183
14107W        W30581  14.803  16.633   2.485 -0.0411 -0.0287 -0.0802
14108W        W30582  12.866   1.009  12.229  0.4493 -0.0217  0.1084
14109W        W30583   9.085  14.249   3.886  0.1884 -0.0650 -0.1800
14110W        W30584  10.622   0.092  13.984  0.1472  0.0170 -0.0426
14111W        W30585   5.177  10.466  13.671  0.1729  0.2561  0.0210
14112W        W30586  10.210   6.047   2.216  0.1006  0.0634  0.1054
14113W        W30587   8.130   2.459  13.013  0.0148  0.0965  0.2625
14114W        W30588   6.695   0.281   0.101 -0.0946 -0.1002  0.2118
14115W        W30589   8.045   4.279   9.308  0.2487 -0.1870 -0.0327
14116W        W30590   5.694  16.668  13.460  0.2041  0.0894  0.1138
14117W        W30591  10.130  14.556  14.180 -0.0942  0.1850 -0.1346
14118W        W30592  15.383  18.786  11.484 -0.0220 -0.1813  0.0830
14119W        W30593  15.339   5.569  14.243  0.0014  0.0453 -0.1478
14120W        W30594  10.798  18.314  13.831 -0.2135  0.0584 -0.3380
14121W        W30595   3.251  18.587   1.752 -0.0695  0.1179 -0.2093
14122W        W30596  10.059   4.370   1.932  0.1805 -0.0393 -0.1677
14123W        W30597   3.096  12.881   0.640 -0.0615 -0.0254 -0.0751
14124W        W30598  11.963   2.765  12.138 -0.0000  0.0655  0.0165
14125W        W30599  10.688  13.687  13.361  0.1508 -0.0727  0.2744
14126W        W30600  14.699  14.972   2.037  0.0201  0.0132  0.1841
14127W        W30601  11.279  13.932   0.512 -0.1628  0.2057 -0.0696
14128W        W30602   7.704  14.861  10.485 -0.0525 -0.1696 -0.1731
14129W        W30603  13.778  14.586  13.846 -0.2283 -0.2126  0.2941
14130W        W30604  13.357  11.620   2.175  0.0487 -0.0645  0.2076
14131W        W30605   8.909  12.527   4.535  0.3173  0.0113 -0.1574
14132W        W30606   5.703  15.477   0.702 -0.0240 -0.2557  0.0295
14133W        W30607  11.459   9.678  14.090 -0.0655  0.2200 -0.1668
14134W        W30608  11.056  12.634   2.917 -0.2674  0.3046 -0.1535
14135W        W30609   1.025   8.142   3.193 -0.3735 -0.0553 -0.0712
14136W        W30610  12.954   3.908   2.922  0.3720 -0.1789  0.1852
14137W        W30611  19.037   6.349  11.135  0.1541  0.1029 -0.1339
14138W        W30612  13.762  11.202   0.499  0.1261  0.1629 -0.2479
14139W        W30613  18.909   1.386  11.473  0.1452  0.2289 -0.0995
14140W        W30614   0.840   5.604   0.517 -0.3491  0.0506 -0.1280
14141W        W30615   9.566   0.950   3.712  0.0907 -0.1268 -0.0509
14142W        W30616   4.845   2.529   2.861  0.1257 -0.3843 -0.2357
14143W        W30617   1.770   6.013   1.985  0.1232 -0.0892 -0.2576
14144W        W30618  12.307  14.510   2.717 -0.0606 -0.0355  0.1516
14145W        W30619  15.574   0.178   0.620 -0.5737  0.0221  0.4480
14146W        W30620   5.016  12.110   0.687 -0.3041 -0.0811  0.2341
14147W        W30621   7.634   3.273  11.344  0.0564  0.0383 -0.2912
14148W        W30622   3.682   3.429   4.201 -0.0575  0.2835  0.3407
14149W        W30623   3.248   1.815   5.609 -0.1195 -0.0855 -0.0808
14150W        W30624   5.923   0.451   0.652  0.3832 -0.1726  0.0386
14151W        W30625  11.809   4.882  14.950  0.0673 -0.2845 -0.0835
14152W        W30626   7.829  14.501  12.454 -0.4527 -0.2496 -0.1209
14153W        W30627   3.708  14.854   2.416 -0.2784  0.0596 -0.1822
14154W        W30628  14.130   0.169  14.340  0.1129 -0.1412  0.0395
14155W        W30629   4.737   1.881   4.755 -0.0959  0.0162  0.0810
14156W        W30630   3.956  17.498   1.642  0.1231 -0.1174  0.2740
14157W        W30631   1.007   5.135   5.602 -0.1140 -0.2881 -0.0772
14158W        W30632  12.381  18.626  13.618  0.0981  0.0601 -0.2978
14159W        W30633  13.580   5.340  12.990  0.2362  0.0551  0.0278
14160W        W30634   5.819  11.317   2.643  0.2778 -0.2355 -0.0299
14161W        W30635   9.768  13.481  11.753 -0.3624 -0.1904  0.1085
14162W        W30636   1.385   5.092   3.834  0.0017 -0.1353 -0.0373
14163W        W30637  10.806  14.837  11.038 -0.0534 -0.1546 -0.4235
14164W        W30638   9.163   1.327   0.404  0.0564  0.2598 -0.1211
14165W        W30639   2.664   0.758  11.965  0.1532  0.1344 -0.3612
14166W        W30640  15.606   8.245   5.142  0.2478 -0.1443  0.3385
14167W        W30641  16.335   8.261   2.907  0.3954  0.0120 -0.1644
14168W        W30642  14.988   3.947   1.900  0.0584  0.1851  0.0666
14169W        W30643  10.995  15.652  14.301 -0.2664  0.0733  0.3811
14170W        W30644   4.918   5.369   4.342  0.0976 -0.0044  0.1244
14171W        W30645   5.735   7.491   1.484 -0.0155  0.2122 -0.1954
14172W        W30646  16.526  17.005  14.523 -0.2278  0.2023  0.0107
14173W        W30647   8.771  10.622   0.138 -0.1427 -0.1347 -0.0824
14174W        W30648  16.478   0.282  14.439 -0.1320  0.3949  0.2195
14175W        W30649  14.789   3.504   0.048 -0.3709  0.0454  0.0905
14176W        W30650  12.999   1.227   0.711 -0.3013  0.1227 -0.0641
14177W        W30651   8.986  14.085   5.027 -0.3267  0.2431  0.3930
14178W        W30652  10.719  10.135  13.649 -0.0036 -0.2678  0.1485
14179W        W30653   0.024   7.372  12.740 -0.1617  0.2039  0.1400
14180W        W30654  13.139   9.955   1.219 -0.1849 -0.0719 -0.2029
14181W        W30655   9.117  10.050  12.317 -0.0820 -0.0857  0.1229
14182W        W30656  12.947  15.743   2.637 -0.0288 -0.0400  0.0887
14183W        W30657   8.110   7.165  11.096 -0.1423 -0.0267  0.0124
14184W        W30658  11.265  10.535   4.136 -0.0170  0.3231  0.0463
14185W        W30659   6.651  11.140  14.442 -0.0770  0.0491  0.0605
14186W        W30660   5.451  12.338  11.286  0.0859  0.3400  0.0004
14187W        W30661  16.073  10.729  14.043 -0.0741 -0.0177  0.0762
14188W        W30662   3.610   5.429   4.478 -0.0800  0.1157 -0.1349
14189W        W30663  11.776   2.519   2.834  0.0834 -0.2894 -0.0738
14190W        W30664  17.493   6.302   0.568 -0.1572  0.0083  0.0666
14191W        W30665   4.218  13.439   2.093 -0.1706  0.2208  0.0660
14192W        W30666   5.566  14.630  10.844 -0.0488  0.1710 -0.2751
14193W        W30667   5.258   9.829   2.353  0.0578 -0.0947  0.0999
14194W        W30668   0.119   4.887  10.750  0.2438  0.1543  0.0685
14195W        W30669  15.268   5.772  11.931 -0.0713 -0.0639 -0.0701
14196W        W30670  18.978  17.271   3.788 -0.1441 -0.0170 -0.0526
14197W        W30671   8.722   6.344  13.440 -0.0380 -0.3793  0.0192
14198W        W30672   4.973   3.996   0.136  0.0940  0.0012  0.1630
14199W        W30673  17.238   1.179  13.034 -0.3476 -0.1499  0.0698
14200W        W30674  14.049  11.613  11.690  0.1232 -0.0905 -0.0092
14201W        W30675  17.091  11.207   4.424 -0.0240 -0.0489 -0.1925
14202W        W30676  17.765   4.204  12.642  0.1119  0.0629 -0.1325
14203W        W30677  17.199   6.472  12.402  0.0415 -0.0987  0.1510
14204W        W30678   4.380  18.866   4.782 -0.0844  0.3087  0.1780
14205W        W30679   3.531  15.310   1.556  0.0840 -0.4329 -0.1423
14206W        W30680   9.522   3.139   0.844  0.3463  0.1093 -0.1711
14207W        W30681   4.294   6.033  15.087  0.1668 -0.2451 -0.1581
14208W        W30682   1.760  17.019   0.824 -0.2692  0.0042  0.0345
14209W        W30683  16.943   3.637  10.236  0.0101 -0.1162  0.1993
14210W        W30684  10.409  18.193   4.349 -0.0093  0.0657  0.2414
14211W        W30685   4.107  18.115  11.659 -0.5828  0.4115  0.0296
14212W        W30686   1.267   9.555  11.593 -0.0534 -0.1022  0.3205
14213W        W30687   6.118  13.201   0.730 -0.1825  0.2750  0.1422
14214W        W30688  18.294   3.316  10.125 -0.0768 -0.0226  0.4866
14215W        W30689  16.671   9.289  11.764 -0.1229  0.1037 -0.1772
14216W        W30690  19.160   9.580  10.133 -0.0298  0.0875 -0.2969
14217W        W30691  11.621   7.865   4.823  0.0153  0.0198 -0.0310
14218W        W30692   1.935  15.814  11.890 -0.0451  0.0541 -0.0504
14219W        W30693   3.558  10.559   2.865 -0.1128  0.1541  0.4950
14220W        W30694   1.330   3.382   6.044 -0.2185  0.0729  0.0559
14221W        W30695  18.185   8.708   4.991 -0.1083 -0.0424  0.0006
14222W        W30696  18.428   2.955   4.182  0.1693  0.0471 -0.1627
14223W        W30697   0.637   6.696   3.970 -0.0556 -0.0953  0.0394
14224W        W30698   1.580  18.639   3.955  0.0677 -0.0939 -0.1162
14225W        W30699   4.623   6.939   1.115  0.0333  0.0913 -0.0915
14226W        W30700  18.283   2.229   0.523  0.0245 -0.1597 -0.3661
14227W        W30701  16.469   7.108   0.505 -0.3055 -0.2188  0.2039
14228W        W30702   4.547   5.135  12.235 -0.0660 -0.2343 -0.2548
14229W        W30703   8.392   4.709  15.017 -0.1531  0.1478 -0.3660
14230W        W30704   8.685  12.522  13.097  0.1076  0.2652 -0.2200
14231W        W30705   7.484  15.722  14.294  0.0991  0.5886 -0.0341
14232W        W30706   7.016  14.503  13.026  0.4125  0.0852 -0.0697
14233W        W30707   9.532  15.152  11.029  0.3008 -0.2298  0.3407
14234W        W30708   0.706  18.712   0.547 -0.1135  0.0556 -0.1916
14235W        W30709  14.208   4.397   3.776 -0.2220 -0.2865 -0.1104
14236W        W30710  13.675  14.148  11.411 -0.0525 -0.2078 -0.0383
14237W        W30711  16.833   2.167  10.725 -0.1434 -0.2286 -0.0867
14238W        W30712   7.827   5.366  10.051 -0.0499  0.1084  0.2229
14239W        W30713   8.879   6.810   0.567  0.2777 -0.2167  0.3407
14240W        W30714   5.329   1.262  12.250  0.2244 -0.0507  0.3020
14241W        W30715  12.634   4.977  11.779  0.0745  0.1347  0.1584
14242W        W30716  11.698  11.824  12.548 -0.0340 -0.2213  0.2296
14243W        W30717  13.776   6.783   4.782 -0.0515 -0.0924 -0.2983
14244W        W30718   8.981   0.733  14.917 -0.2772  0.2276  0.3004
14245W        W30719   5.398  11.368  11.664  0.1705 -0.2111 -0.0361
14246W        W30720   1.463  19.101  14.016 -0.1754  0.0341  0.1410
14247W        W30721  11.411   7.661  14.448  0.1283 -0.0346 -0.2319
14248W        W30722  18.554  19.143   0.092  0.0211 -0.1122  0.0466
14249W        W30723  13.584   5.216   4.672  0.1161 -0.2734 -0.2749
14250W        W30724  11.337   9.628  13.114  0.1695 -0.1678  0.0247
14251W        W30725  13.695  15.028  11.244  0.3630 -0.1640 -0.2628
14252W        W30726   3.100   3.976   2.180  0.1987 -0.1514 -0.2579
14253W        W30727   0.377   3.436  11.209  0.0961  0.1569  0.2674
14254W        W30728  18.727   9.024  14.632  0.1658 -0.0713  0.1266
14255W        W30729  17.211   3.209  12.069  0.0252 -0.0715  0.1992
14256W        W30730  18.928  19.033  10.502  0.1625 -0.3451  0.0346
14257W        W30731  13.519   7.761  10.123  0.2907 -0.0340  0.2778
14258W        W30732   0.889  11.772   0.204 -0.5423  0.1951 -0.0560
14259W        W30733   1.489  12.605  11.019 -0.0283 -0.1261  0.0078
14260W        W30734  14.549  18.585  12.961 -0.1483 -0.3089 -0.2969
14261W        W30735  14.865  11.052   2.432  0.0960 -0.1048  0.1318
14262W        W30736   4.743   8.560  12.461 -0.0250  0.1853 -0.3179
14263W        W30737   8.636   2.742   0.812  0.0539 -0.0276  0.1231
14264W        W30738  18.705  14.855  11.588  0.0237 -0.1473  0.2877
14265W        W30739   5.676   8.674  12.791 -0.1150 -0.0284  0.0235
14266W        W30740  13.774   0.441  14.590 -0.0033 -0.0686 -0.0205
14267W        W30741  18.693  15.909  12.483 -0.0802  0.1381 -0.0493
14268W        W30742   0.745  19.050   5.390  0.0611  0.0851  0.1346
14269W        W30743   8.295   0.842   2.513 -0.3439  0.0448  0.0801
14270W        W30744   8.336  13.303   2.547 -0.0487 -0.2594 -0.0405
14271W        W30745  12.673   0.393   1.929  0.1080 -0.1502  0.5022
14272W        W30746   7.172  14.464   3.509  0.0727 -0.0390  0.0360
14273W        W30747  11.920  10.566  14.798  0.3074  0.0498  0.2434
14274W        W30748   8.164  16.286   4.178  0.2381 -0.3047 -0.4074
14275W        W30749  12.689   3.366   0.238  0.2041  0.0919 -0.1438
14276W        W30750  13.033   9.808  12.300 -0.0076  0.1050 -0.2023
14277W        W30751   4.101   6.316   2.171  0.0363  0.1629  0.2762
14278W        W30752  15.878   1.742  13.327 -0.1826 -0.3638  0.1107
14279W        W30753  17.510  13.337  11.526  0.0411 -0.0320  0.2146
14280W        W30754   7.354  10.735   5.623 -0.1506 -0.1298  0.1100
14281W        W30755   5.013  16.575  10.955 -0.2647 -0.1806 -0.2449
14282W        W30756  18.003   9.414   4.487  0.0849  0.3163 -0.0553
14283W        W30757  12.272   7.328  10.594 -0.0519 -0.0260 -0.2300
14284W        W30758  13.803   8.733   0.228  0.0399  0.0611 -0.2739
14285W        W30759   6.742   6.411  10.980 -0.3159 -0.1099 -0.0283
14286W        W30760   5.112   4.095   2.879  0.1735  0.0411 -0.0463
14287W        W30761   5.608   1.219  10.877  0.2332  0.2898  0.0107
14288W        W30762  12.661  16.528   1.334  0.1046  0.2275  0.0514
14289W        W30763   6.065   9.009  11.397 -0.0390  0.1692 -0.2143
14290W        W30764   9.219   5.203  10.637  0.4146  0.0390 -0.2625
14291W        W30765  14.865   5.049   4.106 -0.1385  0.2649 -0.0470
14292W        W30766   6.706  14.210  11.615 -0.0722 -0.1194 -0.1131
14293W        W30767   9.718  12.974  15.028 -0.1238 -0.0981  0.3386
14294W        W30768  17.695  18.510   2.187  0.0829  0.2771  0.1255
14295W        W30769   5.646   7.642  13.541 -0.4729  0.1431  0.0728
14296W        W30770   6.017   4.909   5.560  0.0503 -0.1350  0.3886
14297W        W30771  11.366  18.234   2.453  0.1218  0.0577 -0.1117
14298W        W30772  14.275   1.561   1.353  0.0582 -0.1519 -0.0843
14299W        W30773  18.590   3.288  10.695 -0.0143  0.1478 -0.0555
14300W        W30774   8.652  16.327   1.879  0.0176  0.0852  0.0067
14301W        W30775   7.563  16.138  10.962  0.0813  0.2046  0.2666
14302W        W30776  18.298   2.577   4.670 -0.0032  0.1363  0.0360
14303W        W30777   6.301   4.715  11.184 -0.1549 -0.1989  0.0248
14304W        W30778  15.484   1.997   1.880  0.0411  0.0094 -0.2673
14305W        W30779   8.700  10.630  14.423 -0.2008 -0.0637 -0.1639
14306W        W30780   3.247  18.828   5.270  0.0412  0.0404  0.0467
14307W        W30781   0.574  16.519   4.151  0.0727 -0.0463  0.0435
14308W        W30782  11.576  18.259  14.872  0.1807  0.0885 -0.2011
14309W        W30783  17.773  18.559   4.526  0.3308 -0.0294 -0.3415
14310W        W30784   3.655   1.780  10.805  0.1953  0.0196 -0.0556
14311W        W30785  17.203  17.207  15.111 -0.0493  0.1537 -0.0046
14312W        W30786  14.492  17.533  14.778  0.2527  0.2716 -0.0353
14313W        W30787  19.049   8.389   1.480 -0.3052  0.0269  0.0043
14314W        W30788  18.791   4.190   3.221 -0.0388 -0.0616 -0.1143
14315W        W30789  13.020  11.680   4.435 -0.0075  0.4688  0.1460
14316W        W30790  15.871  18.172  10.408 -0.3635 -0.0768 -0.4553
14317W        W30791   8.181  12.127   0.227  0.1029  0.0616 -0.0017
14318W        W30792   2.045   5.855   0.817 -0.3646  0.0073  0.3067
14319W        W30793   3.977  18.482  13.113 -0.1413 -0.2153 -0.1359
14320W        W30794   7.363  18.310  10.461 -0.1553 -0.1246  0.4926
14321W        W30795   7.557   7.699   3.080  0.1478 -0.2404 -0.2135
14322W        W30796   4.901   9.871  14.575  0.2236 -0.0246  0.1095
14323W        W30797  13.635   7.884   2.583  0.0347  0.4294  0.1111
14324W        W30798  14.129  13.324   0.718 -0.1390  0.2476  0.2315
14325W        W30799  18.887  14.518   2.076 -0.0256  0.1576 -0.0857
14326W        W30800   9.647   8.293   3.179  0.2000  0.2466  0.1186
14327W        W30801  17.475   2.189  11.468 -0.0307  0.2704  0.1469
14328W        W30802   6.002   1.691  13.246  0.0696  0.1456 -0.2788
14329W        W30803  17.429  18.690  13.979 -0.0211 -0.0367  0.1347
14330W        W30804   2.362  15.269   5.166 -0.0152  0.3775  0.1771
14331W        W30805  14.320   0.291  11.941 -0.0845  0.0642 -0.1990
14332W        W30806   8.125  12.250  11.413 -0.4528  0.2201 -0.0188
14333W        W30807   1.503  10.258   1.848  0.0759  0.1142  0.2225
14334W        W30808  18.724   0.149   3.163 -0.2197 -0.1855  0.3778
14335W        W30809   0.066   0.824  13.631 -0.0440  0.1615  0.1076
14336W        W30810   9.299  13.973   3.382  0.0400 -0.2247 -0.0975
14337W        W30811   2.837  18.865  13.775 -0.1528  0.0204  0.1673
14338W        W30812   7.868   8.577   4.781  0.2371  0.0479  0.1549
14339W        W30813   5.254   7.206   2.825 -0.1295 -0.0619  0.1331
14340W        W30814   9.039  13.949  13.616  0.1064 -0.1084  0.1343
14341W        W30815   4.336  18.537   0.982 -0.1677  0.1250 -0.0587
14342W        W30816  15.841  15.130   2.142  0.0680  0.0157  0.0480
14343W        W30817   2.962  16.412   4.101  0.1030 -0.3060 -0.0159
14344W        W30818   7.684  13.104  11.086 -0.1393 -0.2679  0.3595
14345W        W30819   1.738   7.419  12.455  0.0698  0.2031 -0.2748
14346W        W30820   1.732   1.890   3.860  0.1663  0.2754 -0.0852
14347W        W30821  11.976   1.000  13.273 -0.3010 -0.1400 -0.1717
14348W        W30822  17.734   5.785   1.030  0.1762  0.1488 -0.1043
14349W        W30823   5.737   1.048   9.506  0.1513 -0.0533  0.1811
14350W        W30824  10.683  13.054  14.411 -0.0482  0.1452  0.0917
14351W        W30825   8.570  16.948  10.719 -0.1576  0.1560 -0.0440
14352W        W30826  14.169   7.396   0.161 -0.1870  0.2114 -0.0631
14353W        W30827   9.397  11.635   4.446  0.1502 -0.1913 -0.1674
14354W        W30828  13.798  13.326  13.090 -0.2660  0.1781 -0.3184
14355W        W30829  13.210  15.756   2.180  0.0773  0.0457  0.0577
14356W        W30830  12.207  15.032  10.870  0.3190 -0.0300  0.0664
14357W        W30831   5.268   9.827  12.504 -0.1678 -0.2964 -0.1905
14358W        W30832   6.071  17.957   4.697  0.0877 -0.1727  0.2098
14359W        W30833   0.866  16.867   4.490 -0.0163 -0.4596  0.0236
14360W        W30834   4.024   9.728  12.088  0.0984 -0.0818 -0.1380
14361W        W30835  13.603   2.517  12.202  0.1003 -0.1478  0.1408
14362W        W30836   3.326   8.055  12.656 -0.0860  0.1048 -0.1087
14363W        W30837  10.675  12.864   5.068 -0.3195  0.0106 -0.1053
14364W        W30838   2.259  13.687   0.325  0.1160  0.1917  0.1956
14365W        W30839   4.502  16.193   1.078 -0.1482  0.0454  0.2852
14366W        W30840   1.358   4.441  14.111 -0.1377  0.1841 -0.0631
14367W        W30841  12.334   9.855   0.668  0.1540 -0.2218 -0.2055
14368W        W30842  12.956  14.248   3.341 -0.3568  0.0159  0.0701
14369W        W30843  16.094   1.616   5.355  0.2003  0.2634  0.1057
14370W        W30844   4.898   3.063   3.006 -0.0908 -0.0221 -0.1698
14371W        W30845  15.457  10.020  15.107 -0.0259  0.1210  0.1919
14372W        W30846   5.650  11.083   3.800 -0.1877  0.0512 -0.1751
14373W        W30847  18.623   9.502  12.942  0.1991  0.0716  0.0335
14374W        W30848  14.484  17.965   2.143  0.1250  0.0695 -0.1932
14375W        W30849   6.714  13.443   0.135 -0.2006 -0.0389 -0.0691
14376W        W30850  12.842  14.899   0.394 -0.0645  0.0482  0.2896
14377W        W30851  11.378  11.192   4.652  0.0144  0.0530 -0.0498
14378W        W30852  11.081  15.261   2.440  0.0522  0.0934 -0.0574
14379W        W30853  10.301  12.763   3.595 -0.0515 -0.0399 -0.0653
14380W        W30854   2.804   8.732   1.698  0.0609  0.2359  0.2258
14381W        W30855   5.831  18.232   1.344  0.0725  0.0110 -0.2384
14382W        W30856   1.685  12.743   4.983 -0.0662 -0.1415  0.3188
14383W        W30857  15.061  10.527   5.183 -0.0691  0.2156  0.1239
14384W        W30858  11.149  14.809   1.941 -0.0129 -0.2861  0.3199
14385W        W30859   5.548   3.888   1.085  0.2494  0.2619 -0.2469
14386W        W30860   0.301  17.697   1.393 -0.1262 -0.0104  0.2478
14387W        W30861   3.465  18.747   4.871 -0.1447 -0.1800 -0.1178
14388W        W30862  12.529   1.754  12.203  0.0743 -0.1865  0.0341
14389W        W30863   9.983   9.526   2.145 -0.0647  0.4081 -0.1143
14390W        W30864  13.857  17.243   5.016 -0.1154 -0.2574  0.0793
14391W        W30865  19.148  18.786  14.513 -0.0114  0.1473  0.0504
14392W        W30866  12.335  18.705  14.731  0.0914  0.2373 -0.1539
14393W        W30867  14.832   8.061   5.649 -0.0857  0.0715 -0.1720
14394W        W30868   1.195   1.170   1.789 -0.0530  0.1065 -0.1075
14395W        W30869  15.234  11.865   1.642  0.1619 -0.0707  0.2987
14396W        W30870  11.635   2.350   4.746  0.0623 -0.3248  0.0185
14397W        W30871  10.267  17.216   0.529  0.0727 -0.1561 -0.0144
14398W        W30872   9.093   3.863   3.015 -0.3832  0.0816 -0.1640
14399W        W30873   6.163   6.895  14.375 -0.1424  0.0650 -0.1469
14400W        W30874  13.030   3.051  11.923 -0.0455  0.3676 -0.0738
14401W        W30875   1.534  13.698  11.081 -0.2591 -0.0485  0.2128
14402W        W30876  16.675   9.972   4.878 -0.0447 -0.0677  0.1596
14403W        W30877   6.615  14.462   0.825 -0.2564  0.2336 -0.1420
14404W        W30878  14.366   0.597   0.518 -0.0095 -0.4295 -0.2120
14405W        W30879  10.504   8.179  14.902  0.3054  0.1602  0.2645
14406W        W30880   2.809  15.699   0.530  0.0362 -0.4129  0.1537
14407W        W30881   3.406  10.505  11.430  0.0487  0.1781 -0.2513
14408W        W30882  13.544   3.565   0.869  0.1150 -0.0876  0.1361
14409W        W30883   6.570   7.706   3.867 -0.0717 -0.0176 -0.1755
14410W        W30884   7.348   5.880   9.524  0.0034  0.0985 -0.1801
14411W        W30885  13.949  15.134  10.327 -0.3823 -0.1121 -0.1148
14412W        W30886   1.841   7.342   0.936  0.2032  0.0667 -0.0468
14413W        W30887   5.851   8.080  13.808  0.3049 -0.0147  0.0804
14414W        W30888   4.913   5.510  12.153 -0.0889 -0.1771 -0.0253
14415W        W30889  16.614  19.147   1.928  0.1439 -0.1462 -0.0816
14416W        W30890  12.335  12.355   3.371 -0.4030 -0.0629 -0.0687
14417W        W30891   0.243   8.606  15.029 -0.0536  0.3087  0.0602
14418W        W30892   8.110   4.703   3.693  0.1215 -0.0527  0.0895
14419W        W30893   9.351  12.149   5.441 -0.1472 -0.0964 -0.4092
14420W        W30894  11.274  16.330  12.559 -0.3093 -0.3591 -0.1183
14421W        W30895  17.711   4.795   2.199  0.2962 -0.0708  0.1507
14422W        W30896   9.488   1.958  14.033  0.0317 -0.0659 -0.1767
14423W        W30897   0.179   8.899   0.314 -0.0537  0.0076 -0.0793
14424W        W30898   1.111  12.937  13.192 -0.4603  0.0024 -0.0621
14425W        W30899  18.529   9.503   2.827  0.0188  0.0707 -0.1889
14426W        W30900  15.246   6.949  10.583 -0.0638  0.1083 -0.1453
14427W        W30901   0.321   2.142  13.106 -0.0037 -0.2418 -0.0364
14428W        W30902  13.103   3.116  11.344  0.0510  0.1178  0.0531
14429W        W30903  15.940   3.292  14.340  0.0658  0.2178  0.2025
14430W        W30904   4.478   3.894  13.748  0.0142  0.0124 -0.0077
14431W        W30905   2.624  14.135   0.099 -0.0609  0.1098 -0.0555
14432W        W30906   6.528   0.480   1.115 -0.1557 -0.0047  0.0936
14433W        W30907   3.924   5.663  13.498  0.0958  0.3156  0.2990
14434W        W30908   6.549   8.791   5.440 -0.1686  0.3881  0.5733
14435W        W30909   9.658  17.000   1.527 -0.0648 -0.1242  0.4231
14436W        W30910   7.129   2.774  10.911  0.2086 -0.3019 -0.2282
14437W        W30911   2.590  17.703   3.094  0.2570 -0.1813 -0.2615
14438W        W30912   1.834   9.456  14.990 -0.3187 -0.2242  0.0897
14439W        W30913  12.918  15.636   4.827 -0.2392 -0.0306  0.3236
14440W        W30914   7.933  11.705  11.426 -0.3196  0.0602 -0.0121
14441W        W30915   2.385  18.694   4.623 -0.0946  0.0788  0.2494
14442W        W30916   0.564   0.825   5.342 -0.0090  0.0456 -0.0086
14443W        W30917  16.282   9.325   3.049  0.0289 -0.1673 -0.1882
14444W        W30918  16.972   6.304  14.963 -0.2447  0.0150 -0.0846
14445W        W30919  15.092   9.694   4.323 -0.3894 -0.1018 -0.1195
14446W        W30920  14.099   3.911   3.679 -0.4733 -0.1606 -0.3297
14447W        W30921   8.092   0.886   3.935 -0.2120  0.0452 -0.1679
14448W        W30922   2.835  16.026   3.757 -0.0358 -0.1246 -0.0956
14449W        W30923   7.116  10.665   2.192 -0.0577  0.1711  0.0354
14450W        W30924   5.541  16.154  14.225 -0.2686 -0.0152 -0.4472
14451W        W30925   1.523   3.687   5.515 -0.2696 -0.0133 -0.0065
14452W        W30926   4.151   5.387   2.346  0.2251  0.1066  0.0009
14453W        W30927  14.923  17.785   2.139 -0.0525  0.0553  0.2284
14454W        W30928   2.271  14.605  10.980  0.0434  0.0018  0.0262
14455W        W30929  12.755   7.209  12.099 -0.0302 -0.1309  0.0805
14456W        W30930   8.213  16.538  12.437  0.2653  0.2513 -0.0692
14457W        W30931   2.567   5.624   2.628 -0.2620  0.2198 -0.3415
14458W        W30932   6.106  10.577  15.119 -0.0867 -0.0422  0.0168
14459W        W30933   9.507   0.741  11.215 -0.1002 -0.3161 -0.0211
14460W        W30934   8.073   6.385   1.299 -0.0286  0.1312  0.0575
14461W        W30935   3.083   0.104  14.671 -0.0029 -0.1553  0.0080
14462W        W30936  16.177  10.072   2.761  0.0817  0.1057 -0.3248
14463W        W30937   5.435   9.060   3.559  0.2376  0.0658  0.1276
14464W        W30938  18.465   3.809  14.558  0.0208 -0.0205  0.1963
14465W        W30939  15.083  10.504   3.698 -0.0835  0.0665  0.0346
14466W        W30940   6.335   3.894   5.167  0.1131  0.1419  0.2482
14467W        W30941   0.175  13.512  12.372 -0.2074  0.1205 -0.1969
14468W        W30942   3.658  12.569  12.786  0.1401 -0.4969 -0.1684
14469W        W30943  17.484   4.306   4.830  0.1576 -0.3380  0.5582
14470W        W30944  12.635  17.841  10.824  0.0085  0.1113  0.0371
14471W        W30945  16.756   9.072  13.071  0.4308 -0.1252 -0.0743
14472W        W30946  14.360   0.669   2.649 -0.0957 -0.0455  0.2194
14473W        W30947  13.494  11.704  11.834  0.1070 -0.0898 -0.1488
14474W        W30948   0.599   1.365  12.175  0.0971  0.1007  0.1922
14475W        W30949   2.921   7.231  13.786  0.4097  0.2262 -0.2759
14476W        W30950   4.507   8.710   0.656  0.1008 -0.1259 -0.0819
14477W        W30951   3.497   3.675   4.539 -0.0442 -0.0001  0.3567
14478W        W30952  13.917   5.555  12.623  0.0631  0.0073 -0.1283
14479W        W30953  12.603  10.162   4.627  0.2164  0.0089 -0.0513
14480W        W30954  12.977   2.618  12.203  0.0490 -0.4750 -0.2698
14481W        W30955  12.745  17.932   4.636 -0.3230 -0.1132  0.1210
14482W        W30956   3.119  11.023   0.111  0.2782 -0.0016  0.3233
14483W        W30957  10.486  18.678   4.223 -0.1366 -0.0381  0.1439
14484W        W30958  14.030   8.212  12.733 -0.1357 -0.2241 -0.0974
14485W        W30959   9.304  10.563   5.556 -0.1131 -0.0259 -0.0888
14486W        W30960   0.839   2.193  14.461 -0.2492  0.0431 -0.1352
14487W        W30961  12.700   0.723  12.660 -0.0882  0.2370 -0.4169
14488W        W30962   4.428  12.761   0.982 -0.1558  0.0549 -0.1530
14489W        W30963   0.662   8.578   9.575  0.1750 -0.2559  0.3099
14490W        W30964   2.917  11.321   2.020 -0.2996 -0.0321  0.0863
14491W        W30965  16.602  17.895   0.946 -0.1239 -0.0627 -0.1104
14492W        W30966  10.078   2.640   4.579  0.1112 -0.0617 -0.1074
14493W        W30967   0.786   9.708  12.373 -0.1299  0.1081 -0.0444
14494W        W30968   1.333   9.833   4.705  0.1545  0.2080  0.2643
14495W        W30969   6.214  13.773  14.085 -0.2531 -0.2969  0.0218
14496W        W30970  12.986  16.283   0.926  0.0166  0.2077  0.1596
14497W        W30971  14.381   9.831  11.892  0.1360 -0.0222 -0.0670
14498W        W30972  17.597   7.097   2.792 -0.0171  0.3288 -0.0659
14499W        W30973  18.108  11.477  10.966  0.0023 -0.0455 -0.2929
14500W        W30974  18.098  13.418   3.846  0.0868  0.3085 -0.1953
14501W        W30975   4.967  18.549   5.042  0.3018  0.1340  0.3683
14502W        W30976   6.226   5.341   2.282 -0.1104  0.1538  0.0713
14503W        W30977   0.483  14.411  14.872 -0.0088  0.2291  0.2041
14504W        W30978  18.374  14.714   2.452  0.0389  0.2030  0.0503
14505W        W30979   7.931   9.181  13.730  0.0731 -0.0984  0.3709
14506W        W30980  12.625   7.107  11.058 -0.0272  0.2509 -0.1190
14507W        W30981  11.471  14.634  13.742  0.0451  0.2331 -0.0433
14508W        W30982  17.006  17.594   0.826 -0.0337 -0.1325 -0.0088
14509W        W30983   4.849   1.342  12.622 -0.3117 -0.1132 -0.1202
14510W        W30984  18.265  15.551  15.117  0.0801  0.0406 -0.1501
14511W        W30985   1.750  12.390  13.412 -0.0253  0.0084 -0.2716
14512W        W30986   2.278   0.769   6.456 -0.2020 -0.1054 -0.1208
14513W        W30987   7.197   2.303   3.068 -0.0387  0.1277 -0.2538
14514W        W30988   3.235   4.119  14.743  0.1330  0.4158  0.0049
14515W        W30989  12.146   1.446   5.005  0.1685 -0.3049 -0.0453
14516W        W30990  15.004  12.338   1.741 -0.1009  0.1333 -0.1704
14517W        W30991   1.907   8.329  10.545 -0.0913 -0.0245 -0.2658
14518W        W30992   2.117  11.512   5.216 -0.0193  0.0348  0.4112
14519W        W30993  13.116   6.836  13.192  0.1729  0.1746  0.1827
14520W        W30994  12.885   2.862  13.541  0.2371  0.2833 -0.2958
14521W        W30995  18.486   9.388  11.423 -0.2194 -0.1428  0.4034
14522W        W30996  14.535  18.791   1.607 -0.6267 -0.0142 -0.0903
14523W        W30997  11.380  16.336   0.968  0.3476 -0.0197 -0.0973
14524W        W30998   3.812   0.999   5.764 -0.2541  0.0297 -0.1456
14525W        W30999  12.787  16.919   4.773  0.1249  0.4418  0.2029
14526W        W31000  17.329  16.338   0.429  0.0618 -0.0249 -0.2283
14527W        W31001  14.520  10.325  14.993 -0.1340  0.0034 -0.2109
14528W        W31002   3.544   7.978   1.776  0.0484  0.1270 -0.2269
14529W        W31003   5.031   7.757   9.879 -0.0950  0.1727  0.1258
14530W        W31004  19.110  10.781   2.738  0.0475 -0.2359  0.2539
14531W        W31005   1.515   7.275  14.419 -0.0715 -0.1167 -0.0113
14532W        W31006  14.858   8.301  12.694  0.1797 -0.0483 -0.2718
14533W        W31007  17.277  12.265  11.385 -0.0502  0.1469 -0.1537
14534W        W31008   1.348   9.266   4.105  0.0756  0.1381  0.0362
14535W        W31009  13.834  18.251   2.576 -0.3862  0.1289  0.0476
14536W        W31010   7.164   7.870   2.811  0.2144 -0.0232  0.0067
14537W        W31011   8.596   0.084   0.694  0.2504  0.1873 -0.0077
14538W        W31012   1.501   4.798   2.202  0.1056 -0.3809 -0.1476
14539W        W31013  15.350  15.227   2.726  0.1631  0.0920  0.1914
14540W        W31014   1.281   7.030   4.548 -0.1824  0.1180 -0.2608
14541W        W31015   4.384  15.432   2.589  0.2099 -0.1653 -0.0680
14542W        W31016   6.950  18.109   3.589  0.0381 -0.0280  0.1059
14543W        W31017   3.499  17.136  13.306 -0.2867 -0.2185 -0.2465
14544W        W31018   3.066   9.629   3.890 -0.1910  0.0462  0.3455
14545W        W31019   5.386   6.981  10.429  0.2691  0.1867  0.3549
14546W        W31020  11.271  16.744   4.038 -0.2087 -0.1781  0.1944
14547W        W31021   4.401   5.963  13.942  0.2213 -0.2371 -0.0156
14548W        W31022  11.422   6.561   5.412  0.2412  0.1669  0.2841
14549W        W31023   3.775  14.336   2.341  0.1165 -0.0237  0.2418
14550W        W31024   2.549   8.757  10.955  0.0714  0.0862  0.0632
14551W        W31025  12.005  17.390   0.787 -0.3216  0.1511  0.0133
14552W        W31026   2.081  13.622   0.825  0.2271 -0.1039 -0.1449
14553W        W31027   5.529  18.058   2.256 -0.1356  0.0505 -0.3016
14554W        W31028  10.606   1.562  10.786 -0.1655  0.0819  0.1776
14555W        W31029   1.437   9.220  10.682 -0.0285  0.2016  0.2015
14556W        W31030  16.904   6.565   5.579 -0.0996 -0.3485  0.0281
14557W        W31031   2.243  12.038  14.923  0.2285  0.1171  0.2258
14558W        W31032  10.787  14.602  11.613  0.0604  0.1997 -0.1309
14559W        W31033   7.147   8.338  11.927 -0.0936  0.0573 -0.2787
14560W        W31034   4.949   9.722  13.320 -0.2707 -0.2203  0.0217
14561W        W31035   6.744   1.297  14.892 -0.0112 -0.0745 -0.3426
14562W        W31036  11.615  13.816   5.518 -0.0654  0.3083 -0.1464
14563W        W31037  12.617  16.110   0.493 -0.1397 -0.0741  0.0316
14564W        W31038  14.104   2.057  14.448 -0.0186 -0.1955  0.0167
14565W        W31039   5.093  13.386   0.471 -0.5169  0.1513  0.0280
14566W        W31040   9.721   7.049   4.208 -0.0629 -0.0187 -0.0056
14567W        W31041  18.759   5.357   0.589  0.0963 -0.0327  0.2066
14568W        W31042  11.423   1.491   1.821  0.3098 -0.1725  0.1568
14569W        W31043  17.838   0.311   0.824  0.0189 -0.1264 -0.1004
14570W        W31044   1.895   6.391   3.967 -0.0436  0.0800 -0.0401
14571W        W31045  17.221  17.767  12.510  0.2672 -0.1615 -0.2817
14572W        W31046   0.621  11.810   2.179  0.1688  0.0639  0.0487
14573W        W31047   1.696  18.972  14.938  0.1813 -0.0829 -0.0893
14574W        W31048   5.510   6.573   4.203  0.2276  0.3801 -0.0134
14575W        W31049  14.258  16.370   2.095 -0.2075 -0.0881  0.0095
14576W        W31050  17.883   5.188   5.241 -0.1394 -0.0840 -0.1175
14577W        W31051   4.612  12.325  11.771 -0.0155  0.4444  0.0471
14578W        W31052  17.303  10.387   1.134  0.1847  0.1209  0.0759
14579W        W31053  18.162   3.962  12.682  0.3622  0.3216  0.1048
14580W        W31054  10.380   0.987  10.350  0.0344  0.0323  0.3200
14581W        W31055   0.250   0.906   0.081 -0.2877 -0.3219 -0.0334
14582W        W31056  11.296   5.769  12.621  0.0954 -0.1189  0.0605
14583W        W31057   6.548  10.318  10.297  0.3057  0.2171  0.0206
14584W        W31058  15.511  12.820   2.037 -0.0804 -0.1970  0.0246
14585W        W31059  13.346  13.187   2.175 -0.0974  0.3329 -0.0523
14586W        W31060  16.400  11.881  14.927  0.2337 -0.1625  0.0671
14587W        W31061  14.048  11.243   2.912 -0.0295 -0.0889 -0.0775
14588W        W31062  18.205   4.556   9.651  0.1948  0.1889  0.0973
14589W        W31063  10.472   1.789  14.071 -0.0149  0.0137 -0.1111
14590W        W31064  18.642   6.093  11.361 -0.1083  0.1286  0.2901
14591W        W31065  11.386  10.010   1.688  0.1308 -0.0901  0.0318
14592W        W31066   0.227   8.044   3.542 -0.0183  0.1877 -0.0435
14593W        W31067  10.673  10.674  14.998 -0.3099  0.0367 -0.2053
14594W        W31068  18.439   0.147   4.677 -0.1911  0.1795 -0.1813
14595W        W31069   9.629   4.748   4.354  0.2305 -0.1005  0.1016
14596W        W31070  18.931  12.579  12.075  0.2875  0.0928 -0.0836
14597W        W31071  17.084  11.270   0.291 -0.1141  0.1725 -0.3726
14598W        W31072  17.267   0.735   3.823 -0.1492  0.2413  0.0769
14599W        W31073   4.198  10.725  10.192  0.4076 -0.2142  0.1665
14600W        W31074  13.814   0.376  11.291  0.4542 -0.1370 -0.1023
14601W        W31075   7.579   1.828  11.951  0.0945  0.0756  0.2795
14602W        W31076  18.986   0.814   4.828  0.1262 -0.0195 -0.0266
14603W        W31077   5.738  12.068  14.952 -0.1024 -0.2038 -0.0206
14604W        W31078   8.411   1.719   0.709  0.2487 -0.4260  0.0613
14605W        W31079   2.694  12.948   5.312  0.0968 -0.4017 -0.0863
14606W        W31080  15.000  11.284  11.229 -0.0604 -0.0036 -0.1072
14607W        W31081   9.390   9.553  12.483 -0.0567 -0.0910  0.1126
14608W        W31082  13.013   4.107  13.167  0.0853  0.1899  0.1717
14609W        W31083  15.174  13.523  14.730 -0.1442 -0.0397 -0.1038
14610W        W31084  16.993   9.949  13.228  0.1708 -0.0914 -0.1278
14611W        W31085  11.631   8.497  11.699 -0.1636 -0.2638  0.2012
14612W        W31086  14.419  18.826   0.518 -0.1199  0.1012 -0.3103
14613W        W31087   4.953  15.320   0.632  0.0494 -0.1234 -0.2200
14614W        W31088   6.725  17.089   4.030 -0.1645  0.0033  0.3106
14615W        W31089   3.208  19.043  11.067 -0.0202 -0.3018 -0.1751
14616W        W31090  15.876  14.050   0.339  0.0473  0.4321 -0.2267
14617W        W31091   2.660  12.828   0.844  0.1243  0.2212 -0.3378
14618W        W31092   8.596   2.358   4.590  0.0582  0.2819  0.2364
14619W        W31093  11.075  16.134   4.006  0.2787  0.0871  0.2641
14620W        W31094  16.883  13.152  13.665 -0.1654 -0.3381 -0.6081
14621W        W31095   0.773  18.177   1.570 -0.0290  0.1424 -0.1531
14622W        W31096  14.620   7.434  15.144  0.1809 -0.1618  0.0621
14623W        W31097  14.235  19.082   1.843  0.1489 -0.0146 -0.1185
14624W        W31098  14.899   0.949  11.902  0.0309  0.2325  0.0258
14625W        W31099   2.546  15.655   2.401  0.2082  0.0694  0.1455
14626W        W31100  18.448   1.484  10.636  0.2749 -0.1047  0.0050
14627W        W31101  11.351   9.185   3.031  0.2776  0.0057 -0.1916
14628W        W31102   0.344   9.795  11.460  0.0590  0.4170 -0.0483
14629W        W31103   0.067   6.715  14.819 -0.0425  0.2614 -0.2207
14630W        W31104  16.267   3.863   0.022  0.0623 -0.0674 -0.1061
14631W        W31105  18.686   6.750  13.979  0.0980 -0.0517  0.1340
14632W        W31106   9.765   9.140   3.225  0.1951  0.0485  0.0205
14633W        W31107  16.595   2.417  12.941  0.3370  0.0851 -0.1630
14634W        W31108   0.922  14.500   5.655 -0.2300  0.2457 -0.2581
14635W        W31109  13.601   5.500  14.062 -0.0224 -0.1361  0.0204
14636W        W31110   6.183   3.687   0.388 -0.1116 -0.1813 -0.0918
14637W        W31111  15.902  16.819  14.580  0.2570 -0.2341  0.1722
14638W        W31112   7.682   2.129  12.388 -0.1494  0.0465  0.0993
14639W        W31113  18.858   2.289   2.137  0.0188  0.3825 -0.0021
14640W        W31114   4.161  18.851   3.463 -0.0210 -0.3702  0.1362
14641W        W31115  19.082  15.732  12.762 -0.0699 -0.0053 -0.2107
14642W        W31116  18.317   8.361  12.539 -0.0459 -0.1944 -0.3038
14643W        W31117   6.850  10.488   4.235  0.3469  0.0649  0.2115
14644W        W31118  12.381   2.947  13.556 -0.0252  0.1620  0.0091
14645W        W31119   7.004   0.455  14.879 -0.0278  0.1988 -0.1441
14646W        W31120   9.771  13.721   1.427 -0.1319  0.0820 -0.0778
14647W        W31121   2.391   7.844  14.975 -0.0705 -0.0198  0.0674
14648W        W31122   5.618   1.345  14.624  0.0248  0.1074 -0.0806
14649W        W31123   5.720  14.567  14.239  0.2117  0.0070 -0.1602
14650W        W31124  11.743   6.443  13.244  0.0125  0.3011 -0.1406
14651W        W31125   9.263  12.301   1.122 -0.3469 -0.1638 -0.1874
14652W        W31126  12.396   0.494   1.485 -0.2599  0.0756  0.1374
14653W        W31127   5.907   2.981  11.198 -0.2767  0.2216 -0.4801
14654W        W31128   8.890   6.069   1.094  0.1022 -0.0796 -0.1841
14655W        W31129  16.038   8.366  13.172 -0.1973 -0.1995 -0.2781
14656W        W31130   9.249   6.842   4.344 -0.3416 -0.2405  0.1539
14657W        W31131   7.421  14.674  11.202  0.0965  0.2267  0.0514
14658W        W31132   9.529   1.466   3.549 -0.1673  0.1315  0.0186
14659W        W31133   1.337  13.287   0.477  0.0706  0.1659  0.3258
14660W        W31134  14.155  14.171   2.768  0.0306 -0.1191 -0.5800
14661W        W31135   5.762   9.874  13.176 -0.1334  0.0028  0.0956
14662W        W31136   5.983   7.236   0.501 -0.2460  0.0080  0.1105
14663W        W31137   7.425   1.814   3.678 -0.3651  0.1206  0.0702
14664W        W31138  12.567   3.321  14.934 -0.1919  0.1605 -0.1231
14665W        W31139   5.458   8.254  12.951  0.1546 -0.0195 -0.1729
14666W        W31140   8.022   2.946  12.532  0.3377  0.0430 -0.1422
14667W        W31141  11.485  15.123   2.244 -0.0669 -0.1858  0.0417
14668W        W31142   1.559  17.914   5.423 -0.1457  0.0275 -0.1599
14669W        W31143   8.665  16.216  14.645 -0.2529  0.0393  0.0227
14670W        W31144  19.085   3.094  10.549 -0.0157 -0.1006  0.0982
14671W        W31145   1.386   2.338  14.315 -0.1750 -0.0451  0.1883
14672W        W31146   4.995  13.654  13.852  0.0266 -0.3831 -0.0155
14673W        W31147   4.708  12.767  14.666 -0.0900 -0.0654 -0.0710
14674W        W31148   2.709   1.465  12.776  0.0196 -0.5392  0.0212
14675W        W31149   6.845  11.135  12.933  0.0666 -0.2173 -0.0697
14676W        W31150   9.206  19.068  14.506 -0.3905 -0.1242  0.2759
14677W        W31151   2.471  19.005  12.811 -0.2429 -0.0594 -0.0330
14678W        W31152   0.283   5.987   1.254  0.2007 -0.0730 -0.4012
14679W        W31153  10.523  19.012  13.192  0.0238  0.1429 -0.2130
14680W        W31154   8.297   6.738   2.622 -0.4706  0.0482  0.1634
14681W        W31155   4.033   8.130  14.105  0.1188 -0.1175  0.1719
14682W        W31156   2.526   5.690  14.843 -0.2268 -0.2329  0.0576
14683W        W31157  16.139   5.944  14.928 -0.1211  0.0690  0.3089
14684W        W31158  11.323  16.579   9.260  0.0832  0.0648  0.0573
14685W        W31159   5.022  14.342   0.369  0.2819  0.0428 -0.0974
14686W        W31160   7.900   8.017   1.161 -0.2386  0.0532 -0.1385
14687W        W31161   7.638   0.413   2.241  0.1064  0.1788  0.2463
14688W        W31162   2.248   6.323  13.055  0.0447 -0.1833  0.1048
14689W        W31163   1.061  14.604   3.893  0.0301  0.3991 -0.4546
14690W        W31164  12.850  11.228   0.953 -0.0640  0.2690 -0.0050
14691W        W31165  12.157  16.900   5.618  0.1025 -0.0336 -0.1502
14692W        W31166   5.265  17.565  14.344 -0.0047  0.1645  0.2835
14693W        W31167  11.628   8.588   1.632  0.3729 -0.2117  0.0576
14694W        W31168  16.589   2.910  12.673  0.0341  0.0340 -0.0635
14695W        W31169   9.618   6.419  13.735  0.1240 -0.1297 -0.0491
14696W        W31170   7.829  13.307  13.140 -0.2610  0.1062 -0.1070
14697W        W31171   1.693  12.978   1.630 -0.0925  0.2344 -0.0537
14698W        W31172   3.945  12.205  13.127 -0.1981 -0.1335 -0.1587
14699W        W31173  10.820   5.231  10.723 -0.0785  0.0540 -0.0246
14700W        W31174   7.808   7.590   0.806  0.0000 -0.1327 -0.2008
14701W        W31175   6.141   9.626  14.291 -0.0738  0.0426 -0.1544
14702W        W31176   8.132  18.248  12.895  0.0378  0.1735  0.0196
14703W        W31177   7.024  18.139  10.870 -0.0892  0.1576  0.1837
14704W        W31178  17.849   2.398  12.537  0.2476 -0.1224 -0.1592
14705W        W31179  10.482   5.462  14.629 -0.0193  0.2441 -0.3813
14706W        W31180  14.233   5.769   5.612 -0.3336  0.1032  0.2314
14707W        W31181   2.554   1.241   5.129 -0.0568  0.1174  0.1526
14708W        W31182  10.408   1.141  13.808  0.1743  0.1496  0.2701
14709W        W31183  18.935   7.006   2.408  0.1010 -0.0963  0.2992
14710W        W31184   8.427  13.336   0.534  0.4763 -0.3925 -0.4367
14711W        W31185  14.307   0.773  13.301  0.0029  0.0800 -0.3488
14712W        W31186   5.118   5.527   1.580 -0.0532 -0.0432  0.1706
14713W        W31187  16.331   8.489  10.905  0.1005 -0.1257 -0.2769
14714W        W31188  12.157  16.190   4.923  0.3031 -0.0448  0.3692
14715W        W31189  14.975  14.789  14.660  0.1360  0.0955  0.3901
14716W        W31190  18.895   1.143  14.074  0.0770 -0.4479 -0.1756
14717W        W31191  17.790  16.456   2.220  0.1881 -0.1049  0.2061
14718W        W31192  19.088   1.809  14.729 -0.2847  0.0761 -0.2932
14719W        W31193   4.563   9.160   3.498 -0.0096 -0.2702 -0.0306
14720W        W31194   6.998   9.060  12.481 -0.0855  0.3122  0.2378
14721W        W31195   9.105  16.057  10.703 -0.0443 -0.0839 -0.2803
14722W        W31196  18.412  13.489  12.380  0.1137 -0.2685  0.0185
14723W        W31197   6.988  15.514   2.623 -0.2072 -0.0980 -0.1798
14724W        W31198  11.058  15.580  11.520 -0.0240  0.2891  0.0284
14725W        W31199   1.999   5.041   3.021 -0.1865  0.0415 -0.0947
14726W        W31200  16.639  11.073  11.347  0.2691  0.0499  0.2237
14727W        W31201  18.456   4.122   1.407  0.0490 -0.0401 -0.4157
14728W        W31202   5.033  16.907   4.627 -0.0222 -0.0576  0.0669
14729W        W31203   2.137   8.914   0.668  0.2030 -0.1321  0.3512
14730W        W31204   9.527   4.359   1.912 -0.5033  0.3473  0.0764
14731W        W31205  18.843   6.688  13.224 -0.0797  0.1254  0.0051
14732W        W31206  14.970  18.951   4.034 -0.2439  0.0446  0.0390
14733W        W31207  14.425  16.643   3.967  0.2919  0.1133 -0.1120
14734W        W31208   0.098  14.409   0.278 -0.0125 -0.0401 -0.0936
14735W        W31209   5.159   2.531   2.236  0.0381  0.0196 -0.0391
14736W        W31210   1.173  13.311  11.831  0.2185 -0.0080  0.0531
14737W        W31211  17.826  12.208   1.465  0.1828  0.0519 -0.1722
14738W        W31212  17.310  12.435   1.185 -0.1076  0.2614 -0.5367
14739W        W31213  11.364  19.018  10.806 -0.2382  0.0196  0.0972
14740W        W31214   6.891  11.321   0.346 -0.0014  0.1476  0.0530
14741W        W31215   0.057  13.070   3.902  0.2050  0.1381  0.1426
14742W        W31216  18.612  15.857   0.083 -0.0089  0.3013 -0.0455
14743W        W31217  15.905   1.780  12.834 -0.2758 -0.0153  0.0640
14744W        W31218  15.688   3.887   2.336 -0.1462 -0.1698 -0.0353
14745W        W31219   4.883  14.224   4.084  0.2363  0.1452 -0.0956
14746W        W31220   8.290   5.982  14.282 -0.0294  0.1185 -0.0355
14747W        W31221   5.281   8.309  12.507  0.1720 -0.0059  0.0566
14748W        W31222   2.526   7.158  14.289 -0.2395  0.2331 -0.1665
14749W        W31223  10.089   4.758  11.344  0.1248 -0.0272 -0.0168
14750W        W31224   4.206  12.612   1.859  0.0606  0.3463 -0.2239
14751W        W31225   7.299   3.939   1.016  0.0162  0.0372  0.1677
14752W        W31226  18.205  13.543  13.993  0.0690 -0.2041  0.0897
14753W        W31227   5.673   7.229   0.882  0.2843 -0.4224  0.0522
14754W        W31228  14.284  17.865   0.409 -0.1693 -0.0510 -0.2757
14755W        W31229   9.167   6.812  10.412 -0.3118 -0.0259 -0.0194
14756W        W31230   3.847   4.994   2.570 -0.0880 -0.0353  0.1806
14757W        W31231   4.764   3.672   1.654  0.1583  0.0012 -0.0597
14758W        W31232   0.864   9.521   1.124  0.0045 -0.1905 -0.2789
14759W        W31233   1.110  18.468   2.943 -0.3771  0.3683  0.0675
14760W        W31234   2.405  12.375   1.169  0.1187 -0.0675 -0.2153
14761W        W31235  18.802   3.940   3.711 -0.2366  0.1481 -0.2069
14762W        W31236   3.538   6.924   4.742 -0.2156  0.0124  0.1042
14763W        W31237  16.872   8.495   0.428  0.0964 -0.1165  0.2372
14764W        W31238  13.127  11.852   1.337 -0.1257 -0.0536 -0.0237
14765W        W31239   4.312   7.595  14.703  0.2148 -0.0176  0.0187
14766W        W31240  16.726   8.033   3.300 -0.1415 -0.0196  0.0532
14767W        W31241  16.192   0.067   2.793  0.3227 -0.1728  0.0429
14768W        W31242   9.015   6.509  14.420  0.1455 -0.1182 -0.2727
14769W        W31243   2.942   7.906   4.425  0.0940  0.0709 -0.1850
14770W        W31244  11.878  13.018  10.073 -0.1659 -0.1332  0.0835
14771W        W31245   5.639   1.519   1.410  0.2847 -0.2171  0.0670
14772W        W31246  11.359  16.439  10.738  0.0296 -0.0500  0.0836
14773W        W31247   4.521   0.916   4.546  0.0662 -0.1050 -0.4148
14774W        W31248  13.999   6.367   1.169 -0.0886  0.2781 -0.1891
14775W        W31249   8.249  16.246  13.808 -0.0076  0.0468 -0.0185
14776W        W31250   1.768  14.133  13.044  0.2945 -0.5040  0.1118
14777W        W31251   9.289   8.695  10.675 -0.3704  0.1167 -0.0373
14778W        W31252  18.565  14.940  13.980 -0.4066 -0.0086 -0.3224
14779W        W31253  14.674   3.976   3.846 -0.1825 -0.2305  0.1116
14780W        W31254   1.947  15.026   3.675 -0.2164 -0.4023  0.1657
14781W        W31255  17.383  15.267   5.029  0.0266  0.1985 -0.0078
14782W        W31256  13.531  13.126   4.475 -0.2786  0.0321 -0.2529
14783W        W31257   6.802  18.609   2.230 -0.0316 -0.4388  0.0831
14784W        W31258  15.009   7.817   2.609 -0.1195  0.2079 -0.3676
14785W        W31259   7.605  10.174  13.996  0.1979  0.1881  0.3551
14786W        W31260  10.564  15.959   2.411  0.2491 -0.3700  0.1058
14787W        W31261   1.213   8.835  11.008  0.2354  0.4865 -0.0173
14788W        W31262  12.234  10.186  10.856  0.2915 -0.1443 -0.3133
14789W        W31263  12.212  18.453   5.440  0.1153 -0.0165 -0.0053
14790W        W31264  17.670   0.014  13.232  0.1126  0.0990  0.0860
14791W        W31265   7.212  11.980  12.786  0.0989 -0.1884 -0.4365
14792W        W31266  18.806  18.101  14.945  0.0448 -0.4898 -0.0224
14793W        W31267  19.155  10.295  12.257 -0.1514  0.2998  0.1028
14794W        W31268  14.243  10.434  13.486 -0.3693  0.1741  0.1965
14795W        W31269  12.682  16.656  11.202 -0.1108 -0.0289  0.2779
14796W        W31270  12.680  15.274  14.678  0.2754 -0.0650 -0.2541
14797W        W31271   8.046   4.349  14.935 -0.0065  0.1134  0.1905
14798W        W31272   8.211  14.772   4.654  0.2723  0.1220 -0.2092
14799W        W31273   2.372   7.502  10.781  0.0344  0.4992  0.1052
14800W        W31274  16.770  13.571   4.564  0.2529 -0.0522 -0.1352
14801W        W31275  16.836  10.417   0.818  0.1538  0.2874 -0.1597
14802W        W31276  11.796   7.332  12.429 -0.5061 -0.1500  0.1553
14803W        W31277   7.992   8.189   0.208  0.0930  0.1513  0.0362
14804W        W31278  10.611  14.235   0.535  0.0665  0.1780 -0.1530
14805W        W31279   0.130   6.761   4.097 -0.1434  0.1654  0.1600
14806W        W31280   8.911  11.314  12.400  0.2028 -0.1892  0.0318
14807W        W31281   8.265   3.436   3.875 -0.0477 -0.0854  0.1820
14808W        W31282  11.247  13.423   2.818 -0.1538  0.2041 -0.2972
14809W        W31283  16.887   9.806   3.832  0.0138  0.0789 -0.0568
14810W        W31284  10.943   7.275   4.116  0.1161 -0.1135  0.1983
14811W        W31285   9.637   2.546  12.136  0.1878  0.0555 -0.0246
14812W        W31286  14.845   9.157   3.715 -0.1337  0.0732  0.1143
14813W        W31287   6.271   7.055   4.166  0.1664 -0.0078  0.1118
14814W        W31288   4.796  15.723  12.971 -0.0879 -0.2005 -0.1075
14815W        W31289  12.543  19.132  13.891  0.0842  0.0667 -0.1707
14816W        W31290  12.234  15.141  13.287 -0.0576 -0.2089  0.4006
14817W        W31291   9.636   7.021   0.326 -0.3899  0.0772  0.0342
14818W        W31292   1.122  17.168   4.790  0.2758  0.0124  0.2010
14819W        W31293  17.935   5.701   1.625 -0.4499 -0.1470  0.0297
14820W        W31294  12.308  18.870   1.396 -0.0063 -0.2773 -0.0416
14821W        W31295  12.519  17.169   0.031  0.0788 -0.0968 -0.0071
14822W        W31296  11.060   8.157  12.266 -0.0288 -0.2750 -0.2028
14823W        W31297  18.778  18.338   4.549 -0.1390  0.0007  0.2064
14824W        W31298  19.053   5.072   2.731 -0.1781  0.0009 -0.0554
14825W        W31299  11.085  18.678   4.835 -0.1768 -0.1226  0.0277
14826W        W31300   1.724  11.890  10.507  0.0813  0.2427  0.2643
14827W        W31301   4.498  16.542  14.140  0.1059 -0.1732 -0.1248
14828W        W31302   8.010   2.006   2.048 -0.0140 -0.0859 -0.1663
14829W        W31303  14.602   5.723  13.779 -0.1918  0.1175 -0.0061
14830W        W31304   6.072  15.266  12.335  0.0956  0.0065  0.1919
14831W        W31305   3.728  17.632   5.880 -0.0191 -0.0724 -0.4163
14832W        W31306  18.818  11.226  13.217 -0.0623 -0.1367  0.0683
14833W        W31307  15.767   9.452   1.097 -0.3708  0.1876  0.0413
14834W        W31308  10.017  17.700   2.043 -0.2040 -0.2325  0.1741
14835W        W31309  17.171  15.721   3.915 -0.0456  0.0662  0.2169
14836W        W31310  16.645  10.351  10.184  0.2289  0.1404 -0.0114
14837W        W31311  10.209   7.045  14.010 -0.0900  0.0996 -0.1139
14838W        W31312   4.165   3.763  11.278 -0.1575 -0.1003 -0.1260
14839W        W31313  19.100   8.090  11.522 -0.2011 -0.0245  0.3164
14840W        W31314   6.455   5.165   5.710 -0.0375  0.0590  0.2698
14841W        W31315   4.202   8.921   4.363 -0.1420  0.2014  0.1658
14842W        W31316  12.322  13.488   0.345  0.0359  0.1808  0.1105
14843W        W31317   4.439   6.763   1.947  0.2427  0.1073 -0.0105
14844W        W31318   0.689   1.829  12.099  0.1636  0.0324 -0.1762
14845W        W31319   8.500   2.620   0.323 -0.2907  0.1756  0.3213
14846W        W31320   9.426  10.237  13.108  0.2869  0.1555  0.2167
14847W        W31321  10.438   4.413   0.480 -0.0148 -0.1828  0.0091
14848W        W31322  16.388   4.234  14.782 -0.1299  0.2209 -0.2362
14849W        W31323  16.467   8.512  12.226 -0.2544  0.2455  0.0378
14850W        W31324  11.484   7.088  11.668 -0.1003 -0.2539 -0.0991
14851W        W31325   0.957   5.213  14.477  0.0840 -0.6988 -0.0321
14852W        W31326   4.521  14.508   1.616  0.1415  0.2653  0.1680
14853W        W31327  11.801  12.958  12.997  0.4652  0.2946 -0.2047
14854W        W31328  12.777  19.157   1.052  0.1093  0.0327 -0.1492
14855W        W31329  13.218  17.924   5.119 -0.1253 -0.0792  0.4329
14856W        W31330   6.454  13.814   3.044 -0.0401 -0.4006 -0.0097
14857W        W31331  15.877   6.996  13.619  0.0733  0.0641  0.3534
14858W        W31332   7.114   1.165   2.170 -0.0596  0.0575  0.2116
14859W        W31333  17.001   5.126  14.143  0.0037 -0.2478  0.0951
14860W        W31334  13.070  13.829   4.161 -0.4586  0.0448  0.1452
14861W        W31335   7.855  16.773  11.432  0.0003  0.2282  0.0413
14862W        W31336   2.849  17.177   2.143  0.0962 -0.0789  0.0066
14863W        W31337   5.798   7.735   0.261  0.3639 -0.3341 -0.0205
14864W        W31338  16.934   1.939  13.006 -0.0131  0.1194 -0.2001
14865W        W31339  14.898   3.416   2.868 -0.1599  0.1296  0.2230
14866W        W31340  13.412  11.457   0.183  0.0592 -0.0438 -0.0018
14867W        W31341  10.764   7.807  11.007 -0.3276 -0.4030  0.1284
14868W        W31342   9.676  15.018   9.828 -0.0843  0.0058 -0.1524
14869W        W31343   3.142  12.996   2.686 -0.1447 -0.0480  0.0926
14870W        W31344   3.788   7.579  13.446 -0.2487 -0.1000  0.0017
14871W        W31345   4.696  15.162  13.904  0.0566  0.0315  0.1054
14872W        W31346   3.535   9.240   4.047  0.2086  0.1167 -0.1419
14873W        W31347   9.985  14.932  14.797 -0.0806 -0.1196  0.2226
14874W        W31348   6.548  11.353  13.711  0.0085 -0.1312  0.2878
14875W        W31349   0.699   1.722  14.377  0.2372 -0.0547  0.2414
14876W        W31350   3.591  15.243   0.994  0.2538 -0.2323 -0.2420
14877W        W31351   3.428   6.312   0.117  0.1752 -0.1666  0.0493
14878W        W31352   1.882  18.691   0.197  0.0599 -0.1030  0.0183
14879W        W31353   8.370  18.890   9.897  0.2410  0.0254 -0.2733
14880W        W31354   1.270  13.693  15.087  0.0128 -0.1543  0.1260
14881W        W31355   5.744  14.443   3.335  0.1774 -0.1291 -0.1543
14882W        W31356  18.684   0.614   3.403 -0.3332  0.0464 -0.1079
14883W        W31357   6.985   1.683  13.449  0.2100 -0.1285 -0.1107
14884W        W31358   6.930  18.901   1.831 -0.0492  0.1623  0.1431
14885W        W31359   8.047   2.041  12.015 -0.4938  0.0429  0.0592
14886W        W31360   9.852   2.243   4.388  0.0698  0.0505  0.1363
14887W        W31361   8.295  17.092   2.334  0.1282  0.1965  0.0904
14888W        W31362   9.225  15.519   1.769  0.0950 -0.0686 -0.2950
14889W        W31363  15.807   3.550  13.272 -0.1866 -0.1107 -0.1013
14890W        W31364  15.759   5.057   4.554 -0.1632  0.1576  0.0828
14891W        W31365  14.898   0.175   3.630  0.0586 -0.0833 -0.3698
14892W        W31366   2.798  17.671   3.549 -0.1571  0.0971 -0.3793
14893W        W31367   9.030   6.766  11.611  0.0740  0.1413 -0.1141
14894W        W31368   1.303   3.015   5.641  0.0169  0.1983 -0.1438
14895W        W31369   7.508  18.964   4.921  0.3901 -0.1697  0.0914
14896W        W31370   5.520  14.966  12.234  0.2802 -0.0706 -0.1380
14897W        W31371   9.761  16.318  11.322  0.1317  0.1030 -0.3187
14898W        W31372   0.036   7.931   1.187  0.1160 -0.1997  0.1366
14899W        W31373  18.655  10.626   1.694 -0.4200 -0.2629 -0.2549
14900W        W31374  17.821  12.858  13.743  0.2206 -0.0117  0.0000
14901W        W31375   8.227   7.754   0.461  0.1778 -0.1342  0.1487
14902W        W31376   5.039   2.199  14.630  0.0824  0.1932 -0.1047
14903W        W31377   9.401   7.575   3.231 -0.0894 -0.0069  0.3425
14904W        W31378  15.429   9.874   1.016  0.0652 -0.2297 -0.0695
14905W        W31379   4.339  14.929   2.907  0.1545  0.0334 -0.1540
14906W        W31380  14.539  16.599  11.945 -0.0578  0.0429  0.5406
14907W        W31381  10.419  14.870  13.303  0.1228 -0.1678  0.3328
14908W        W31382  15.666   1.469   2.419 -0.0888  0.0346 -0.0142
14909W        W31383   8.340  12.720   4.675  0.2403 -0.0720 -0.2640
14910W        W31384  16.256   3.182   9.639 -0.1196 -0.0081 -0.0869
14911W        W31385   3.839  11.142  10.500  0.1587  0.1309 -0.1028
14912W        W31386   5.562   1.061   0.268  0.0205 -0.1603  0.2367
14913W        W31387   7.661   5.738   9.133  0.0493  0.1310 -0.6041
14914W        W31388   9.727   4.908  14.419  0.2141  0.0523 -0.1538
14915W        W31389  15.369   2.241  12.476 -0.1511  0.0619  0.0453
14916W        W31390  18.118  10.493   0.428 -0.3969 -0.0215 -0.0200
14917W        W31391   6.569  11.985  11.709 -0.2850 -0.0941 -0.0126
14918W        W31392  12.293   9.265   1.410  0.4314  0.1590 -0.3447
14919W        W31393  15.612   0.061  11.546 -0.1484  0.0220  0.1066
14920W        W31394   7.810   6.105   9.436 -0.1542  0.1250  0.1921
14921W        W31395   4.322   6.870  11.816 -0.1171 -0.1702  0.0504
14922W        W31396  15.268   3.973   0.055  0.0120  0.1712  0.1063
14923W        W31397   6.837  17.812   4.938 -0.1005 -0.0404  0.0837
14924W        W31398  10.960  17.958  14.269  0.1002  0.2015 -0.1488
14925W        W31399   9.994   4.926  13.925  0.1727 -0.0238  0.0778
14926W        W31400   2.870   1.594   1.157  0.0693 -0.0697 -0.3392
14927W        W31401   4.380  15.616   4.682  0.1886  0.2035 -0.0112
14928W        W31402  15.938   5.045   3.081 -0.0887  0.0217  0.1263
14929W        W31403  10.235  15.835  11.756 -0.0836 -0.1802 -0.0428
14930W        W31404  13.678   4.031   2.780 -0.2960  0.0271 -0.0095
14931W        W31405  14.104  16.892   1.485 -0.0902 -0.3267  0.0002
14932W        W31406   8.135   5.715  11.552  0.0605  0.1120 -0.2567
14933W        W31407   8.788  15.506   4.998 -0.0316 -0.1990 -0.3413
14934W        W31408  14.119  16.780  13.690  0.2164  0.0935  0.1230
14935W        W31409   8.219   6.030   3.658 -0.1905 -0.1043  0.3807
14936W        W31410   3.242   7.518  11.315  0.1460 -0.1384  0.0979
14937W        W31411   9.814   2.611   0.005 -0.1683  0.1614  0.0072
14938W        W31412   0.256   7.119   0.377  0.1084  0.1255 -0.2398
14939W        W31413  13.999   5.225  12.284  0.1023 -0.0286  0.0405
14940W        W31414  11.389  16.602  11.222  0.0166  0.1437 -0.1285
14941W        W31415  12.903  14.483   3.882 -0.3115 -0.0449  0.0379
14942W        W31416  11.709   9.038  13.533  0.2413  0.0120  0.0539
14943W        W31417   7.178  15.750   3.981 -0.2000  0.2935  0.1951
14944W        W31418   0.627  10.801  13.105  0.1388  0.0190  0.1513
14945W        W31419  10.264   4.241  14.230 -0.0101  0.1770  0.2191
14946W        W31420   7.586   6.913  14.217  0.3409  0.1085 -0.0964
14947W        W31421   8.443  12.366   1.590 -0.2098 -0.1358  0.0956
14948W        W31422  17.638   8.225  14.333  0.0502  0.1092  0.3980
14949W        W31423  14.083   5.483   5.066 -0.0966 -0.1937  0.1924
14950W        W31424   4.561  14.877  12.376 -0.1232 -0.3052  0.1464
14951W        W31425   3.596  14.620  10.725 -0.1810 -0.0349 -0.1668
14952W        W31426   1.194  13.518  14.024  0.2995  0.2689 -0.1589
14953W        W31427   1.647   0.493  12.799 -0.0078  0.0345  0.0009
14954W        W31428  13.382   0.408  11.041 -0.2028 -0.1545 -0.0773
14955W        W31429  17.444   7.802  10.225  0.0595  0.2440 -0.2911
14956W        W31430   8.517   5.399  12.801  0.3025  0.3692 -0.0059
14957W        W31431  16.295   5.035  13.289  0.2107  0.0038 -0.1599
14958W        W31432  15.281  17.703  14.580 -0.0506  0.1779 -0.0980
14959W        W31433  17.557  16.008  14.015 -0.1006 -0.1437  0.0799
14960W        W31434  14.018  10.816  12.232  0.1228  0.1275  0.1595
14961W        W31435   6.812   1.077  14.136 -0.2887 -0.1606 -0.0057
14962W        W31436   0.597  10.948   4.785  0.2042 -0.1827  0.1357
14963W        W31437  13.134   4.305  13.657  0.0299  0.2665 -0.3636
14964W        W31438   1.807  17.632   4.991 -0.0833 -0.2880  0.3881
14965W        W31439   4.140  18.407  13.754 -0.1273  0.2959 -0.2551
14966W        W31440   7.970  11.601  12.331 -0.0771  0.3395 -0.0412
14967W        W31441   8.303   8.412   4.545 -0.1792 -0.0839 -0.2256
14968W        W31442   9.259  11.144  11.591  0.0923 -0.2266  0.0526
14969W        W31443   5.940   7.447   5.173 -0.0630  0.1285 -0.1555
14970W        W31444  18.649   1.893   2.942 -0.0394 -0.3929  0.4007
14971W        W31445  10.981  14.629   4.672  0.1150 -0.2682 -0.2231
14972W        W31446  12.399   5.790  14.442  0.2180 -0.0705 -0.0161
14973W        W31447  12.670   2.637   0.170  0.1843 -0.0000  0.0666
14974W        W31448   4.006  12.541  13.922  0.2484 -0.2172 -0.1088
14975W        W31449   4.092   1.711  14.846  0.0660  0.2185  0.4654
14976W        W31450   6.169   0.188   0.256  0.1593 -0.0711 -0.0584
14977W        W31451  13.763   2.128   1.592  0.1579  0.0035  0.2057
14978W        W31452   6.917   9.537   1.440  0.0861  0.2251 -0.0078
14979W        W31453  16.017   5.237  14.096  0.3866  0.3011  0.3624
14980W        W31454   8.228  10.480   3.091  0.1627 -0.0499 -0.0435
14981W        W31455   7.954  17.854   4.233 -0.1799 -0.0776  0.0234
14982W        W31456  12.063   3.440   3.204 -0.0674 -0.1849 -0.1889
14983W        W31457   5.631   2.664   2.449  0.1963 -0.2593  0.1439
14984W        W31458   6.606  16.434  11.818  0.0665  0.1235  0.3498
14985W        W31459   1.204  12.217   4.347  0.0271 -0.3285  0.0005
14986W        W31460  15.624  17.413   4.541 -0.1381 -0.1022 -0.0334
14987W        W31461  15.922   4.691   2.654 -0.0117  0.1933 -0.1467
14988W        W31462  10.459  18.810  13.875 -0.0457 -0.3247 -0.1230
14989W        W31463   4.587  15.136   2.162 -0.0307 -0.0287  0.0120
14990W        W31464   5.827  16.781  14.849  0.1213 -0.0392  0.0428
14991W        W31465   8.731  15.772   1.839 -0.1109 -0.0593 -0.3788
14992W        W31466  16.411  12.718  12.343 -0.2178  0.0236  0.3522
14993W        W31467   6.674   4.667  11.560 -0.0905 -0.0946 -0.0434
14994W        W31468  15.665   5.500   1.599 -0.3085  0.4529 -0.0058
14995W        W31469   4.648   3.906   2.141 -0.4709  0.1621 -0.0770
14996W        W31470   5.378   3.196   5.835  0.2201  0.0153 -0.1081
14997W        W31471   5.671   7.737   2.966 -0.0697  0.0761 -0.1009
14998W        W31472   1.055   5.467   0.952 -0.0102 -0.0859  0.4662
14999W        W31473   1.266   1.615   0.113 -0.4431 -0.0987 -0.2209
15000W        W31474   7.617   3.277  11.831 -0.1635  0.0018 -0.1204
15001W        W31475   8.023  18.640  10.320  0.0909 -0.4912 -0.0166
15002W        W31476   3.364   9.634   0.171 -0.0466  0.4761 -0.1891
15003W        W31477  10.956   1.916   3.659  0.0502 -0.0185 -0.1574
15004W        W31478   9.266   8.606  12.352 -0.1484 -0.1348  0.0656
15005W        W31479  10.887   4.385   4.052 -0.0087 -0.1270  0.3601
15006W        W31480   3.979   7.303  11.450  0.0259  0.0540 -0.5516
15007W        W31481  16.863  14.351   9.602 -0.1804 -0.0838  0.2988
15008W        W31482   3.484   2.057  14.626  0.3864 -0.0872  0.1474
15009W        W31483  15.795   6.759   3.290  0.2464  0.0262  0.0138
15010W        W31484   3.008  18.818  14.982 -0.3041  0.0842  0.2634
15011W        W31485  15.818   0.286  11.113  0.2540  0.0547  0.0937
15012W        W31486  14.353   3.267   3.645  0.1958  0.0442  0.2342
15013W        W31487   2.440  18.173   3.805 -0.0597  0.0287 -0.0430
15014W        W31488  18.662  14.415  13.780 -0.1352  0.2026 -0.2633
15015W        W31489   0.577  17.025   4.125  0.0701 -0.1119  0.0033
15016W        W31490   3.698   0.869   4.194 -0.0432 -0.1273  0.3006
15017W        W31491   6.734   8.455   3.395 -0.1348  0.2516  0.0070
15018W        W31492  12.915  16.466   1.752 -0.0462  0.1111 -0.3194
15019W        W31493  11.816  14.427   3.485  0.0318 -0.1728  0.0304
15020W        W31494   4.470  14.983   3.961  0.0071 -0.3910 -0.1327
15021W        W31495  17.699   0.981  10.897  0.1840 -0.0154  0.0340
15022W        W31496  13.804  11.500  12.749  0.3195 -0.0541 -0.3546
15023W        W31497  17.911   3.132  11.456  0.1712  0.0358  0.4178
15024W        W31498   9.648   7.720  14.850 -0.0851  0.0955 -0.0300
15025W        W31499   9.666   1.611  12.077  0.0118 -0.2763 -0.3675
15026W        W31500  16.412  14.163   3.514 -0.1764 -0.0489 -0.0977
15027W        W31501  14.884  14.921   2.646  0.5153  0.3061  0.0953
15028W        W31502  13.440  15.787  13.563  0.1378  0.0389  0.2270
15029W        W31503  12.031  14.216   2.992 -0.0023  0.1291  0.1355
15030W        W31504   0.850   8.780   3.769 -0.1337 -0.1564 -0.1787
15031W        W31505   4.242   3.645  12.513 -0.0843  0.2876 -0.0350
15032W        W31506   8.255   5.242   0.123 -0.0716 -0.2192  0.2853
15033W        W31507   5.641  14.587   1.822  0.0029 -0.1579 -0.0281
15034W        W31508  13.276  15.847   3.887 -0.3892 -0.0599  0.5245
15035W        W31509  15.483   4.862  12.789  0.1628  0.2878 -0.2395
15036W        W31510  11.644  18.034  10.477 -0.3033  0.0712 -0.2154
15037W        W31511  11.222  16.536  13.188 -0.0038 -0.1251 -0.1198
15038W        W31512  13.516  13.861   1.137  0.0321 -0.0249  0.1412
15039W        W31513   6.554   7.884   4.542 -0.1424  0.1925 -0.1901
15040W        W31514   4.215   8.779  12.237 -0.0635  0.0175 -0.0676
15041W        W31515  18.047   3.484  12.397  0.0118  0.1172 -0.1662
15042W        W31516   9.761   0.903  13.156 -0.2168 -0.3488  0.3844
15043W        W31517  18.097  15.558   2.122 -0.1866 -0.1432 -0.1975
15044W        W31518   8.539   1.169   2.029  0.0045  0.1961  0.0337
15045W        W31519   3.826  15.500  12.799  0.0004 -0.0073 -0.2013
15046W        W31520  13.086  16.013  12.487 -0.0308  0.2060 -0.2802
15047W        W31521  15.670   3.381   2.376 -0.0186 -0.2772  0.1248
15048W        W31522  11.606  15.954   3.936 -0.2053  0.1640  0.3328
15049W        W31523  14.107   1.014  11.427 -0.0376  0.0827  0.2358
15050W        W31524   8.103  12.871  10.217  0.1022 -0.2187  0.2459
15051W        W31525   4.589  14.233  12.682 -0.1389 -0.1260  0.1483
15052W        W31526  13.358   0.027  10.200 -0.0437  0.0377  0.2664
15053W        W31527   1.149  15.807   3.743 -0.0749  0.0533  0.1475
15054W        W31528  15.137   0.165   3.184  0.1895  0.0818 -0.2622
15055W        W31529   0.936  12.175   2.387  0.3040 -0.0273  0.1164
15056W        W31530  19.148  19.026   0.787  0.0371  0.2754  0.1371
15057W        W31531  16.722  10.058  10.585  0.2840  0.2283  0.1535
15058W        W31532   7.455   1.335  12.129 -0.2410  0.2065  0.2319
15059W        W31533   6.755   7.318  12.487  0.1855 -0.1486 -0.0109
15060W        W31534   8.003   1.079   4.872 -0.0303  0.1644 -0.2700
15061W        W31535   4.709  17.610   3.615  0.0823  0.1960 -0.0879
15062W        W31536  11.224  14.374   3.843  0.1875 -0.1668 -0.1571
15063W        W31537   6.725   9.866   3.262  0.3889 -0.1699 -0.1695
15064W        W31538  11.467   5.316   5.710 -0.0582  0.0331  0.1609
15065W        W31539   8.082   8.175   0.739 -0.0327 -0.2152 -0.0461
15066W        W31540   2.289  10.746   3.457 -0.1608 -0.1755  0.2758
15067W        W31541   3.225  10.996  13.582  0.0648  0.1208 -0.1280
15068W        W31542   9.890   2.875  12.453 -0.0357 -0.2755  0.3402
15069W        W31543  10.490  17.379   1.167 -0.2208  0.0774 -0.0758
15070W        W31544   6.210  11.113   5.681  0.2799 -0.0780 -0.0801
15071W        W31545   9.506   9.527   2.358 -0.0290 -0.1732  0.1804
15072W        W31546   3.490   2.358   1.497  0.4416  0.0433  0.2450
15073W        W31547  15.623   5.156   2.643  0.1091  0.1857  0.0321
15074W        W31548   8.203  10.614   1.582 -0.1156  0.0890 -0.0651
15075W        W31549  12.403  10.673  10.931 -0.1957 -0.1950 -0.2932
15076W        W31550   8.348  10.491   0.535 -0.0466  0.4645 -0.0683
15077W        W31551   9.144   7.966  14.574 -0.1444 -0.1088 -0.1708
15078W        W31552   3.517  12.762   3.017 -0.0193  0.2139  0.3801
15079W        W31553   5.171   2.533  12.161  0.2228  0.2008 -0.1311
15080W        W31554  10.152   4.874  13.453  0.2009 -0.0906 -0.1791
15081W        W31555   2.185   1.373   3.269  0.1061 -0.0960 -0.2820
15082W        W31556  17.731   3.139  14.636  0.2811 -0.0614  0.2454
15083W        W31557  16.230   9.265   0.976  0.0491 -0.0251 -0.2269
15084W        W31558  12.561   2.026  13.171  0.0417  0.2861 -0.0212
15085W        W31559   6.914   3.817   3.542  0.0272 -0.2391  0.2254
15086W        W31560  10.943   9.703  13.435  0.0879 -0.2236  0.1897
15087W        W31561   2.702   4.311  12.085  0.0885 -0.0605 -0.3815
15088W        W31562  10.628   9.820   2.935  0.0882  0.0604  0.0397
15089W        W31563  10.854  13.622   2.597  0.1626 -0.2004 -0.0476
15090W        W31564  12.045   5.272  14.703 -0.1930  0.2113 -0.0772
15091W        W31565   0.333   6.147  13.446 -0.0683 -0.3870  0.0488
15092W        W31566   6.651   9.271   1.013  0.2834  0.3062 -0.0394
15093W        W31567  16.043   2.985  12.886 -0.3016 -0.1305 -0.0622
15094W        W31568  11.039  13.812   4.836 -0.2226 -0.0546 -0.3611
15095W        W31569  11.507   6.060  13.004 -0.3048 -0.1670  0.1564
15096W        W31570   7.240  19.010  12.801 -0.0602 -0.1859  0.0203
15097W        W31571  10.727   0.961   4.862 -0.1930  0.1432  0.0765
15098W        W31572  14.514  17.818  13.586  0.0505  0.2510 -0.1469
15099W        W31573   0.034   6.063  13.929  0.0309 -0.3129  0.0655
15100W        W31574   6.589  15.761  11.707 -0.0491  0.4115  0.1043
15101W        W31575   4.742  14.306  10.021  0.3012  0.2967  0.0111
15102W        W31576  14.742   9.357   4.213  0.1637  0.0219  0.1084
15103W        W31577   7.661  19.076  13.142 -0.0045 -0.0263 -0.0956
15104W        W31578  17.657   3.388  11.959  0.1664 -0.0712 -0.2292
15105W        W31579  13.835  16.582   2.401  0.0051 -0.1558  0.0549
15106W        W31580  13.574  12.777   0.669  0.1146 -0.1533  0.2379
15107W        W31581   7.011   2.238   9.497  0.0491 -0.0869  0.2622
15108W        W31582  12.399  12.544   4.511 -0.0515 -0.2473 -0.2429
15109W        W31583   8.812  12.741   1.245  0.0897 -0.1153 -0.0200
15110W        W31584  11.947  13.920   3.402  0.0290 -0.0351 -0.1348
15111W        W31585   8.974   8.882   3.628 -0.1181 -0.0870  0.1772
15112W        W31586  18.172   7.517   4.083  0.1263 -0.0591  0.0427
15113W        W31587   4.477   5.953   4.681 -0.0268 -0.0280 -0.0682
15114W        W31588  17.346  15.519   2.433  0.3728 -0.0297 -0.0246
15115W        W31589   0.524  15.356  13.507  0.2967  0.2571  0.0576
15116W        W31590  19.011   0.690   0.282  0.2356  0.1698  0.1751
15117W        W31591  14.110  14.773  10.870  0.1182  0.0403 -0.2159
15118W        W31592   5.702  15.577  11.735  0.0541 -0.1437  0.1364
15119W        W31593  18.474   3.298   1.548  0.0853  0.1816 -0.0880
15120W        W31594  16.354  13.336   0.941  0.0564 -0.1365  0.3698
15121W        W31595   4.646   6.916   0.198 -0.3907 -0.0439 -0.0670
15122W        W31596   7.070  18.960  14.311 -0.1145  0.0578 -0.2700
15123W        W31597   0.285  14.007   0.030 -0.0056 -0.3616  0.2088
15124W        W31598  11.824   1.166   0.428  0.4124 -0.1714 -0.1405
15125W        W31599  18.817  11.778  10.795  0.1281  0.0070  0.2025
15126W        W31600   2.115  17.673  10.607  0.2203 -0.0392  0.1202
15127W        W31601   2.979  10.067   0.316 -0.3050 -0.2304 -0.2978
15128W        W31602   0.384  11.400  10.950 -0.1953 -0.2139  0.0262
15129W        W31603   0.814  16.620  12.419  0.1138  0.0979 -0.0893
15130W        W31604   9.793   4.329  14.068 -0.0028  0.0134 -0.2063
15131W        W31605   8.430   5.606  11.988  0.0642  0.1175  0.4063
15132W        W31606   8.376   0.204   1.809 -0.0220 -0.4083 -0.1367
15133W        W31607   3.154  16.923   1.831 -0.2121 -0.0502  0.4086
15134W        W31608   0.574   2.507  11.224  0.1762  0.2922  0.1088
15135W        W31609  13.173  13.536  14.414  0.0779  0.1042  0.1155
15136W        W31610   3.803  14.925  13.604  0.0610 -0.1712 -0.3185
15137W        W31611  10.489   7.345   3.047  0.0699 -0.3662  0.0051
15138W        W31612  10.223   8.458   4.822 -0.0336  0.1354 -0.1464
15139W        W31613   3.426  18.014  13.797 -0.1148 -0.0890  0.0095
15140W        W31614   8.366   7.085   1.758  0.1475  0.1872 -0.0498
15141W        W31615  11.981  10.601  11.253 -0.1328 -0.2929 -0.1160
15142W        W31616   6.173   5.505  13.709 -0.2203  0.1199  0.0267
15143W        W31617  11.384   9.822   5.990 -0.0656  0.1450 -0.1500
15144W        W31618  18.051   5.009   2.507  0.4286  0.0261  0.0962
15145W        W31619  16.335   2.430   4.088 -0.0397  0.3463  0.1355
15146W        W31620   0.339  17.439  11.024  0.4177 -0.0260  0.0293
15147W        W31621  10.942  17.415   2.419 -0.1883 -0.1163 -0.1116
15148W        W31622   1.208   3.728   0.368  0.2846 -0.0074  0.1889
15149W        W31623  16.216   1.782  14.693 -0.2521  0.0816 -0.0760
15150W        W31624   5.176   1.891  10.942 -0.0307 -0.0086 -0.2067
15151W        W31625   2.236   8.341  11.073  0.0384  0.1145  0.0128
15152W        W31626   6.225   3.013   0.517 -0.1056  0.1125  0.5289
15153W        W31627   5.151  12.725  14.485 -0.2414 -0.0978  0.1475
15154W        W31628  14.591  18.302   0.350 -0.3907  0.2455  0.0303
15155W        W31629   2.933   5.143  13.020  0.1207 -0.2439 -0.1638
15156W        W31630   7.972  18.491  12.390  0.0693  0.0424 -0.0548
15157W        W31631  14.475  15.993  11.195  0.0168  0.3081 -0.2534
15158W        W31632  12.328  18.304  12.440  0.1110 -0.3874 -0.2046
15159W        W31633   3.040  11.597   0.758  0.0026  0.1727 -0.4086
15160W        W31634  17.700  13.953  11.419 -0.1403 -0.2149  0.2895
15161W        W31635   3.976   2.814   2.645 -0.0905  0.3187 -0.0222
15162W        W31636   2.806  18.249   3.206 -0.2038 -0.0257  0.1692
15163W        W31637  17.111   7.283  10.161 -0.0805 -0.3811  0.4000
15164W        W31638  18.061   6.664   4.099 -0.0316  0.5244  0.3376
15165W        W31639  12.931  10.485   2.023  0.0283 -0.1730 -0.2517
15166W        W31640   1.647  17.807   0.847 -0.0555  0.0310  0.4230
15167W        W31641   6.948  14.132   0.708  0.1847  0.4473  0.0750
15168W        W31642  13.946   1.971  11.383  0.0408  0.1497  0.0556
15169W        W31643   5.911   5.073  13.230  0.5549  0.0071  0.1979
15170W        W31644   8.054   9.222  14.508  0.2181  0.1153 -0.2487
15171W        W31645   0.491   5.272   2.345  0.0808 -0.0449 -0.1644
15172W        W31646   2.832   3.614   2.418  0.2976 -0.1250  0.2768
15173W        W31647   6.559   4.196  11.111  0.0669 -0.0701 -0.2562
15174W        W31648   3.488  15.776   4.339 -0.0061 -0.1818 -0.1635
15175W        W31649   5.879   1.894  14.729 -0.2322  0.0861  0.1882
15176W        W31650   7.936   9.732  11.356  0.2035  0.0302 -0.3712
15177W        W31651   6.598   8.678  13.119  0.1537  0.1060 -0.0883
15178W        W31652  18.087   5.815   0.157  0.1039  0.1531  0.0766
15179W        W31653  17.381  15.346  15.109 -0.2282  0.0819 -0.0935
15180W        W31654  17.238   1.589  12.693 -0.0168 -0.0145 -0.1030
15181W        W31655   6.745  12.397  12.878  0.1280 -0.0735  0.0010
15182W        W31656   9.901   3.764  12.542 -0.0980  0.4201  0.1935
15183W        W31657   2.614  17.493   2.621 -0.2110 -0.1498  0.0913
15184W        W31658   9.698   5.158   0.877  0.1162 -0.0655  0.1231
15185W        W31659  13.305  15.998   3.010 -0.1359  0.1395  0.0141
15186W        W31660  16.245   6.707   1.560  0.0802  0.1300 -0.2050
15187W        W31661  10.617  16.376   1.708 -0.0629 -0.1394 -0.3732
15188W        W31662   2.267  16.826   0.372 -0.3246 -0.3431  0.1885
15189W        W31663  17.074   6.609   1.293  0.4013  0.2115 -0.0811
15190W        W31664  18.837  18.965   4.827  0.0241  0.1754  0.3548
15191W        W31665   2.373  11.042   2.862 -0.0544  0.3284  0.1202
15192W        W31666   7.930   3.249   0.272  0.0129  0.1993  0.0109
15193W        W31667   1.219   1.833  14.479  0.1317 -0.0650 -0.5018
15194W        W31668   3.815   3.566  12.687  0.2973 -0.4181 -0.0760
15195W        W31669  14.937   3.588   4.281 -0.0929  0.4010 -0.0491
15196W        W31670   1.621  12.365  14.407 -0.1922 -0.0582  0.1990
15197W        W31671  14.822   6.146   0.550  0.1164  0.0496  0.3330
15198W        W31672  13.269  15.336   2.589 -0.2433  0.1048 -0.2023
15199W        W31673   5.642  11.001  10.852  0.0514 -0.1032  0.2722
15200W        W31674   7.221  14.148  11.727 -0.2624 -0.0250 -0.0579
15201W        W31675   1.644   4.496   0.212  0.2532 -0.0454  0.0554
15202W        W31676  12.438  16.368   4.257 -0.2292 -0.1085 -0.1849
15203W        W31677  10.215  10.710  14.758  0.0023 -0.2572 -0.0727
15204W        W31678   4.870  13.532   2.888 -0.0911  0.0434  0.1175
15205W        W31679   0.067   7.032  11.841 -0.2827  0.0957  0.3142
15206W        W31680  14.660  12.154  13.934  0.1661 -0.2387  0.2450
15207W        W31681  11.669   0.087  11.125  0.2335  0.0156 -0.1209
15208W        W31682  11.116  11.372  12.958 -0.1009 -0.1760 -0.0683
15209W        W31683   0.035   1.061  11.794  0.3432 -0.4114 -0.0424
15210W        W31684   6.020   7.294   3.823 -0.1152  0.0346  0.0201
15211W        W31685  12.801  17.980  11.313  0.0437 -0.0980  0.0276
15212W        W31686   9.914  14.213   4.308 -0.0134 -0.3385  0.3008
15213W        W31687  18.609   3.113   1.022  0.0176 -0.1908  0.0017
15214W        W31688  14.562  10.627   1.284  0.4442  0.0565 -0.1857
15215W        W31689   9.982  16.307   1.687  0.2871  0.1421  0.1718
15216W        W31690   9.987  14.138  14.509 -0.5119  0.1174 -0.2319
15217W        W31691  16.062   3.949  11.765 -0.2230 -0.1606 -0.3719
15218W        W31692  11.062   8.932   5.244 -0.0135 -0.1651  0.0109
15219W        W31693  18.316   3.305   0.675  0.2587 -0.0803  0.2500
15220W        W31694  13.749  12.225   3.348 -0.2354 -0.3073 -0.4220
15221W        W31695  12.743   8.690   0.783  0.2062  0.0202  0.1435
15222W        W31696  18.875  14.218  12.345 -0.2867 -0.1552  0.5501
15223W        W31697  14.669  12.801   5.067  0.2920 -0.4793  0.0881
15224W        W31698  13.496   2.211   2.070  0.1053  0.1123  0.2735
15225W        W31699  17.979  12.361  13.430 -0.1007 -0.1471  0.1446
15226W        W31700   1.859   0.836  13.728 -0.0441  0.2163  0.0749
15227W        W31701  11.923  15.963   2.322  0.0099 -0.0751  0.3759
15228W        W31702  12.939   2.966   0.435 -0.0491 -0.2109  0.0430
15229W        W31703  14.065   5.124   4.705 -0.1439  0.0348  0.2890
15230W        W31704  15.967  14.434   2.923 -0.3384 -0.2602  0.2314
15231W        W31705   8.639   8.768  11.854 -0.1677 -0.0954 -0.1782
15232W        W31706  17.619   6.215   2.605  0.1309 -0.0820 -0.2461
15233W        W31707  16.054  17.430   2.591  0.0972 -0.0111 -0.1264
15234W        W31708  15.496  14.288  14.195  0.0813  0.1188 -0.0343
15235W        W31709  14.395  12.636  11.582 -0.2519  0.0452  0.0666
15236W        W31710  12.930   2.792  10.964 -0.1568  0.1635 -0.2736
15237W        W31711  17.981   4.361   4.835  0.2197  0.1185  0.3014
15238W        W31712  11.128   8.953  13.527 -0.0189 -0.2302 -0.2817
15239W        W31713   0.210  15.302   0.391  0.0276  0.1598  0.1541
15240W        W31714   6.419  16.527   4.710  0.1585 -0.2633 -0.1055
15241W        W31715   4.171  12.614   3.475  0.1722  0.2045  0.4624
15242W        W31716  10.916  17.083  13.356 -0.1042  0.0292 -0.1606
15243W        W31717  14.738  10.170   4.633  0.0254  0.0852 -0.1472
15244W        W31718   0.965  14.876   0.178  0.0617 -0.0135 -0.0792
15245W        W31719   7.723   6.350  10.821  0.1412 -0.2222  0.0851
15246W        W31720  11.502  15.693  11.318  0.2204  0.0541  0.0050
15247W        W31721   7.558  18.465   0.961  0.0808 -0.1765  0.0353
15248W        W31722   8.828   0.171   2.095  0.0244  0.0408  0.0346
15249W        W31723   5.307   1.447   1.055 -0.2835  0.1851 -0.0755
15250W        W31724  13.281  15.365  11.252 -0.1751  0.0958 -0.0653
15251W        W31725  18.375   3.353  14.464 -0.1030  0.0934  0.0139
15252W        W31726   8.745  14.923  14.579 -0.0019 -0.0298 -0.2368
15253W        W31727   1.720  11.115   1.350  0.4580  0.1398 -0.1483
15254W        W31728  14.626   4.446  11.398  0.0838  0.2361  0.0375
15255W        W31729   6.471  11.769  13.924  0.0627 -0.2639  0.2831
15256W        W31730   6.313  13.808  14.631 -0.0035 -0.2828  0.1219
15257W        W31731  18.056  17.918  11.587  0.1940 -0.4321  0.2556
15258W        W31732   1.430   6.381  10.357 -0.0191  0.0393  0.0384
15259W        W31733   8.839   8.670   5.002 -0.0747 -0.0385 -0.0915
15260W        W31734   2.713  12.208  11.736 -0.0259 -0.1777  0.0674
15261W        W31735   2.076  16.786   1.781 -0.3617 -0.0091 -0.1693
15262W        W31736  17.911  13.170  11.263  0.5987  0.2260  0.0221
15263W        W31737   8.522   4.553  11.332  0.0457  0.0205 -0.0781
15264W        W31738  13.182  18.180  11.020 -0.0689  0.1597  0.3449
15265W        W31739   2.928   0.353   0.361 -0.0564  0.0570 -0.2302
15266W        W31740   6.718   0.132  10.971  0.0892 -0.1576  0.0809
15267W        W31741   9.866  11.587  12.386 -0.3823 -0.1857 -0.0464
15268W        W31742   8.581   3.620   0.727  0.0246 -0.0672  0.0062
15269W        W31743  16.647  14.274   2.289  0.1699 -0.2327 -0.0543
15270W        W31744  14.797   5.428  14.177  0.0845  0.3001  0.1263
15271W        W31745   7.796   0.444  14.491  0.3190 -0.4485  0.1157
15272W        W31746  13.943  12.982  13.446 -0.0283 -0.0191 -0.0346
15273W        W31747   3.744   9.279   0.342  0.2360 -0.0818 -0.3177
15274W        W31748   4.393  11.993  14.296  0.1749 -0.1604 -0.0202
15275W        W31749   3.803  11.998   0.244  0.0066 -0.0279 -0.2314
15276W        W31750  16.365  15.969  10.395  0.1537  0.1282 -0.1123
15277W        W31751   8.547   8.771   4.039  0.0776  0.0439  0.3158
15278W        W31752   4.194   3.789  14.725 -0.3240  0.1887 -0.3736
15279W        W31753  13.861   1.214   4.785  0.2890  0.0884  0.3142
15280W        W31754  18.044   3.180  12.944  0.0193  0.2614 -0.2423
15281W        W31755   1.082  14.013  12.431  0.1586 -0.1366 -0.1083
15282W        W31756   0.010   9.943   0.500 -0.0515  0.2695  0.1612
15283W        W31757   4.728  12.976  12.152  0.1274 -0.2061 -0.0230
15284W        W31758   7.452  14.807   1.263  0.0150  0.0149  0.0400
15285W        W31759   7.050  11.492   4.245 -0.1165  0.2811 -0.0628
15286W        W31760   3.294  16.352  15.152 -0.1423 -0.1672  0.0802
15287W        W31761   6.828  17.568   3.067  0.0626 -0.2650 -0.2911
15288W        W31762   4.038  14.126  13.583  0.1483  0.2627  0.1323
15289W        W31763  14.238   9.376   1.964  0.1539 -0.0628 -0.2088
15290W        W31764  11.405   2.395   0.316  0.1409  0.1377 -0.0745
15291W        W31765   7.229  12.298   0.293  0.2072  0.0526 -0.0815
15292W        W31766   3.531  18.615   2.961 -0.3425  0.0254  0.0387
15293W        W31767  10.539   2.087  10.894 -0.1477  0.0256  0.3620
15294W        W31768  17.806  11.374   3.778 -0.2059  0.0210 -0.2664
15295W        W31769  17.651   5.681  14.962  0.0807 -0.3697  0.1284
15296W        W31770  13.861  10.881  11.720  0.3055 -0.0604 -0.0047
15297W        W31771  14.283  16.340  13.496 -0.1629 -0.0166  0.1863
15298W        W31772   8.558   6.964  12.866  0.1591  0.1267 -0.0506
15299W        W31773  15.364   4.534  14.032  0.0238  0.0621  0.2958
15300W        W31774   3.824   6.970   4.305  0.3526 -0.0664  0.2087
15301W        W31775  18.744  13.712   5.027  0.1575  0.2025 -0.3702
15302W        W31776  14.703   0.661   1.365 -0.3534  0.0977 -0.0901
15303W        W31777   3.917   3.753  12.198 -0.2306  0.2093 -0.1117
15304W        W31778   4.071   2.214   1.790  0.1257 -0.0253 -0.0368
15305W        W31779  18.217  10.547  13.295  0.3373 -0.2899  0.1606
15306W        W31780   6.841  14.087   2.238  0.1697 -0.3725  0.0390
15307W        W31781   4.653   7.265   0.651 -0.3739 -0.0938  0.3159
15308W        W31782  17.933  10.789   0.834  0.0652 -0.0410  0.0692
15309W        W31783   6.971  16.826   2.441 -0.0867  0.2047  0.1174
15310W        W31784   2.445   8.300   3.156 -0.1046  0.1773 -0.2136
15311W        W31785  12.670  16.674  13.701 -0.4859 -0.0598 -0.1447
15312W        W31786  15.159   0.636   4.677  0.2565 -0.1882 -0.0645
15313W        W31787   7.101   7.649  14.647 -0.0281 -0.0113  0.1074
15314W        W31788   5.013  15.256   3.977 -0.0448 -0.3455 -0.0745
15315W        W31789   2.447  10.547  11.096 -0.0647 -0.2616  0.0971
15316W        W31790  18.123   5.419   0.475 -0.1371 -0.2757  0.2527
15317W        W31791  15.740  16.696   0.070 -0.0241  0.0039  0.1044
15318W        W31792   3.189   1.932   3.983 -0.2221  0.3234 -0.0607
15319W        W31793   5.450   5.012   0.736 -0.2444  0.1135  0.1843
15320W        W31794   4.613   9.589   3.025  0.0871 -0.0120  0.1121
15321W        W31795   0.196   0.682  14.767 -0.0858  0.4400 -0.1457
15322W        W31796   9.742   9.567  12.037 -0.0160 -0.0013 -0.0381
15323W        W31797   9.469  12.627   0.773  0.0043  0.0593  0.1627
15324W        W31798   0.726   7.950   4.087 -0.0917  0.1064  0.3157
15325W        W31799   5.996   5.301   3.845  0.0394  0.0284 -0.1282
15326W        W31800  13.448  16.934   0.845  0.1155 -0.0486  0.1991
15327W        W31801   6.977   5.973  10.304 -0.2150  0.2518 -0.0508
15328W        W31802   7.622   6.488  13.871  0.0364 -0.0264  0.2123
15329W        W31803  16.410   4.297   2.669  0.5890 -0.1003 -0.2156
15330W        W31804   9.651  13.914  10.456 -0.3011 -0.2188 -0.1214
15331W        W31805  18.447   8.300   4.979 -0.0282 -0.0056  0.0328
15332W        W31806   9.842   8.120   4.524 -0.0673 -0.1098  0.1257
15333W        W31807  10.314   1.209  11.539 -0.2364 -0.0953 -0.0930
15334W        W31808  14.003   7.794   5.729 -0.0232 -0.1161 -0.1690
15335W        W31809   8.939   8.117   4.522  0.0191 -0.0451 -0.2291
15336W        W31810  14.954  18.767   3.528  0.1395 -0.0671 -0.2478
15337W        W31811   2.055   6.190  14.886  0.1391 -0.0597 -0.0712
15338W        W31812  13.670  16.215   5.252  0.1283  0.1085 -0.0756
15339W        W31813  12.033  15.631   1.892 -0.0601 -0.0621 -0.1888
15340W        W31814  16.578  15.603  10.163  0.1592  0.0214 -0.1013
15341W        W31815   3.445  12.898   0.316 -0.0171  0.0249 -0.1270
15342W        W31816   5.345  13.393   1.733  0.1386  0.0029 -0.0941
15343W        W31817  10.155   0.144   0.176 -0.1020 -0.0534 -0.0155
15344W        W31818  10.115  16.362  10.914  0.2205  0.0823  0.0226
15345W        W31819   9.038   7.892   2.416  0.2516  0.3342  0.0692
15346W        W31820   7.452   0.711  13.376 -0.2078 -0.1830 -0.0452
15347W        W31821   0.830   8.254  12.003  0.1105 -0.3021  0.2307
15348W        W31822  12.697   5.612   2.986 -0.1831 -0.1040  0.3072
15349W        W31823  10.277  16.794  11.818 -0.1119 -0.1761 -0.1337
15350W        W31824   1.816   2.173   3.201 -0.0116  0.1149  0.1327
15351W        W31825   8.061   4.562  11.534  0.1917 -0.1114  0.1234
15352W        W31826   2.306  10.579  11.802 -0.2007  0.0213 -0.1469
15353W        W31827  16.417  16.731   3.930  0.3660  0.1166 -0.1248
15354W        W31828   3.142   7.732  14.844  0.3561  0.1233  0.6028
15355W        W31829   4.660   8.836  11.909  0.1434  0.2292  0.1314
15356W        W31830   3.217   9.948   2.359 -0.1484  0.1527 -0.2162
15357W        W31831  12.904  18.697  14.647 -0.0059  0.2398 -0.0458
15358W        W31832  18.060   6.369  14.180  0.0706 -0.2962 -0.1144
15359W        W31833  17.211   8.004  14.989 -0.1868  0.0279 -0.0308
15360W        W31834   0.635  14.709   1.539 -0.1554 -0.2891 -0.1620
15361W        W31835   2.998   3.001   0.695 -0.4263  0.0045 -0.0477
15362W        W31836   3.341  11.228   1.007  0.1648  0.0766  0.0413
15363W        W31837   6.226   1.894  11.274 -0.0871  0.1560  0.1449
15364W        W31838  11.241   4.041   3.836  0.0696  0.1713  0.1070
15365W        W31839  11.957  12.963   1.229 -0.1600 -0.1090  0.0693
15366W        W31840  16.413  11.396   3.048 -0.2384 -0.3595  0.0545
15367W        W31841  15.622   5.969   1.145 -0.6944  0.0828 -0.2256
15368W        W31842   5.060  10.574   1.451  0.3613  0.2254 -0.1228
15369W        W31843   0.948  15.765   2.655  0.0664 -0.0422  0.1551
15370W        W31844   8.568   1.256  13.656  0.0084 -0.4814  0.1873
15371W        W31845   7.733  12.538  11.056 -0.1386  0.0878 -0.1565
15372W        W31846  10.491   4.233   2.101 -0.0482 -0.1540  0.0178
15373W        W31847   0.177  15.526  13.153 -0.0717  0.0631 -0.0221
15374W        W31848  15.505  11.181   1.090 -0.1688 -0.1474 -0.0748
15375W        W31849   5.149  17.058  12.110  0.0305  0.3686  0.1559
15376W        W31850  15.513  13.771  13.831  0.1747 -0.2841 -0.1282
15377W        W31851   4.599  16.095   3.660 -0.2439  0.0318  0.0026
15378W        W31852   5.966  16.788  11.091 -0.1334  0.0386 -0.1171
15379W        W31853  17.829   4.147  11.286 -0.0526  0.0024 -0.1048
15380W        W31854   1.844   7.691  10.389 -0.0428  0.1345  0.2592
15381W        W31855  14.223   0.332  10.866 -0.1774  0.0735  0.0071
15382W        W31856   3.973  11.316   2.344  0.3322 -0.2370  0.0941
15383W        W31857  17.299   2.072  12.542 -0.1332 -0.2648  0.1828
15384W        W31858  18.528  12.415  10.534  0.0841 -0.2171  0.0320
15385W        W31859  11.096   0.781   5.130 -0.3042  0.0994 -0.2356
15386W        W31860  15.053   9.279  12.623 -0.1631  0.0964  0.0693
15387W        W31861   2.630   0.980   2.432  0.2627  0.0970 -0.0406
15388W        W31862   0.416   8.532   3.580  0.0731 -0.1984 -0.0204
15389W        W31863   7.220   6.464   1.523  0.3923 -0.0307 -0.0095
15390W        W31864  12.913  18.555   9.914 -0.3746 -0.1572  0.0064
15391W        W31865  14.669  17.053  13.130 -0.1184 -0.0332 -0.0673
15392W        W31866   9.816   8.035   2.570  0.0630  0.0973  0.0482
15393W        W31867   4.833  17.421  11.502 -0.0086  0.0824  0.1559
15394W        W31868  12.507   8.964   2.168  0.1172  0.0863 -0.1688
15395W        W31869   7.941  11.335  12.828 -0.0287 -0.0733 -0.1522
15396W        W31870  17.038   9.253   3.739 -0.0161 -0.0055  0.1352
15397W        W31871  11.358   4.572  14.946 -0.0204  0.1789  0.1945
15398W        W31872  17.695  16.477   0.834 -0.2805 -0.1531  0.1806
15399W        W31873   0.279  12.527  10.717 -0.2060  0.0434  0.1555
15400W        W31874  15.341   8.471  12.381 -0.0597 -0.0562 -0.1427
15401W        W31875   4.333  13.313  10.350 -0.1387 -0.1443 -0.0841
15402W        W31876  14.133   3.042  13.672 -0.3254  0.1141  0.2267
15403W        W31877   8.186  15.441  11.558  0.4666  0.2386  0.1527
15404W        W31878  11.525  11.719   3.112 -0.0315  0.0744  0.3125
15405W        W31879   1.416   5.524  10.924  0.0961  0.0124 -0.1028
15406W        W31880   4.765   8.025  11.191 -0.4223  0.4021 -0.2413
15407W        W31881   3.404  11.456  13.469 -0.1413 -0.2334  0.0562
15408W        W31882   5.251  13.339  15.130  0.2172  0.0204 -0.2041
15409W        W31883   5.480   8.082   2.674  0.0746  0.0793  0.0434
15410W        W31884   9.314   4.454   2.911 -0.1353  0.0804 -0.2785
15411W        W31885  12.334  17.505  13.086 -0.0137  0.1191  0.1549
15412W        W31886   4.847  16.368  13.738 -0.1017  0.0908  0.3220
15413W        W31887  12.975  10.492  13.855  0.1342  0.0186 -0.1840
15414W        W31888  18.876   4.496  11.613 -0.1075 -0.0722  0.1768
15415W        W31889   6.303   6.760  11.755 -0.2241 -0.0902  0.1417
15416W        W31890  12.049  11.360  13.367  0.1194 -0.2473 -0.0785
15417W        W31891   2.859  17.158   5.667  0.0115  0.1188 -0.0175
15418W        W31892   7.093   7.129   2.613  0.0167 -0.1729 -0.1184
15419W        W31893   1.340  15.131  11.801 -0.0087  0.0504  0.0384
15420W        W31894  13.510   3.617  12.015 -0.0181 -0.1825  0.0005
15421W        W31895   0.513  11.916   5.041 -0.1357  0.3317  0.1139
15422W        W31896  11.420   6.460  10.900 -0.1720  0.1529 -0.1019
15423W        W31897  18.605  14.042  11.879  0.2577  0.0483  0.0357
15424W        W31898  17.670  17.745  12.784 -0.0665  0.2965  0.0014
15425W        W31899   1.272  15.694   4.417  0.0312  0.0339 -0.1517
15426W        W31900  17.280  15.256  13.377 -0.1128  0.0168 -0.3310
15427W        W31901   5.203  12.126  13.776  0.0626 -0.2212 -0.0995
15428W        W31902  18.305  11.314   3.018  0.1767 -0.3196  0.0699
15429W        W31903   9.843   5.354  12.258  0.1084 -0.0849  0.1547
15430W        W31904  10.525  13.225   2.547  0.1005 -0.0225  0.0633
15431W        W31905   3.055   2.708   2.394  0.1904 -0.0049 -0.2400
15432W        W31906   9.472   6.510  14.548 -0.2113 -0.0040 -0.2041
15433W        W31907  14.204  10.611  11.513 -0.3415  0.2925 -0.2551
15434W        W31908  18.122  17.747   2.122  0.1988  0.1696 -0.0272
15435W        W31909  17.276   9.797  15.109  0.1808 -0.1971 -0.3162
15436W        W31910  16.806  13.424  12.132  0.0033  0.4540  0.2517
15437W        W31911  15.365   8.979   5.637  0.2347 -0.1310 -0.1797
15438W        W31912   5.831  12.668   9.346  0.0765 -0.1269  0.1898
15439W        W31913  18.242  13.872  12.709  0.1969 -0.3755  0.1862
15440W        W31914   7.130  17.684   5.351  0.0020 -0.1351 -0.0903
15441W        W31915  15.096  14.590  11.982  0.0025 -0.1897  0.3599
15442W        W31916  18.321  17.244   2.300  0.2205 -0.0757  0.0951
15443W        W31917   3.225  13.648  15.145  0.1385 -0.0550  0.2150
15444W        W31918  18.030  13.325  15.016 -0.1135  0.1357  0.0119
15445W        W31919  11.283   1.992   0.017  0.0360 -0.2114  0.2897
15446W        W31920  10.140   1.417   2.766 -0.2394 -0.1106 -0.1917
15447W        W31921  10.019   8.812  11.175 -0.1094 -0.0646  0.0421
15448W        W31922   6.698   0.120  11.552 -0.2190  0.0030  0.0065
15449W        W31923  13.275   4.644   3.941 -0.1699  0.0283  0.1007
15450W        W31924   5.430   9.799  15.039  0.1045 -0.0489  0.1404
15451W        W31925  16.101  16.046  12.718 -0.1510  0.1297 -0.1536
15452W        W31926  13.351   4.121   3.187 -0.2563  0.1494  0.1032
15453W        W31927  10.528  11.887   4.104  0.0752  0.0156  0.1443
15454W        W31928   1.009   7.666  13.531 -0.2652 -0.2302  0.1821
15455W        W31929   6.904  17.591   0.724 -0.1112  0.2061  0.1847
15456W        W31930  13.545  17.007   2.091 -0.1458  0.2414  0.1391
15457W        W31931  10.451  17.816   5.655  0.1438  0.0495  0.1322
15458W        W31932  16.240  14.839   3.797 -0.4360 -0.0169  0.0043
15459W        W31933   5.118  17.545   2.753  0.3859 -0.0052 -0.2383
15460W        W31934   0.587  14.569   2.066  0.0318  0.0719 -0.2551
15461W        W31935  16.462  16.960  13.904 -0.0984 -0.0850 -0.1329
15462W        W31936  15.425   0.500   4.274  0.0593 -0.0967  0.1234
15463W        W31937   5.016   5.130  14.272  0.1566 -0.2034  0.1292
15464W        W31938   7.892  10.496   4.672  0.1043 -0.2665  0.0490
15465W        W31939   2.599   2.109   1.046  0.2876 -0.0379 -0.1315
15466W        W31940   6.486  10.667   3.888 -0.4316  0.3151  0.1705
15467W        W31941   8.620   2.866   1.455  0.0676 -0.2058  0.1282
15468W        W31942  13.538   2.504   0.582  0.1117 -0.0928  0.2121
15469W        W31943  13.723   0.896   3.913 -0.2719 -0.1623  0.0432
15470W        W31944  14.510  13.031  11.271  0.2136  0.2653  0.3362
15471W        W31945   0.924   9.726  13.739 -0.2522  0.1860 -0.2085
15472W        W31946   6.084   5.190  14.116 -0.0078  0.1179  0.0420
15473W        W31947   3.428   6.298   4.171  0.1577  0.0029 -0.1033
15474W        W31948   5.926   9.387   0.350 -0.1681  0.2663 -0.3085
15475W        W31949  12.221   5.819   3.830  0.1530 -0.2235  0.0434
15476W        W31950   1.912   7.467  10.988  0.2688  0.1654 -0.0761
15477W        W31951   8.706   1.184  11.560 -0.2945  0.0752 -0.1017
15478W        W31952  13.212  18.499  12.423 -0.0688 -0.0396  0.2157
15479W        W31953   3.634  11.427   0.644  0.1390  0.1003 -0.0470
15480W        W31954   1.007  12.714  12.684  0.3734 -0.3844  0.4816
15481W        W31955   8.335   5.206  14.127  0.2527 -0.0553  0.1046
15482W        W31956   0.326   5.281  12.016 -0.0826 -0.2408 -0.0529
15483W        W31957   7.597   1.413   1.923  0.1473  0.0764  0.1233
15484W        W31958   4.235  16.376   0.176 -0.0006 -0.2278  0.1540
15485W        W31959  13.540   8.292  11.492  0.1827  0.0411  0.1117
15486W        W31960   4.313   7.778   9.637 -0.0323 -0.0857 -0.2544
15487W        W31961   4.489   7.098  11.315  0.0537  0.0475 -0.1392
15488W        W31962  16.415  16.845   4.867  0.3715 -0.1816 -0.1723
15489W        W31963  10.627   8.823   2.387  0.0718  0.1054  0.0251
15490W        W31964   9.481  18.395   1.034 -0.0567  0.0010 -0.4175
15491W        W31965   2.118  14.560   4.637  0.5224  0.2138  0.1960
15492W        W31966   2.911   5.452  13.975 -0.0727 -0.4371  0.4344
15493W        W31967   2.559   5.374   3.622  0.3827 -0.4558 -0.3016
15494W        W31968  10.919  14.354   1.782 -0.2850  0.0535 -0.0768
15495W        W31969   7.323  11.652  14.938 -0.2468  0.0221 -0.1336
15496W        W31970  14.381   5.166   4.312 -0.2773 -0.0421  0.0140
15497W        W31971  19.027   6.236  14.613  0.0389 -0.2656  0.1257
15498W        W31972  16.871  16.305   5.542 -0.1081 -0.0908  0.1287
15499W        W31973  16.395   3.417  14.185  0.1839  0.0441 -0.2490
15500W        W31974   7.186   1.880   0.231 -0.0610 -0.1307  0.3107
15501W        W31975   4.041  16.333   0.781  0.0556  0.0529  0.0111
15502W        W31976  18.338  16.172  12.794  0.4620  0.0884 -0.1760
15503W        W31977   5.663   7.091  14.612  0.2851 -0.1418  0.1065
15504W        W31978  10.464  18.200   1.378 -0.3029  0.2664  0.3038
15505W        W31979   9.081  12.912   0.855  0.0265  0.2318 -0.0228
15506W        W31980  17.946   1.922   2.105  0.0781  0.2618 -0.0607
15507W        W31981  15.373   1.927  13.384  0.4585 -0.1677 -0.1926
15508W        W31982   2.972  14.448   2.004  0.1826  0.3708  0.1949
15509W        W31983  12.675  14.378  14.596  0.1192  0.0296  0.0003
15510W        W31984   0.002   5.433   2.211  0.1896 -0.0654 -0.1430
15511W        W31985   2.303   7.618   1.799  0.0081 -0.0194  0.0403
15512W        W31986  18.574   0.950   2.086 -0.1163 -0.2360 -0.1442
15513W        W31987  12.238  18.619  10.736 -0.0534 -0.1360 -0.4317
15514W        W31988  12.074   3.103  11.444 -0.0621 -0.0531  0.4060
15515W        W31989   1.459  17.386   1.053  0.1944 -0.1758 -0.0217
15516W        W31990  11.921   5.227   3.292 -0.3236  0.0886 -0.1956
15517W        W31991  17.608   0.212   3.093  0.2557 -0.0758 -0.0324
15518W        W31992   2.690   0.674   4.660 -0.1850  0.0780 -0.1880
15519W        W31993   7.080   8.092  11.497 -0.3529 -0.1365  0.1150
15520W        W31994   2.294  15.070  12.191  0.2226 -0.0752 -0.0632
15521W        W31995  14.108  10.783   2.420 -0.0479 -0.2057  0.0490
15522W        W31996  13.588   6.760  13.592 -0.2044  0.1063  0.0387
15523W        W31997  13.443  18.246  11.884 -0.0642  0.0311  0.0240
15524W        W31998   1.951  12.265   0.236 -0.0217 -0.0665 -0.1195
15525W        W31999  12.089   1.154  14.715 -0.1490 -0.2305  0.1467
15526W        W32000  10.552   2.639  12.726  0.3313 -0.0482 -0.0558
15527W        W32001  14.803   6.230   4.474  0.0618  0.0794  0.0054
15528W        W32002  16.235   1.483   2.493 -0.0812 -0.0256 -0.1727
15529W        W32003   8.178  12.696   0.056  0.1976  0.3213 -0.1156
15530W        W32004  10.228  11.116   3.408 -0.0703 -0.0965  0.5595
15531W        W32005   5.163  14.242  11.007 -0.1299 -0.2882 -0.0366
15532W        W32006  10.324   1.272  11.066  0.1182 -0.0667 -0.2145
15533W        W32007  13.548  12.400   5.607  0.1012  0.2054 -0.0070
15534W        W32008  10.039   7.512  13.779  0.2460  0.0864 -0.2946
15535W        W32009   9.589  17.715   4.526  0.0258  0.1330  0.1617
15536W        W32010   1.271  17.975   2.756 -0.1947  0.0972 -0.2807
15537W        W32011   1.523  14.434   0.597 -0.1279 -0.1629 -0.1300
15538W        W32012  13.811   2.626   3.656  0.2053  0.1253  0.1271
15539W        W32013   6.988  13.246  13.996  0.0739  0.0651  0.4558
15540W        W32014  15.964   8.563  11.308  0.0270 -0.2330 -0.0877
15541W        W32015  12.605   7.720  12.117 -0.0641  0.0562 -0.0049
15542W        W32016  10.246   3.578  10.514  0.0174  0.3227 -0.2943
15543W        W32017   4.465  18.537  12.942  0.0368 -0.2326 -0.0606
15544W        W32018   5.631   5.274  11.021 -0.2098  0.0931 -0.0765
15545W        W32019  18.024   9.312   2.035 -0.0818  0.1434 -0.1228
15546W        W32020  16.243  16.936  11.311  0.0792  0.2125  0.2629
15547W        W32021  10.087  17.240  10.234 -0.1259 -0.0786 -0.0576
15548W        W32022   1.843   2.374   3.741 -0.1001 -0.0326  0.2049
15549W        W32023   9.142   0.416  12.638 -0.1602 -0.1030 -0.0571
15550W        W32024   8.618  12.031   9.757  0.0409  0.1452 -0.1469
15551W        W32025  11.414  14.733   0.273 -0.0296 -0.1385  0.2491
15552W        W32026   9.273   0.271   1.887 -0.0954 -0.2673  0.0038
15553W        W32027   8.541   6.465   0.487 -0.2480 -0.0435 -0.1428
15554W        W32028   7.337   8.905  11.345  0.1476  0.1181 -0.0580
15555W        W32029   1.675   5.453   2.951 -0.1329 -0.1845  0.0307
15556W        W32030   2.201   2.213  12.608  0.0631 -0.2512  0.2347
15557W        W32031  18.811  14.594  15.137 -0.1763  0.2282 -0.1508
15558W        W32032   2.887  11.538  12.343 -0.1578  0.2003 -0.1323
15559W        W32033  13.216   3.997  12.232 -0.1224 -0.0206  0.1994
15560W        W32034   1.790  18.680   0.693  0.1036 -0.2895 -0.0572
15561W        W32035   0.290  16.010  13.184  0.0604  0.3067 -0.1051
15562W        W32036  13.687  14.705  14.904  0.1425  0.2380  0.0830
15563W        W32037   6.836  11.614  11.514 -0.1098 -0.1429  0.0677
15564W        W32038   5.027   1.378   3.228 -0.0470  0.1783  0.2034
15565W        W32039   7.588   4.526   2.987  0.1584  0.1669  0.2919
15566W        W32040  13.926   2.536  13.701 -0.1318  0.1475  0.0696
15567W        W32041  12.180  15.266   2.236  0.0552 -0.4167  0.0767
15568W        W32042  18.149   5.951   2.056  0.0788  0.1735  0.3420
15569W        W32043   3.394  12.216   4.862  0.0978 -0.5208 -0.3812
15570W        W32044  17.524   9.240   3.595 -0.1487  0.0738 -0.0824
15571W        W32045  11.830   5.867   2.518 -0.2689  0.2145 -0.3807
15572W        W32046   9.636   1.779  14.886  0.2851  0.1092 -0.0094
15573W        W32047   9.065  13.292   0.027 -0.0762  0.0816 -0.0062
15574W        W32048   9.619   1.662  13.644 -0.2338 -0.1345 -0.0653
15575W        W32049   1.877   0.992   2.759 -0.2533 -0.0104  0.1187
15576W        W32050  18.575   5.063  14.727 -0.1224  0.1411  0.1675
15577W        W32051   8.001  10.817   5.010  0.3185 -0.0020  0.2752
15578W        W32052  13.329  15.828  13.097 -0.2559 -0.0814 -0.0535
15579W        W32053  15.696  16.791   4.905  0.0875  0.0124 -0.0639
15580W        W32054  15.318   7.120  11.823  0.0326  0.0286  0.0123
15581W        W32055   6.150  16.412   3.130  0.0502 -0.0515  0.1487
15582W        W32056  12.832  10.907  11.365 -0.2243  0.0849 -0.3719
15583W        W32057  11.740   6.433  12.683  0.1583 -0.1579 -0.0513
15584W        W32058  11.511  18.372   0.656  0.1665  0.0682  0.0222
15585W        W32059   8.349   7.345   0.062 -0.0016  0.0180  0.0531
15586W        W32060   6.605  10.866  13.861  0.1792  0.1138  0.0738
15587W        W32061   3.026   6.130  11.092 -0.1285 -0.2236 -0.0941
15588W        W32062   1.340  18.629  14.144  0.4644 -0.0615 -0.2289
15589W        W32063   9.071  10.429  12.724 -0.1011 -0.0075 -0.0795
15590W        W32064   1.900   9.646   5.461 -0.0151 -0.2488 -0.0565
15591W        W32065   2.178   6.661   3.636  0.0369 -0.2444 -0.0005
15592W        W32066   2.669   2.389   3.201 -0.0987 -0.1555  0.0190
15593W        W32067  17.696  12.689  11.122 -0.3331  0.2620 -0.1928
15594W        W32068  15.992  18.675  13.902 -0.0277 -0.1709  0.2347
15595W        W32069   3.069  16.448   4.935  0.2585 -0.2732  0.1772
15596W        W32070  18.126  14.225  13.172  0.1353  0.0438  0.0541
15597W        W32071   3.226   8.642  10.980  0.2763  0.3196 -0.0140
15598W        W32072  11.744  12.135   2.967 -0.0576 -0.0950 -0.3308
15599W        W32073   3.676   8.792  10.792 -0.1576 -0.0317 -0.3009
15600W        W32074   8.256  17.348  11.697 -0.0080 -0.2359 -0.1565
15601W        W32075   9.568   2.691   1.715  0.1618  0.0380 -0.2078
15602W        W32076   4.615   4.864  14.300 -0.1254 -0.0069  0.1624
15603W        W32077  18.260  11.080   3.572 -0.0593  0.0776 -0.0247
15604W        W32078   5.834   9.758  13.721 -0.1595 -0.1927 -0.1141
15605W        W32079   4.182  11.760  13.358  0.1547 -0.2359  0.1273
15606W        W32080  14.212   4.265  10.405  0.2844 -0.2413 -0.0797
15607W        W32081  16.098   1.780   2.895 -0.1337  0.0649  0.0108
15608W        W32082  17.405  13.266  14.734 -0.1347 -0.1755  0.0611
15609W        W32083  16.362  14.693  14.009 -0.0807 -0.0277  0.0871
15610W        W32084   5.853   1.670  13.745  0.0355 -0.3065  0.3083
15611W        W32085   7.409  11.050   2.189 -0.0512 -0.1820  0.2096
15612W        W32086   6.253  12.232  13.142  0.0608  0.0731 -0.1932
15613W        W32087   8.877  18.896   4.232 -0.1489  0.0832 -0.1147
15614W        W32088   2.953  15.706  13.855  0.1950 -0.1737  0.1816
15615W        W32089  17.641   9.285  11.975  0.0198  0.2137 -0.0394
15616W        W32090   5.670  14.495   5.166  0.0948 -0.0179 -0.0420
15617W        W32091   2.234  14.109  14.610  0.0941  0.2134  0.1725
15618W        W32092  12.690   0.411  10.472  0.0061  0.1552 -0.2490
15619W        W32093   9.744  13.518  12.998 -0.1330 -0.1434 -0.1245
15620W        W32094   4.553  14.812  11.062  0.1329  0.0031 -0.0599
15621W        W32095   7.869   3.522  13.983 -0.0054 -0.0418 -0.1460
15622W        W32096  11.624  17.288  12.865  0.0858  0.1885 -0.0183
15623W        W32097  16.013  10.409  11.550  0.0227 -0.1271 -0.0157
15624W        W32098  16.175   7.202   0.135  0.4609 -0.0338  0.1463
15625W        W32099  15.833   8.930   0.960  0.0451  0.0482  0.0646
15626W        W32100  17.783   0.375   4.773  0.2050 -0.3797 -0.0495
15627W        W32101   9.630  15.150   4.258  0.1953 -0.2312  0.0216
15628W        W32102  15.945   6.748  10.825 -0.0235  0.0773  0.0421
15629W        W32103   1.749   5.827   5.621  0.1347  0.3045 -0.0367
15630W        W32104  11.238  11.301   1.651  0.0060 -0.2193  0.0933
15631W        W32105  15.519   1.386  11.090 -0.1540 -0.2397 -0.0438
15632W        W32106   7.124   3.534  10.675  0.3639  0.0178 -0.2593
15633W        W32107  12.366  13.419   2.569  0.1263  0.2240  0.0646
15634W        W32108  11.504  15.945   1.269 -0.3486  0.0024 -0.1695
15635W        W32109   9.481  16.735  14.194 -0.1107  0.2760 -0.0870
15636W        W32110  12.779   2.140   4.950 -0.1150  0.4235  0.1051
15637W        W32111  18.637   7.440   0.669 -0.2492  0.1521 -0.1575
15638W        W32112  11.765  16.664  10.912 -0.0617 -0.1247  0.0215
15639W        W32113  15.928  16.983   2.857 -0.0768  0.2446  0.2752
15640W        W32114  10.476   3.036   0.044 -0.0180 -0.2936  0.3518
15641W        W32115  11.524  14.346   1.057 -0.1722  0.1031  0.0654
15642W        W32116  18.008   3.770   4.009 -0.1148  0.0618  0.0154
15643W        W32117   4.424  11.348  14.334  0.1792  0.4289 -0.2129
15644W        W32118  16.525  16.731   0.835  0.0252  0.1543  0.1304
15645W        W32119  14.404   9.172   4.739 -0.0615 -0.0155  0.1296
15646W        W32120  12.970  10.551   3.557 -0.3896  0.1802  0.2980
15647W        W32121   6.486  15.480   4.782 -0.1221  0.3186 -0.0946
15648W        W32122  12.647   2.119   1.470  0.2984 -0.1569  0.0480
15649W        W32123  13.452  12.756  12.973 -0.1696 -0.0588  0.0105
15650W        W32124  11.620   3.383   0.529  0.0685  0.3329  0.0766
15651W        W32125   9.529  16.846   0.878 -0.1611 -0.3460  0.1963
15652W        W32126  14.637   5.170   0.297 -0.2003 -0.2865 -0.1666
15653W        W32127   5.785  12.764   0.488 -0.0164  0.0431  0.4232
15654W        W32128  12.495   7.021   1.392  0.1668 -0.0616  0.0660
15655W        W32129   1.217  14.983  14.453 -0.0084  0.0016  0.1246
15656W        W32130  15.655  12.156   3.426  0.3890  0.3275 -0.1065
15657W        W32131   4.710   2.073   0.020 -0.2698 -0.3144  0.0008
15658W        W32132   2.801  14.467   2.709 -0.1274  0.0734 -0.0191
15659W        W32133  17.732  10.072   3.420 -0.0697  0.0766 -0.1339
15660W        W32134  17.944   5.106   4.233 -0.0494  0.2674 -0.1731
15661W        W32135  18.605  13.878   1.343  0.0959  0.3187  0.0088
15662W        W32136  11.116  14.655  13.093  0.0433  0.1850  0.2332
15663W        W32137   2.428   6.259   3.855 -0.2893 -0.0582 -0.1551
15664W        W32138  12.314  18.705   3.827  0.0427 -0.0636 -0.0995
15665W        W32139  16.547   4.920  12.504 -0.2495  0.0305 -0.3366
15666W        W32140  14.672  12.465   0.467  0.0109 -0.2213  0.0163
15667W        W32141  17.135   1.960  13.489  0.1309 -0.2023 -0.2854
15668W        W32142   5.300  12.594   1.500 -0.2058  0.0779 -0.2933
15669W        W32143   5.462   9.129   0.256  0.2354 -0.1074 -0.0511
15670W        W32144  14.045   6.870  13.341  0.1177 -0.0723  0.0261
15671W        W32145  16.635  11.890  12.007  0.1116  0.4577 -0.0658
15672W        W32146  13.198   6.709   1.993 -0.1260  0.2485  0.0076
15673W        W32147   8.380   2.602   2.665  0.0597 -0.0543 -0.0562
15674W        W32148  13.859  13.610   1.573 -0.0724  0.3264  0.1472
15675W        W32149  12.703   6.610   5.731  0.1486 -0.2623 -0.1508
15676W        W32150   9.685  19.104  14.448  0.0226  0.0612  0.0104
15677W        W32151  15.261   6.876   9.619 -0.0464  0.1652 -0.0654
15678W        W32152  15.964   5.507  13.156  0.6847 -0.1753  0.0142
15679W        W32153   0.165   4.937  13.859 -0.1478 -0.4404 -0.0654
15680W        W32154  10.889  16.622  12.551 -0.1480  0.1259 -0.2861
15681W        W32155  10.541   9.515  14.211  0.0446  0.0805  0.2984
15682W        W32156  12.830  14.258   4.769 -0.5459 -0.2954  0.0989
15683W        W32157   4.140   5.032   0.552  0.2278  0.1296  0.4754
15684W        W32158  12.101   2.823  13.007  0.2592  0.1265  0.1855
15685W        W32159   7.213  12.580   3.878 -0.0841 -0.1112 -0.0262
15686W        W32160  16.015  14.348  11.847  0.0929  0.0319 -0.0643
15687W        W32161  17.416   9.475  10.617  0.1256  0.0779  0.1378
15688W        W32162   0.654   1.443   4.625 -0.1422  0.2801  0.1081
15689W        W32163   7.338   4.492  12.001  0.1356 -0.0957 -0.0083
15690W        W32164  16.111   5.762   4.519 -0.5307  0.1750 -0.1965
15691W        W32165  15.908   6.720  11.295 -0.2342 -0.0215 -0.1603
15692W        W32166   6.232   7.140   4.666  0.2769 -0.4083  0.2430
15693W        W32167   9.977  13.795   3.967  0.0770  0.2064  0.2349
15694W        W32168  10.154  16.265   3.026 -0.0518  0.2129 -0.0508
15695W        W32169  14.095   5.437   0.809  0.1076 -0.2103 -0.1985
15696W        W32170  13.062   7.938  14.749  0.1944 -0.2784  0.0625
15697W        W32171   8.737  16.255  12.907 -0.1431 -0.0947 -0.1852
15698W        W32172   5.766   7.969  11.406  0.1114 -0.1574 -0.0615
15699W        W32173  16.314   3.323   2.939  0.1275  0.1220 -0.0264
15700W        W32174   6.819  12.580   0.477 -0.2544  0.1085  0.1787
15701W        W32175   1.769   7.761   1.687  0.5314  0.1176  0.0769
15702W        W32176  18.141   6.327   2.545 -0.0320 -0.2166  0.3265
15703W        W32177  15.232  16.826  11.168  0.3087  0.1483  0.3538
15704W        W32178   4.245  12.248   0.341 -0.2737 -0.0432  0.2923
15705W        W32179   8.079  15.649   4.423  0.3092 -0.1488 -0.0958
15706W        W32180  10.831  11.262   3.422 -0.4316  0.1872  0.1141
15707W        W32181   9.522   0.496   3.365  0.1543 -0.1685 -0.0926
15708W        W32182  17.670   0.327  11.935 -0.1759  0.0450 -0.1594
15709W        W32183   2.542  10.827  12.205  0.1893 -0.0316 -0.0683
15710W        W32184  14.881   8.243  14.603  0.2488  0.2227  0.2555
15711W        W32185  16.769   2.085   4.308 -0.1500 -0.0215 -0.1353
15712W        W32186   0.778   6.204  12.046  0.1248 -0.0313  0.3087
15713W        W32187   9.581   7.403  13.529  0.2942 -0.0504  0.1063
15714W        W32188   0.845  17.642  11.767 -0.0016  0.0326  0.0091
15715W        W32189  17.841   1.838  11.758 -0.2174 -0.0242 -0.1510
15716W        W32190   4.042  18.960   5.675 -0.4555 -0.3011  0.2653
15717W        W32191  10.223   4.071  11.755  0.2681 -0.2078 -0.0674
15718W        W32192   1.679  11.529  13.193  0.1041 -0.0328  0.2359
15719W        W32193  13.688  17.935   0.867 -0.1177 -0.0053 -0.3665
15720W        W32194   3.446   0.175  10.650  0.2589  0.0176 -0.1206
15721W        W32195   5.636  17.101  14.474 -0.3561 -0.0796 -0.0630
15722W        W32196   2.175   4.059  13.136 -0.0840 -0.0888  0.0551
15723W        W32197  15.089   2.336  12.922 -0.0116 -0.0257 -0.0481
15724W        W32198  11.017  14.094  11.674  0.0640 -0.2244 -0.3066
15725W        W32199  11.860  15.881   0.954 -0.0093 -0.3108  0.2620
15726W        W32200   7.811   5.077   3.812  0.0668 -0.1792 -0.3725
15727W        W32201   8.617  13.360   2.929 -0.1335 -0.0754  0.2879
15728W        W32202  15.053   2.109   3.260  0.0830  0.0012 -0.1493
15729W        W32203   0.116  10.451   2.347  0.0852 -0.0141 -0.1883
15730W        W32204  12.620   6.833   3.176  0.5954  0.2720  0.0380
15731W        W32205   4.445  10.330   2.179  0.1784  0.1586 -0.0590
15732W        W32206  11.771  11.152   9.967 -0.0832  0.0157 -0.1209
15733W        W32207  12.943  15.269   3.505  0.0036  0.1138 -0.0931
15734W        W32208  10.677   5.548   2.959  0.1339  0.1104  0.1411
15735W        W32209   2.610  18.571  11.599 -0.1767  0.0071 -0.0378
15736W        W32210  18.289   0.078   0.718  0.2331 -0.1521 -0.0282
15737W        W32211  10.636  15.863   1.936  0.3329 -0.1534 -0.0734
15738W        W32212  11.823  10.985  15.089 -0.0867 -0.2076  0.0771
15739W        W32213   6.350  17.504   9.920  0.2055  0.0212  0.2556
15740W        W32214   2.774   6.298  13.090 -0.1611  0.1255  0.2639
15741W        W32215   8.435   9.322  11.291  0.3407 -0.1830  0.1316
15742W        W32216  10.840   6.949   1.781  0.0983 -0.0636 -0.0843
15743W        W32217   6.765   5.069  14.904  0.1131  0.1082  0.1508
15744W        W32218   5.970  12.393   0.813 -0.0094  0.0292 -0.0986
15745W        W32219  18.616   7.267  12.502 -0.1505  0.2439 -0.0661
15746W        W32220  18.912   4.515   2.380  0.0104 -0.0465 -0.2984
15747W        W32221  11.237   7.764   2.785 -0.3158 -0.0522  0.1084
15748W        W32222  14.343   4.680  14.767 -0.0197  0.0132  0.1620
15749W        W32223  16.270  11.398  14.574  0.0227 -0.3241  0.1329
15750W        W32224   0.543   6.592   1.046  0.1038 -0.0265 -0.2474
15751W        W32225   1.993   3.648   1.562  0.1578 -0.3042  0.0050
15752W        W32226  18.392  12.303  13.756  0.0719  0.1094 -0.0220
15753W        W32227  18.080  14.016   5.458 -0.0634  0.0518 -0.2839
15754W        W32228   8.701   7.563  11.572  0.0135 -0.2902 -0.0739
15755W        W32229  13.914  11.361   0.927 -0.1772 -0.0816  0.2728
15756W        W32230   8.022   3.776  15.009 -0.2203 -0.1711  0.3348
15757W        W32231   2.864   8.140   2.527 -0.0743 -0.0575 -0.1412
15758W        W32232   8.536   8.809   1.575  0.3314  0.2480  0.0067
15759W        W32233   9.089   7.308   4.081 -0.0731 -0.0514 -0.0663
15760W        W32234  14.966   8.068  11.940 -0.0497  0.1547 -0.2012
15761W        W32235  11.094   8.675   4.801  0.0397  0.3864  0.3882
15762W        W32236  10.356   3.405   0.848  0.1284  0.0561  0.1647
15763W        W32237  10.286  12.964   1.577  0.1811 -0.0146 -0.1076
15764W        W32238   8.177   1.000  13.716  0.2598  0.0197  0.0670
15765W        W32239   5.974   8.880  10.961 -0.2392  0.3148 -0.0565
15766W        W32240  14.013   4.491   0.356 -0.2874 -0.1542 -0.1109
15767W        W32241   5.873   8.422  12.345  0.1368  0.3560  0.0117
15768W        W32242   2.339  18.873   0.041 -0.1421  0.1730 -0.1216
15769W        W32243   1.370   3.546  11.240  0.0517  0.0165 -0.4278
15770W        W32244  13.646  10.371  11.602  0.3008 -0.0409  0.2243
15771W        W32245   4.334   1.782  11.501 -0.0484  0.2568  0.2918
15772W        W32246   8.089   4.577   3.223 -0.0775 -0.2082 -0.0039
15773W        W32247   1.562  17.634  11.907 -0.0536  0.1407 -0.2371
15774W        W32248   6.127  18.103  12.593  0.1967 -0.1157  0.2147
15775W        W32249   6.719  15.553  14.385  0.2830 -0.1575 -0.2078
15776W        W32250   3.787  15.409  13.811  0.1577  0.1473 -0.2589
15777W        W32251   9.279  15.286  13.832  0.3431 -0.2070 -0.1069
15778W        W32252  16.505  13.880   1.527  0.2986  0.1188 -0.1203
15779W        W32253   9.792  10.997   2.136  0.1357  0.2313  0.1178
15780W        W32254   1.473   0.082  12.982 -0.1051  0.0983  0.2285
15781W        W32255   3.707   3.770  14.423  0.0508 -0.4829  0.0665
15782W        W32256   4.414  10.507  11.382 -0.0789 -0.4388  0.0740
15783W        W32257  16.481  12.351  11.631 -0.0357 -0.2321  0.2358
15784W        W32258  12.034   6.539   4.001 -0.0781  0.2202  0.0286
15785W        W32259   4.726   6.082   2.911 -0.1325 -0.1227 -0.2212
15786W        W32260   4.525  13.854  13.883  0.1390  0.0476 -0.0124
15787W        W32261  18.051   1.517   1.595  0.1640  0.3295 -0.0428
15788W        W32262   1.006   1.453  14.714 -0.0877  0.3296  0.1296
15789W        W32263   8.639   5.522   0.023  0.1352 -0.0320 -0.0056
15790W        W32264   6.335   2.657   2.626  0.0123  0.2332  0.1360
15791W        W32265   8.702   5.125   3.245  0.0818 -0.0007 -0.0204
15792W        W32266  13.613   8.290   0.081  0.3176  0.1248  0.3003
15793W        W32267   1.236  11.119   4.121  0.1520  0.1501  0.0588
15794W        W32268   2.017   4.992   1.636  0.0857 -0.2426 -0.2032
15795W        W32269   9.222  15.045  12.437 -0.2063  0.4632 -0.0878
15796W        W32270  11.552   3.592   4.759  0.0261  0.2588 -0.0031
15797W        W32271   9.679   1.409   2.601  0.0150  0.0013 -0.3357
15798W        W32272   1.694   0.652   3.160  0.1340  0.1734  0.2418
15799W        W32273   9.107   1.660  12.174 -0.1043  0.0113 -0.1443
15800W        W32274   7.888  14.792  13.434  0.0062  0.2710 -0.0853
15801W        W32275  15.812  15.340   4.864 -0.1740 -0.0572 -0.0769
15802W        W32276  12.542  14.968   3.569  0.0455  0.0135  0.1992
15803W        W32277   7.438   2.488  11.306  0.1566  0.0559  0.1428
15804W        W32278   4.180   5.077  14.392  0.3170  0.2646 -0.1269
15805W        W32279   1.352  10.135  13.071 -0.0916 -0.0714  0.0483
15806W        W32280   0.819  10.927   1.918 -0.0362 -0.2499  0.1286
15807W        W32281  15.464  18.761   4.059  0.1453  0.1871  0.1397
15808W        W32282   8.587  12.892   3.050  0.0623 -0.0496  0.0053
15809W        W32283  14.711   4.627   3.844 -0.0011  0.0108 -0.0901
15810W        W32284   1.643  11.404   0.725  0.2098  0.3057 -0.2536
15811W        W32285  17.912  14.575  10.870 -0.1545 -0.0924  0.2599
15812W        W32286  18.089  12.217   1.905 -0.1853  0.1232  0.2663
15813W        W32287  12.729  18.785  15.119  0.0017 -0.0742  0.4044
15814W        W32288  14.346  13.339   2.524 -0.1544  0.2632  0.0651
15815W        W32289  14.402   4.759  13.349 -0.3102  0.2099 -0.1129
15816W        W32290   1.067   1.932  14.961  0.0220 -0.1792 -0.2562
15817W        W32291  13.430  18.084   1.268  0.0791  0.0844 -0.2107
15818W        W32292   1.584   3.521  11.747  0.1331  0.2897 -0.1639
15819W        W32293  16.863  13.420   1.248  0.1240  0.0837  0.1679
15820W        W32294  12.171  16.403  13.790  0.1130 -0.0434  0.2034
15821W        W32295  18.084   5.100  12.875  0.1480 -0.1620 -0.1253
15822W        W32296  12.342  15.807  13.414  0.0138 -0.0098 -0.0588
15823W        W32297   4.738  10.568  10.684  0.3027  0.1852  0.0675
15824W        W32298   9.299  15.164   0.751  0.0475 -0.0250  0.2181
15825W        W32299   0.144   0.091   2.451 -0.0210  0.2666 -0.0436
15826W        W32300  16.199  17.333  14.798 -0.0616  0.1982 -0.2824
15827W        W32301   1.513  18.930   2.736 -0.3765  0.4160  0.2087
15828W        W32302   3.187   8.077   3.508 -0.0864  0.0499  0.1412
15829W        W32303  10.421   4.660   4.058 -0.3202 -0.0286 -0.0841
15830W        W32304  10.025  18.874  14.116  0.3984  0.3442 -0.2358
15831W        W32305   2.559   8.085   3.619 -0.0433  0.3877  0.0586
15832W        W32306  18.985  10.622   3.197  0.1150 -0.0289 -0.4968
15833W        W32307   7.397  13.010   5.017 -0.0578 -0.0741 -0.2247
15834W        W32308   7.013   1.790   2.842 -0.1172 -0.0319  0.2340
15835W        W32309   9.732   8.364  13.997  0.0767 -0.0471 -0.0216
15836W        W32310  16.465   6.010   3.767 -0.3371 -0.2613 -0.0113
15837W        W32311   3.429   9.671  11.656  0.3200 -0.0834 -0.1880
15838W        W32312   4.838   2.683   0.741 -0.1360 -0.1665  0.2457
15839W        W32313  13.434   9.962  14.901  0.1064  0.1343 -0.1755
15840W        W32314  16.174   2.483  11.501 -0.2367  0.0847  0.1821
15841W        W32315   6.660   2.525   1.414 -0.3207 -0.1617  0.1241
15842W        W32316  13.414  18.966   2.236 -0.1925 -0.2871  0.1850
15843W        W32317  16.758  18.982  12.957 -0.2428 -0.2088 -0.1688
15844W        W32318  17.249  14.346   2.858 -0.0414  0.0989 -0.0218
15845W        W32319  14.512  14.577   2.610  0.1332 -0.0239 -0.1361
15846W        W32320   6.762   6.809   0.797 -0.0527 -0.1360  0.0077
15847W        W32321   8.101   8.656   9.584 -0.2793 -0.2139 -0.1340
15848W        W32322  17.130  15.254   3.606 -0.2859  0.1084 -0.0858
15849W        W32323  15.064  11.177   4.300  0.1355  0.1412  0.0138
15850W        W32324   2.551   7.251   2.090  0.0587  0.0825  0.0212
15851W        W32325  12.117   8.561  11.655  0.1386  0.0921  0.1758
15852W        W32326   2.081  13.259   1.309  0.0693  0.0751  0.0464
15853W        W32327   2.520   4.763  14.922 -0.1853  0.1223 -0.0280
15854W        W32328  11.648   2.849  11.746  0.0989 -0.0840  0.0161
15855W        W32329  14.313   7.634   3.731 -0.0592  0.1761  0.2267
15856W        W32330  11.730  15.034  13.479 -0.2007  0.1294  0.1510
15857W        W32331   5.626   4.244   4.147 -0.0320 -0.0766 -0.0104
15858W        W32332   1.630   0.802  12.400  0.2273 -0.2465  0.1377
15859W        W32333  12.992   6.452  11.991 -0.0257  0.6994 -0.0250
15860W        W32334  13.375   1.184  15.095  0.0084 -0.2731 -0.0744
15861W        W32335   0.998   9.410  12.786 -0.1922 -0.0676 -0.1293
15862W        W32336  16.272   7.460   4.342  0.0875  0.0148 -0.1871
15863W        W32337  17.301   1.127   0.351  0.2886 -0.2171 -0.2217
15864W        W32338  16.378   6.306   0.069 -0.2244  0.0934 -0.3274
15865W        W32339   4.627  12.889   3.434  0.0757  0.1140 -0.1401
15866W        W32340  14.569  17.933  14.521 -0.0329  0.2712 -0.0060
15867W        W32341   4.726   7.821   0.636  0.1187  0.0546  0.2367
15868W        W32342  13.923   5.652  10.892 -0.2735  0.1035 -0.1042
15869W        W32343   8.811  12.130  13.724  0.0580 -0.0872 -0.0851
15870W        W32344  13.919  15.870   0.351 -0.0400 -0.1358  0.1228
15871W        W32345   3.903   8.706   2.476  0.3406 -0.2815 -0.3813
15872W        W32346   9.993   9.864  11.687 -0.2714  0.0317 -0.0150
15873W        W32347   3.841   7.779  11.304  0.0769  0.4215  0.0498
15874W        W32348   8.872   0.095  13.593  0.1597 -0.0740 -0.3267
15875W        W32349  15.017  10.663   0.586  0.1087  0.1229 -0.3179
15876W        W32350  11.721  10.697   2.268 -0.0711 -0.0329  0.1166
15877W        W32351  16.983  13.880   1.397 -0.0619  0.2230 -0.1546
15878W        W32352  13.767  12.406   1.480 -0.1067  0.3270  0.0406
15879W        W32353  11.713   6.338  15.042  0.1682  0.0716 -0.1282
15880W        W32354   0.518   2.653  13.644 -0.0615  0.2447  0.0331
15881W        W32355   5.132   0.166   4.888  0.2535  0.1623  0.1979
15882W        W32356   2.591   9.864   4.903 -0.0254 -0.0397  0.1491
15883W        W32357   0.764  13.289  14.217 -0.1150 -0.1207 -0.1580
15884W        W32358  10.529  13.609  15.100 -0.1730 -0.1459  0.0260
15885W        W32359   2.281   6.517   4.759  0.1211  0.1984 -0.1016
15886W        W32360   2.660  18.939   0.968 -0.1665 -0.1731 -0.0654
15887W        W32361   1.105   2.091   5.457 -0.3426  0.2782 -0.2725
15888W        W32362   3.315   6.371   1.521 -0.0266 -0.2250  0.0224
15889W        W32363   7.170  16.645   1.583  0.0373 -0.0902 -0.0504
15890W        W32364   1.020  12.960   1.405  0.0134  0.0146  0.2127
15891W        W32365   6.524   2.248  13.875 -0.5119  0.1064 -0.2703
15892W        W32366   4.772   7.547   1.039 -0.1047 -0.1941  0.2811
15893W        W32367   8.455  18.820   0.483  0.1398  0.2404 -0.0873
15894W        W32368   8.552  13.541  12.538 -0.0206 -0.3162 -0.1562
15895W        W32369  16.466  16.612  10.801 -0.4247  0.2248  0.1345
15896W        W32370   7.656   5.933  11.659 -0.0130  0.2098  0.1860
15897W        W32371   7.706  11.954   5.663 -0.1289 -0.1519 -0.0731
15898W        W32372   8.674  11.639  11.593 -0.2745  0.0749  0.0159
15899W        W32373   0.205   1.894   0.047 -0.3232 -0.3505 -0.1978
15900W        W32374  13.596   4.797   4.411  0.0536  0.0549  0.1135
15901W        W32375  18.282   8.859  12.407 -0.1575  0.0138  0.0652
15902W        W32376  14.445  16.926   2.244 -0.0006  0.2063 -0.0479
15903W        W32377   9.523   0.067  12.969  0.0993 -0.0177  0.2290
15904W        W32378  18.832  16.706   3.954  0.0588 -0.0576  0.0249
15905W        W32379  19.115   4.859  12.852 -0.5931 -0.3132 -0.1527
15906W        W32380   7.628   1.909  13.730 -0.0732  0.0999 -0.3786
15907W        W32381  18.670   2.510  12.452 -0.0007 -0.0634  0.0491
15908W        W32382   9.183   6.917   0.122  0.0946 -0.0474  0.5822
15909W        W32383   1.395   1.462  11.043 -0.0638  0.0498  0.0387
15910W        W32384  15.463   0.386   9.698 -0.0443  0.1149 -0.1038
15911W        W32385  16.433  18.680  11.653  0.0916  0.1150 -0.0541
15912W        W32386   8.802   0.947   5.051 -0.2224 -0.0204 -0.2558
15913W        W32387  13.692  18.786   2.715 -0.1551  0.2089 -0.2251
15914W        W32388   1.152  18.427  10.722  0.1979  0.2609  0.1484
15915W        W32389   4.524   6.864  12.378 -0.2117  0.1568 -0.0253
15916W        W32390  18.145  18.743   3.127 -0.2542  0.5917 -0.1381
15917W        W32391   9.335  13.364   4.211  0.1725 -0.0145 -0.1722
15918W        W32392   1.212   7.964  15.090 -0.0040  0.1333  0.1615
15919W        W32393   6.243   3.335   0.039  0.5640 -0.1889 -0.3443
15920W        W32394   0.328   3.090  15.059  0.0791 -0.0602  0.0731
15921W        W32395   2.967  10.776  10.512 -0.2915  0.2196  0.3393
15922W        W32396   2.712   1.548  10.859 -0.3499  0.3079  0.1625
15923W        W32397   2.400   5.276  10.248 -0.0251 -0.0418 -0.1315
15924W        W32398   7.411   4.022   2.976  0.0070 -0.0673  0.1994
15925W        W32399   0.337  10.005   2.997  0.2419  0.0919 -0.1125
15926W        W32400   8.789   4.768  10.946 -0.0585  0.0971 -0.0672
15927W        W32401  11.448   4.209  13.770  0.0378  0.1250 -0.0810
15928W        W32402  13.747  13.191   4.943  0.0021 -0.1698 -0.2666
15929W        W32403   3.974   5.672  15.141 -0.1136 -0.1302 -0.1336
15930W        W32404   1.913  15.168  13.256  0.0826 -0.2026 -0.0356
15931W        W32405  11.966   6.906  13.190 -0.0990 -0.3093  0.0367
15932W        W32406   8.374  12.583   1.015  0.0324  0.2494 -0.3397
15933W        W32407   3.481  13.853   0.347 -0.0188  0.2072  0.1389
15934W        W32408   8.249   8.940  12.301 -0.2315  0.0400 -0.0884
15935W        W32409  17.046   8.167   5.206  0.1687 -0.3326  0.1067
15936W        W32410   9.790  16.641  14.754  0.2504  0.0623 -0.1552
15937W        W32411   5.155   1.718   1.439  0.2051 -0.0039 -0.1556
15938W        W32412  17.953  14.281   4.321  0.1519  0.1982 -0.1123
15939W        W32413  16.034  12.139  13.051  0.2552  0.2083 -0.1350
15940W        W32414  12.989   6.693   4.340 -0.3506 -0.0664  0.1805
15941W        W32415   2.753  18.601   5.291 -0.2313  0.2840  0.1502
15942W        W32416  14.469  11.158   2.642 -0.0551 -0.2639 -0.2339
15943W        W32417   7.468  18.864   4.150 -0.0631 -0.0358 -0.0872
15944W        W32418   0.374  18.286   1.265  0.0007 -0.1667 -0.1162
15945W        W32419   4.194   3.251   0.370 -0.1644  0.1832  0.0777
15946W        W32420   1.906  14.926   5.004 -0.2853  0.1382  0.3233
15947W        W32421   4.293  15.698  12.673  0.0468 -0.2558 -0.0996
15948W        W32422  19.058   2.034   3.233 -0.3497  0.2761 -0.0281
15949W        W32423  16.248   7.397   3.714 -0.0372 -0.2123 -0.1338
15950W        W32424  17.463   5.313  13.911 -0.1790 -0.2979 -0.0143
15951W        W32425  11.327  18.822  15.021 -0.0396  0.3740 -0.0362
15952W        W32426   1.370  18.547   0.185  0.2945 -0.2703 -0.1946
15953W        W32427   2.035  18.220  13.914  0.1131  0.0717 -0.4048
15954W        W32428  15.857   2.122  11.639 -0.1796 -0.2554 -0.2185
15955W        W32429   8.016  10.501   1.129 -0.2704 -0.2390  0.0951
15956W        W32430  11.171   5.288  12.420  0.4140 -0.1311  0.1915
15957W        W32431   9.862   1.448  12.475 -0.1162  0.1143  0.4069
15958W        W32432  18.578   1.337   0.900  0.1202  0.1889 -0.1620
15959W        W32433  18.143  14.680  10.408 -0.0782  0.1930 -0.3250
15960W        W32434  15.828   1.144  11.409 -0.3176  0.1374 -0.0739
15961W        W32435   3.934   4.453   2.532  0.1335  0.0179 -0.4377
15962W        W32436   7.397   9.623   4.670  0.1142 -0.0430 -0.2983
15963W        W32437  18.169  10.979  10.799 -0.0773  0.2863  0.0893
15964W        W32438   3.995   8.052   4.699 -0.1045 -0.0551 -0.1758
15965W        W32439  17.727   1.622   2.952 -0.3481  0.0859  0.0604
15966W        W32440   3.972  15.657  12.241 -0.0297 -0.0071 -0.1791
15967W        W32441   8.186   6.156  13.360 -0.3934  0.1952 -0.1844
15968W        W32442  12.184   3.501   0.075 -0.1851  0.1418 -0.1026
15969W        W32443  16.562  13.868   4.130  0.0085 -0.2296  0.1184
15970W        W32444  16.455  17.867  14.080  0.1784  0.2503  0.1790
15971W        W32445  15.364   5.215  15.014 -0.1035 -0.2124  0.0927
15972W        W32446   9.918  13.937  10.879  0.0512 -0.1291 -0.2076
15973W        W32447  10.913   7.377  12.864  0.1304 -0.5144  0.1292
15974W        W32448   8.098  16.857  12.842  0.3599 -0.0057  0.4476
15975W        W32449   2.842  14.471   5.526  0.0847 -0.0658 -0.0054
15976W        W32450   3.240   1.105   0.647  0.0708  0.1716  0.0687
15977W        W32451  18.558  16.006   0.970 -0.2472  0.2089  0.0160
15978W        W32452  15.650  10.266   3.058 -0.1154 -0.2684 -0.1350
15979W        W32453   9.808   7.800  12.103  0.0376 -0.2299  0.1694
15980W        W32454  15.244  16.898   0.750 -0.0439  0.1199 -0.3043
15981W        W32455   6.275   3.062  13.923 -0.0957 -0.0913 -0.0667
15982W        W32456  17.246   3.927  12.764  0.0556 -0.0611 -0.2240
15983W        W32457  10.536   7.901   5.128 -0.2871 -0.0283  0.2280
15984W        W32458  17.446   9.768  13.233  0.1122  0.1841  0.3420
15985W        W32459   1.964  12.564  12.114  0.2580  0.1224 -0.1149
15986W        W32460  14.529   1.367  11.614 -0.4029 -0.0368 -0.2232
15987W        W32461   9.080   9.055   0.188  0.2055  0.0513 -0.0751
15988W        W32462  18.942  14.448  14.269  0.1276 -0.1055 -0.1066
15989W        W32463  13.344   5.236   2.579  0.5341 -0.2702 -0.0573
15990W        W32464  14.743  16.950   3.147 -0.1724 -0.1086  0.0389
15991W        W32465   8.515   3.211  11.425 -0.1690  0.3202 -0.1774
15992W        W32466   3.588  10.429   3.553 -0.0112 -0.3635 -0.0437
15993W        W32467  11.852  13.801   2.549  0.0083 -0.3976 -0.2972
15994W        W32468   5.651  13.408   3.508 -0.0711  0.0384  0.3405
15995W        W32469  10.169  18.588   2.381 -0.1417  0.0197 -0.0199
15996W        W32470   5.836   3.893   2.095  0.0123  0.1429  0.0081
15997W        W32471   8.962   1.462  12.897 -0.1161  0.2018  0.1635
15998W        W32472   5.219   5.758   4.573  0.1480 -0.2606  0.0181
15999W        W32473   1.974  13.367   1.913  0.1959 -0.0177  0.2068
16000W        W32474   1.260  14.371  12.104 -0.1269  0.1930 -0.0829
16001W        W32475   7.674   2.200   3.986  0.0978  0.2483  0.2166
16002W        W32476  11.823   5.374   2.394 -0.0098  0.2324 -0.2576
16003W        W32477  14.733  11.853   3.057 -0.0728 -0.0499 -0.0134
16004W        W32478   7.984   2.839   5.065 -0.1651 -0.3131 -0.0278
16005W        W32479   8.625   3.866  10.665 -0.0233  0.1356 -0.1077
16006W        W32480  11.255   6.235  11.731  0.1694 -0.3201  0.0438
16007W        W32481   0.114   1.522   2.438 -0.2085 -0.1750 -0.1258
16008W        W32482   9.605  18.822  14.983  0.0299 -0.1188  0.0475
16009W        W32483   9.413   3.753   0.076 -0.3526 -0.0351  0.0294
16010W        W32484  18.155  18.682   1.973  0.1692 -0.1749 -0.3894
16011W        W32485  11.287   4.241   5.711  0.1079 -0.0131  0.1290
16012W        W32486  10.737   8.686   3.839 -0.1790  0.1633 -0.2155
16013W        W32487  16.258   5.914  10.646 -0.0627 -0.1009  0.1582
16014W        W32488   8.412   8.025  13.990  0.0589  0.2917 -0.0122
16015W        W32489  11.538   8.241  12.148  0.0253 -0.0299 -0.1680
16016W        W32490   0.237   3.910   4.414 -0.0751 -0.3896  0.1594
16017W        W32491  16.284   5.761  11.603 -0.1479 -0.2529 -0.3469
16018W        W32492  18.067  12.514  14.484 -0.2682  0.0193  0.1112
16019W        W32493  11.133   5.120  14.378  0.0435 -0.3245  0.0989
16020W        W32494   3.504  13.403   3.590 -0.3506  0.0236  0.1378
16021W        W32495   0.232   2.302  13.569  0.0082  0.1681 -0.3350
16022W        W32496  11.796   1.607  14.141  0.2451 -0.2183 -0.0079
16023W        W32497  14.238   6.628   2.356  0.0022  0.0501 -0.3449
16024W        W32498   8.735   7.536  10.833  0.1262  0.1514  0.0390
16025W        W32499  15.552  14.084   1.204 -0.0328  0.0087  0.0427
16026W        W32500   1.692  17.959  14.780  0.1568  0.2328  0.2265
16027W        W32501   7.699   6.294   4.267 -0.1476 -0.1060  0.0895
16028W        W32502  16.177   7.571  12.062 -0.0067 -0.1484 -0.0310
16029W        W32503   6.613  12.571  10.160  0.1220  0.2837  0.2003
16030W        W32504   0.542   5.515   0.984  0.3600 -0.0385 -0.2611
16031W        W32505  13.449   3.936  12.933  0.2618 -0.3887 -0.1268
16032W        W32506  18.246   8.460  12.092 -0.2243  0.2598 -0.0017
16033W        W32507   4.581   1.218   0.343  0.0275  0.1477 -0.1581
16034W        W32508  18.403   3.403   0.197 -0.0367  0.2894 -0.2043
16035W        W32509  17.127   0.414   2.994  0.1098 -0.2640  0.1513
16036W        W32510  15.103  12.133   0.863 -0.2164 -0.0397  0.0100
16037W        W32511   8.244   7.669   1.055 -0.2175 -0.0457  0.1587
16038W        W32512  13.677   8.458  13.103 -0.3721 -0.0769  0.3998
16039W        W32513   0.962  10.101  11.689  0.1725 -0.1651 -0.0681
16040W        W32514   9.844  16.902   0.440 -0.0981 -0.1528  0.0917
16041W        W32515  14.132   2.459  12.134  0.2728 -0.2945 -0.0219
16042W        W32516  14.704  17.013  11.225 -0.3408  0.0933  0.2254
16043W        W32517  12.603  12.948   0.463  0.0490  0.1073 -0.1334
16044W        W32518  16.728  16.314   3.285 -0.1823 -0.0591 -0.0984
16045W        W32519  15.986   4.399  10.507  0.0438  0.0405  0.1438
16046W        W32520   6.118  13.977  10.733 -0.0749 -0.4709 -0.0976
16047W        W32521   1.816   4.737   3.389 -0.3330  0.1068  0.0418
16048W        W32522   6.933  11.904  14.523 -0.3639  0.0739 -0.4064
16049W        W32523   0.360  17.334   4.932  0.0717  0.4653  0.3883
16050W        W32524  18.740   8.337   1.936 -0.1017  0.2333 -0.1193
16051W        W32525  10.543  14.051   4.719  0.0774 -0.0134  0.0953
16052W        W32526   1.753  11.254  11.783 -0.0143 -0.3809  0.0893
16053W        W32527   7.332   7.182  11.176 -0.3020  0.0299 -0.3533
16054W        W32528   3.667   5.499  13.878  0.0862  0.2281 -0.1650
16055W        W32529  11.764  14.681   3.042  0.3229 -0.0992 -0.0516
16056W        W32530  13.160   2.218   9.578  0.3817 -0.3285  0.1080
16057W        W32531   1.684   6.965  10.915 -0.0628 -0.0560  0.0468
16058W        W32532   0.115  18.222   4.597  0.1840 -0.2040  0.0500
16059W        W32533  12.225  14.706   3.283  0.1360 -0.0372 -0.2927
16060W        W32534  18.014   8.216  10.793 -0.0160  0.0763  0.0755
16061W        W32535  11.597   9.373   5.290 -0.1945  0.2066 -0.1060
16062W        W32536  18.968  13.696   1.706  0.1662 -0.1181 -0.0171
16063W        W32537  14.431   6.660   3.598  0.1323 -0.0401 -0.3248
16064W        W32538   4.853  11.072  15.142 -0.2944  0.1140 -0.1078
16065W        W32539  11.804  16.898   1.437 -0.0755  0.0076 -0.2174
16066W        W32540  13.908   9.358  13.061  0.2011  0.3897  0.5313
16067W        W32541  17.742   2.799  12.861 -0.0075  0.0556 -0.2581
16068W        W32542   0.720  16.396  13.961  0.3626  0.1663 -0.1292
16069W        W32543   4.344  14.418  11.314 -0.1050  0.3218 -0.1825
16070W        W32544   5.683   9.723   0.989 -0.0428 -0.0121 -0.2059
16071W        W32545   3.232   4.922  13.463 -0.2236  0.0775 -0.3734
16072W        W32546  14.867   5.596   9.469  0.2987 -0.2723  0.1654
16073W        W32547   8.669   3.369   9.268  0.1735 -0.0326 -0.0321
16074W        W32548  18.080  14.686  13.357  0.3129 -0.3458  0.0574
16075W        W32549   9.666  16.510  13.742  0.1120 -0.0786 -0.0742
16076W        W32550   7.159  17.995   3.039 -0.1212  0.1965 -0.1776
16077W        W32551   2.886  12.332   0.904 -0.1786  0.1658 -0.0152
16078W        W32552   2.259  16.518  13.680  0.3030  0.1697 -0.0758
16079W        W32553  17.843  10.566   3.383 -0.0249  0.3356  0.1415
16080W        W32554   3.723  16.216   0.329  0.0851  0.0095  0.1174
16081W        W32555   4.548  13.487   3.657 -0.1178 -0.0246  0.0167
16082W        W32556   2.412  18.603  10.778  0.1170  0.1129  0.0307
16083W        W32557  16.439   0.728   0.446  0.1704  0.2447  0.0193
16084W        W32558   5.635  11.020  11.349  0.3207  0.0437 -0.0991
16085W        W32559   1.994   9.215  12.107  0.1839  0.4525 -0.0098
16086W        W32560  11.288  10.858  12.477  0.4238  0.3217  0.0450
16087W        W32561   4.282   5.850   2.189  0.0722  0.0709 -0.2927
16088W        W32562  11.912   6.616   1.234 -0.1891 -0.0179 -0.0933
16089W        W32563  13.831   1.106   0.059 -0.1665  0.1191  0.0118
16090W        W32564  11.222   3.044   4.053 -0.2184  0.2389 -0.0287
16091W        W32565  18.943   2.889   1.337  0.2740 -0.1301  0.1837
16092W        W32566   2.466  13.319   1.660  0.0214  0.0064 -0.0983
16093W        W32567  10.520  12.156  13.315 -0.2196 -0.0992  0.1285
16094W        W32568   0.722  11.486  12.312 -0.1099 -0.2138 -0.1983
16095W        W32569  12.318   9.379  13.008 -0.2792 -0.3855 -0.1515
16096W        W32570   8.230   9.496  14.010 -0.0215  0.0536  0.1532
16097W        W32571   8.031  14.148   1.811 -0.0094 -0.0234 -0.1740
16098W        W32572  15.644   5.284  11.508 -0.1465  0.4141 -0.0598
16099W        W32573  18.443  14.428  11.558  0.1717  0.1512 -0.0107
16100W        W32574   1.361  13.602  10.227 -0.1296  0.2869 -0.3989
16101W        W32575   9.639  14.021   5.746  0.0678 -0.1992  0.1329
16102W        W32576   1.454  18.799   6.039  0.1034 -0.0815 -0.0542
16103W        W32577  12.140   0.323  10.604 -0.4024  0.0876  0.2892
16104W        W32578   1.794  10.448   0.758  0.1076 -0.1022 -0.1585
16105W        W32579   6.171  13.523   3.372 -0.0880  0.0391 -0.0423
16106W        W32580  18.973   3.221   1.746 -0.2280  0.3237 -0.1710
16107W        W32581  10.950  13.522   3.984  0.3725 -0.1192 -0.1295
16108W        W32582   0.616   6.988  13.307 -0.1844  0.2875 -0.1505
16109W        W32583  11.006   8.254   0.422  0.1370  0.2198 -0.1645
16110W        W32584  10.524   9.323   0.632 -0.2086 -0.0741  0.1304
16111W        W32585  16.574  18.058   2.842 -0.0475 -0.0305 -0.1887
16112W        W32586   0.800  15.654   5.723  0.0863 -0.0120 -0.0149
16113W        W32587   0.537   0.107  12.853 -0.1312 -0.2340 -0.0358
16114W        W32588  13.999   9.072   4.350 -0.1162  0.2264  0.1467
16115W        W32589   9.191   2.111  11.440 -0.0296  0.1718 -0.0976
16116W        W32590   8.128   0.752   4.404 -0.2998 -0.0807 -0.5772
16117W        W32591  17.733  11.057  12.009  0.2524  0.0952  0.2330
16118W        W32592  16.435   8.080   0.338  0.1442 -0.0298 -0.0295
16119W        W32593  11.373  17.278   0.656  0.1787  0.4404 -0.0472
16120W        W32594   0.720   7.794  14.957 -0.2446 -0.0577 -0.0041
16121W        W32595   8.075  14.896   5.103  0.1031  0.0174  0.0591
16122W        W32596  10.812  17.029  14.506 -0.1492  0.1985 -0.0304
16123W        W32597   4.278  11.183   0.017  0.0196  0.1451  0.3099
16124W        W32598   7.420  16.329   1.310  0.1060 -0.1034 -0.1910
16125W        W32599   6.468   2.320  15.068  0.0719 -0.0624 -0.0256
16126W        W32600   1.268  13.925   3.619  0.1732 -0.0583  0.1713
16127W        W32601   3.909  10.941  14.815 -0.1676 -0.0949  0.1458
16128W        W32602  10.738  10.192   0.016  0.1491 -0.0212  0.0570
16129W        W32603   1.007   7.622   0.317  0.0796  0.2712  0.1249
16130W        W32604  11.176   0.996   3.053 -0.1375 -0.1929  0.4799
16131W        W32605   2.565   8.066   2.135  0.1369  0.2394  0.1468
16132W        W32606  12.730   9.154   1.661  0.1236 -0.0594 -0.0390
16133W        W32607  15.370   9.062   3.532  0.0155  0.3675  0.1533
16134W        W32608  15.232   5.602  11.403  0.1579 -0.1140  0.0277
16135W        W32609  11.909   5.737  14.614 -0.2172 -0.0677 -0.1702
16136W        W32610   4.283   1.967  14.025 -0.1524  0.1582  0.1426
16137W        W32611  10.926  12.932  13.510 -0.0387 -0.2942  0.0705
16138W        W32612  10.282  17.333  12.691  0.1200  0.1429  0.2097
16139W        W32613   2.054  14.362  12.756  0.1587  0.1915  0.0466
16140W        W32614  12.156  15.221   1.567 -0.0975 -0.0661  0.1908
16141W        W32615   8.340   2.778   1.821 -0.1923 -0.1139 -0.2783
16142W        W32616   8.626   2.726  12.760  0.0897  0.3820 -0.0498
16143W        W32617  12.320   5.674  12.923 -0.0460 -0.1236 -0.4372
16144W        W32618   4.798   6.615   0.744  0.1070 -0.0392  0.2516
16145W        W32619  18.478  11.526  13.396  0.2955 -0.1332  0.2617
16146W        W32620  13.242   3.350   4.552  0.1654 -0.2942 -0.2007
16147W        W32621  18.434   5.106   1.108 -0.2008 -0.0197 -0.1956
16148W        W32622   0.704   1.789   0.164  0.0658 -0.0228 -0.2228
16149W        W32623  13.100   4.896   0.026  0.2511 -0.2056  0.0717
16150W        W32624  12.767  11.097  10.901 -0.0631 -0.0362  0.0745
16151W        W32625  18.510  18.599   0.610 -0.2554  0.1083  0.1150
16152W        W32626  14.649   7.647   4.432 -0.1412  0.2222 -0.1948
16153W        W32627   8.295  13.880  12.975 -0.1730  0.1239  0.1577
16154W        W32628   5.777  14.214   2.378  0.0226 -0.1395  0.1259
16155W        W32629   1.778  15.575   3.008  0.0340 -0.2519  0.0650
16156W        W32630   7.952  16.020  15.081 -0.1589  0.0690  0.1528
16157W        W32631  11.546  13.242   1.503 -0.0655 -0.0826 -0.0086
16158W        W32632  12.405  11.543  11.953  0.0448  0.0018 -0.2251
16159W        W32633  10.641  11.435  11.783  0.1933 -0.1078  0.3327
16160W        W32634  15.841  14.884   1.641  0.4040  0.0955  0.0057
16161W        W32635   3.495   7.379  12.254  0.1047  0.0084  0.1107
16162W        W32636   7.635  18.122   2.702 -0.2418 -0.0498  0.2116
16163W        W32637  14.569  13.517  13.956 -0.2140  0.3947  0.0152
16164W        W32638   3.757  18.079  15.031  0.1994 -0.3269  0.0565
16165W        W32639  15.002   6.080   5.305 -0.2134 -0.0735 -0.1307
16166W        W32640  11.353   7.865   0.234  0.1403  0.0665 -0.0359
16167W        W32641   0.254  18.941   4.551 -0.1792 -0.1801 -0.0698
16168W        W32642   0.066  10.746  15.131 -0.0382  0.1445  0.0528
16169W        W32643   3.830   2.449   4.074 -0.0092  0.2526 -0.1482
16170W        W32644  13.090   7.766  10.634 -0.1335  0.0372  0.2464
16171W        W32645   2.817   7.730  11.470 -0.4150  0.1106  0.5689
16172W        W32646  16.269   7.830   2.554 -0.0141 -0.3022  0.1631
16173W        W32647   8.949   5.433   0.411 -0.0697 -0.2187 -0.0635
16174W        W32648   6.125   5.685   4.531 -0.4648 -0.0191 -0.0176
16175W        W32649   8.256   9.635   3.803  0.1536 -0.3731  0.2097
16176W        W32650   8.568   2.852   4.211  0.0675  0.2328  0.1607
16177W        W32651   1.637  15.870   2.163  0.0416 -0.0667  0.2530
16178W        W32652   4.031   4.492   4.296 -0.1105 -0.1146  0.2003
16179W        W32653  15.369   1.631  14.268  0.1358  0.0107 -0.1866
16180W        W32654  10.644   1.336   2.948 -0.3324  0.0113  0.1238
16181W        W32655  10.317   3.124  13.702  0.0665  0.0019 -0.1974
16182W        W32656   2.344  14.180   2.430 -0.2570  0.1548  0.2096
16183W        W32657   6.019  10.858   0.417 -0.2102 -0.1387 -0.1114
16184W        W32658  13.069   6.876  14.709 -0.0364  0.2832  0.1083
16185W        W32659  13.259  14.194   5.094 -0.1666  0.0476 -0.1302
16186W        W32660  11.593   2.589   2.337 -0.1102  0.0821  0.0647
16187W        W32661  12.793   0.443  14.040  0.0501  0.1444 -0.0062
16188W        W32662   4.095   6.048  14.376  0.0128  0.2226  0.0920
16189W        W32663  18.494  15.782  13.518 -0.0090  0.0057 -0.1115
16190W        W32664   5.725   6.838   0.508 -0.0393  0.2061 -0.0201
16191W        W32665  13.933   8.986  12.197  0.1093  0.1420  0.2770
16192W        W32666   9.355   5.208   2.229 -0.0522  0.1042  0.2159
16193W        W32667  14.149  12.845  13.972 -0.2766 -0.1109 -0.5017
16194W        W32668  18.753   7.285   1.914 -0.0799  0.0010  0.1494
16195W        W32669   0.249  17.716  12.885  0.1618  0.1773  0.0447
16196W        W32670   1.825  18.981  11.269  0.0698 -0.2267 -0.0070
16197W        W32671  14.801   9.955  12.127  0.1469 -0.0721  0.2366
16198W        W32672  12.625  13.737   2.864 -0.1037 -0.0867 -0.3257
16199W        W32673   8.888  11.153   3.234 -0.1420  0.0532  0.3167
16200W        W32674  11.799   1.780   0.141 -0.1132 -0.1287 -0.0253
16201W        W32675  15.802   0.353   1.359 -0.2113 -0.5300 -0.0684
16202W        W32676  14.921  16.242  11.497  0.4250  0.0286  0.1217
16203W        W32677   9.714  16.691   2.909 -0.1340 -0.1108 -0.1987
16204W        W32678   8.626  15.161   9.497  0.1770  0.2687  0.0087
16205W        W32679   3.592  17.565   4.428  0.1379  0.0143  0.0041
16206W        W32680  15.188   9.310   4.060  0.0573 -0.0595  0.1534
16207W        W32681  15.979  11.490   2.149  0.2679  0.0226 -0.1024
16208W        W32682  12.120  17.851   0.554 -0.1924  0.0345  0.0860
16209W        W32683   4.060  14.070  14.896  0.3344  0.1086 -0.1789
16210W        W32684  13.165  17.274  12.077 -0.0845  0.0631  0.0361
16211W        W32685   4.955   8.431   3.268  0.3674  0.1457  0.4462
16212W        W32686  14.121   0.929   2.305 -0.0869 -0.2493  0.1701
16213W        W32687  12.272   9.011  14.666  0.1435 -0.0577  0.3863
16214W        W32688  13.304  17.807  14.693 -0.0772  0.2100  0.1840
16215W        W32689  16.748  16.291  14.641  0.1965  0.1108 -0.3077
16216W        W32690  14.477   2.097   9.071  0.0316 -0.1365  0.0395
16217W        W32691  11.978  15.550   2.765  0.5675  0.2991  0.2154
16218W        W32692  12.123  13.235   0.750 -0.1291 -0.3413  0.2186
16219W        W32693   9.567   7.733  14.378 -0.0338 -0.1256 -0.2775
16220W        W32694   1.027   3.253   2.128  0.3667 -0.2135  0.2378
16221W        W32695   6.996  15.961   1.049  0.0685  0.1650  0.0209
16222W        W32696  15.318  12.366  13.208  0.0714  0.0292 -0.0269
16223W        W32697   0.990   6.627   0.157  0.0540 -0.1505 -0.2540
16224W        W32698  16.935   8.183   3.720  0.3413  0.1285  0.0923
16225W        W32699  18.149   2.346   4.185 -0.0602  0.2261 -0.1594
16226W        W32700   1.646  18.065   3.695 -0.2915  0.0701 -0.3333
16227W        W32701  12.047   3.717   2.791  0.0828 -0.0030  0.3555
16228W        W32702   0.515   7.459  11.851 -0.2118 -0.1893  0.2135
16229W        W32703  16.827   6.274   3.947 -0.1053 -0.1127 -0.0861
16230W        W32704   9.264   8.970   3.188  0.3507  0.3823  0.0916
16231W        W32705   9.169  18.848   2.628  0.0396 -0.1023  0.0214
16232W        W32706  12.929  15.772  14.547 -0.0178  0.1912  0.2796
16233W        W32707   1.980  16.867  14.454 -0.1014  0.0244 -0.1003
16234W        W32708   9.166  14.316  15.152  0.0915 -0.1236 -0.2222
16235W        W32709  13.175  16.645  14.189  0.1579  0.1002  0.0101
16236W        W32710  13.349  17.111  10.994  0.0915  0.0941  0.1727
16237W        W32711   4.265  16.203   4.592  0.0445  0.0337  0.0594
16238W        W32712  18.627   7.158  14.534 -0.0988  0.0658  0.2292
16239W        W32713   0.343   2.507  10.794  0.2306 -0.0850 -0.0268
16240W        W32714  18.803   5.482  13.116 -0.0107 -0.4708  0.2471
16241W        W32715  11.665   1.158   3.164 -0.0465  0.0381  0.0072
16242W        W32716  12.082   8.771  15.119  0.3196 -0.2647 -0.1172
16243W        W32717  13.745   8.829   3.636 -0.0143 -0.1290 -0.2571
16244W        W32718   7.294   3.531   1.366  0.3973  0.0400 -0.2543
16245W        W32719  10.060  14.128  11.330  0.1946 -0.0102  0.1393
16246W        W32720   4.522   3.658  12.909 -0.0836  0.0018 -0.4540
16247W        W32721   8.251  12.085  13.510 -0.1493  0.1875 -0.0412
16248W        W32722  19.000  16.665   5.293 -0.0387  0.2830  0.1245
16249W        W32723  11.182   0.483   0.988 -0.1470  0.3696 -0.1290
16250W        W32724   2.483  16.094  12.856 -0.0401  0.4536 -0.0149
16251W        W32725  13.662   2.731   4.677  0.0422  0.3639  0.0570
16252W        W32726  13.863   3.058  12.574 -0.0125  0.3311 -0.0364
16253W        W32727  15.182   0.213   5.143  0.1272 -0.1444 -0.1876
16254W        W32728  15.803  15.736  12.442 -0.1760  0.1927 -0.2869
16255W        W32729   2.360   9.417  13.820  0.0801 -0.0059  0.4305
16256W        W32730   6.628  11.794  14.939  0.2247 -0.0865  0.3876
16257W        W32731  17.314   0.661   1.591  0.3630  0.0019 -0.2745
16258W        W32732  10.318  10.465  13.861 -0.0565 -0.1144 -0.1087
16259W        W32733   8.719  14.454  11.922 -0.0969 -0.0290  0.1442
16260W        W32734   7.724   0.760   5.709 -0.1009  0.2282  0.3148
16261W        W32735  17.517  14.666   3.206  0.0131  0.0149  0.1383
16262W        W32736   3.095   0.508  14.361  0.1475 -0.2509  0.0762
16263W        W32737   2.580   0.320  14.743  0.1623 -0.0441 -0.1765
16264W        W32738  17.331  18.437   0.957 -0.0720 -0.0034  0.0336
16265W        W32739   3.193  15.655   1.700  0.2982 -0.2067  0.1424
16266W        W32740   3.385   3.824  11.352 -0.0941  0.5814 -0.0654
16267W        W32741   5.213  17.969   0.388  0.0782  0.0381 -0.1143
16268W        W32742   5.370   1.651   0.176  0.0497  0.2297 -0.0063
16269W        W32743   4.257  13.021  13.334 -0.0364  0.0339  0.1378
16270W        W32744   5.371  16.230  11.310  0.0203  0.0456  0.0366
16271W        W32745   6.521   2.674  13.639 -0.2814 -0.2134  0.0565
16272W        W32746   0.770   1.491   1.121  0.0667 -0.1632 -0.0294
16273W        W32747   6.411   7.691  14.628  0.0592  0.2887  0.1350
16274W        W32748   4.925  17.130   2.968  0.2216  0.1695  0.0291
16275W        W32749  11.182   6.631  13.934  0.0270 -0.1246  0.2370
16276W        W32750   2.647   6.526  14.375 -0.1677 -0.2000 -0.3499
16277W        W32751   3.041  17.399  10.452  0.1724 -0.3961 -0.0954
16278W        W32752   4.787   5.947   1.399  0.0137  0.2646  0.3413
16279W        W32753  10.471  16.033  13.039  0.1035 -0.1405  0.2572
16280W        W32754  17.682  18.846   0.793  0.2897  0.0380 -0.0287
16281W        W32755  17.512   4.670  12.731  0.2371 -0.0485 -0.0252
16282W        W32756  13.926  18.349  14.019  0.3757 -0.1360  0.0540
16283W        W32757   9.491   7.259   4.613  0.0343 -0.0942 -0.1159
16284W        W32758   5.061  13.205  14.629 -0.2500 -0.0940 -0.1384
16285W        W32759  13.407  14.485   2.468  0.0531 -0.2789  0.0113
16286W        W32760   4.045   2.333   2.727 -0.0668  0.3653 -0.3547
16287W        W32761  15.962  15.059   9.759  0.0980  0.0669  0.0942
16288W        W32762  19.132  17.159   0.154  0.0046 -0.0563 -0.2510
16289W        W32763   2.345   1.727  14.326 -0.3342  0.0899 -0.2717
16290W        W32764   3.527   3.125   0.803  0.1600  0.4916  0.1361
16291W        W32765   3.101  11.977  12.601 -0.0808  0.1109  0.1924
16292W        W32766   1.339   6.881  14.987 -0.3041  0.0461  0.0201
16293W        W32767   9.783   5.253   2.463  0.1920  0.2481 -0.3925
16294W        W32768  16.575   7.462   1.837  0.3224 -0.0681 -0.0894
16295W        W32769  18.512   1.022   3.172 -0.0725  0.0342 -0.1322
16296W        W32770   1.888  11.680   1.739 -0.0110 -0.0907  0.0704
16297W        W32771   6.917   8.894   1.077 -0.1326 -0.1789 -0.0416
16298W        W32772  12.864   8.718  11.558  0.2139  0.4388  0.0627
16299W        W32773   9.047   0.653   4.671  0.1351  0.1925 -0.4406
16300W        W32774  12.699  18.616   1.283  0.3029  0.2370  0.0699
16301W        W32775  10.749  17.183   3.397  0.1203 -0.3091  0.0878
16302W        W32776   9.452   6.598   0.527 -0.0458  0.1640 -0.0350
16303W        W32777  16.479  14.244  12.698 -0.0200 -0.1980 -0.3119
16304W        W32778   2.693  15.254  12.924  0.3436 -0.3133  0.2827
16305W        W32779   1.637  16.408  15.129 -0.3052  0.1383  0.1067
16306W        W32780  13.501   1.835   3.402 -0.0841 -0.1359  0.0822
16307W        W32781  13.918  19.147   4.549 -0.0389  0.0659  0.1888
16308W        W32782  10.932   0.925  12.191 -0.4139  0.2338 -0.0535
16309W        W32783  14.874  15.522   3.892 -0.2050  0.0865  0.0400
16310W        W32784   9.691   7.308  11.906  0.1541 -0.0429  0.0917
16311W        W32785  11.631  18.622   2.596 -0.0394 -0.2869 -0.1726
16312W        W32786  18.915  16.543   2.582 -0.3117 -0.2492  0.0385
16313W        W32787  12.972   1.563  14.355 -0.0836 -0.1564 -0.0841
16314W        W32788  17.555  14.363  11.872 -0.0195  0.0754 -0.2023
16315W        W32789   1.484   5.548   0.005 -0.1393 -0.0625 -0.1666
16316W        W32790  11.124   4.138   3.261  0.0543 -0.2698 -0.0682
16317W        W32791   0.976  15.633  13.455 -0.0942 -0.0284 -0.1644
16318W        W32792  16.475  15.047   4.983  0.3284  0.1992  0.3544
16319W        W32793   8.315  18.383  15.013 -0.0129 -0.2567 -0.1491
16320W        W32794  10.308   7.867   2.194  0.0898  0.0158  0.3075
16321W        W32795   4.692   4.103   3.164  0.1879  0.2547 -0.1788
16322W        W32796   2.399  10.401   1.446  0.3299  0.1273  0.0721
16323W        W32797   7.350  13.495   0.686  0.3014 -0.0785  0.1943
16324W        W32798   3.246   8.113   4.815  0.2282  0.0409  0.0202
16325W        W32799   7.396  13.875   4.197  0.2256 -0.2198 -0.0732
16326W        W32800   4.578   6.692  12.806 -0.0986 -0.0394 -0.0324
16327W        W32801   1.439  11.456  15.045  0.0781 -0.0969  0.0257
16328W        W32802   3.934  10.466   4.407  0.0877 -0.1532  0.0531
16329W        W32803   5.575  14.948   3.083 -0.2667 -0.0617  0.0986
16330W        W32804   6.492   3.551   2.183  0.2107 -0.2993 -0.3566
16331W        W32805  11.404  12.308  12.857 -0.2850  0.1637  0.2659
16332W        W32806  12.712   6.550  10.291  0.1857 -0.0441 -0.0852
16333W        W32807  13.011   0.896  14.812  0.1105  0.2419 -0.3071
16334W        W32808  17.587   5.643  10.617 -0.0334  0.0659  0.2240
16335W        W32809   5.099  17.474  10.488 -0.3086  0.3900 -0.1861
16336W        W32810   3.502  14.742   4.012  0.0562  0.0311 -0.0309
16337W        W32811  13.252   2.001   0.380 -0.0354 -0.1448 -0.0530
16338W        W32812  10.099   1.216   9.544 -0.5159  0.2678 -0.1611
16339W        W32813   8.322   0.634   1.436  0.0339  0.1584 -0.1857
16340W        W32814   4.471  18.577   5.223  0.0589  0.4049  0.4369
16341W        W32815   4.866   9.743  14.043  0.1899 -0.0766  0.1458
16342W        W32816  16.057   3.811  14.139 -0.1914 -0.2195 -0.0022
16343W        W32817   3.081   2.264   1.764 -0.1960 -0.2479 -0.0063
16344W        W32818  16.592  14.308  10.688  0.2345  0.0469 -0.4495
16345W        W32819  16.162   9.912  12.287  0.1332  0.1560 -0.0393
16346W        W32820  17.308  15.438  13.959  0.0135  0.0284 -0.2598
16347W        W32821  13.593  18.861  13.262  0.0294 -0.2217  0.1969
16348W        W32822  13.426   3.071  12.261 -0.1854 -0.1648 -0.2931
16349W        W32823  17.052  10.635  14.956  0.0185 -0.2083  0.1956
16350W        W32824   9.783   3.356  10.573  0.0462 -0.1542 -0.2900
16351W        W32825  19.012  18.459  11.260 -0.3764 -0.0748  0.2603
16352W        W32826  10.152   7.456   5.102 -0.0195  0.0354  0.1359
16353W        W32827  18.897  12.303  10.156  0.0989 -0.0140  0.0718
16354W        W32828  15.464   9.091   2.429  0.2548  0.1051  0.0142
16355W        W32829   7.744  12.345   0.417  0.2680 -0.1828  0.3320
16356W        W32830   1.399   2.002   4.448  0.1515  0.0574 -0.1303
16357W        W32831   5.073  13.969  11.413 -0.1539 -0.1323  0.2068
16358W        W32832  17.315   7.803  12.087 -0.0804  0.0099  0.1658
16359W        W32833  16.501   7.685  13.855 -0.3538  0.1522  0.1613
16360W        W32834  14.715   3.494  12.794 -0.5342  0.2345 -0.0799
16361W        W32835   3.495   9.953  14.760 -0.2230 -0.0765  0.0551
16362W        W32836   5.324  13.509   2.659 -0.1314 -0.2083 -0.5142
16363W        W32837   3.607   2.933   1.483  0.2837  0.4589 -0.1099
16364W        W32838   8.413   6.687   2.048  0.0350  0.1169  0.0904
16365W        W32839   2.320  18.650   3.857  0.1726 -0.1773 -0.0861
16366W        W32840  14.493  14.502  14.329 -0.1003 -0.5964  0.2287
16367W        W32841   5.430  15.039   0.815 -0.3713  0.3026 -0.0068
16368W        W32842   6.767  13.100  11.593  0.1534 -0.1274  0.1744
16369W        W32843   2.597   1.247   1.954  0.1461  0.0905 -0.0747
16370W        W32844   6.826  12.459   3.528 -0.0017  0.0859 -0.1253
16371W        W32845  18.479   9.805  14.983  0.0211 -0.0345 -0.0920
16372W        W32846  15.790  10.033   0.611  0.1249  0.1134 -0.1659
16373W        W32847  13.616   0.646   0.160 -0.0468  0.1332 -0.1909
16374W        W32848   1.186   6.107   0.815 -0.1215  0.0054 -0.4007
16375W        W32849   9.150   4.885  11.818 -0.0395 -0.0144  0.1774
16376W        W32850   1.998   4.416  11.108 -0.1925 -0.1302 -0.0918
16377W        W32851  18.443  14.926  12.949  0.1900 -0.0048 -0.0743
16378W        W32852   6.340   9.915   4.452 -0.1068  0.1443 -0.1932
16379W        W32853  15.789   4.028   5.400 -0.0500 -0.2536 -0.2258
16380W        W32854  10.804  14.137  13.531 -0.1138  0.1178  0.2061
16381W        W32855  18.417   5.185   0.077 -0.3493 -0.0241 -0.1679
16382W        W32856   0.485   3.649  14.618  0.0904 -0.3042  0.3122
16383W        W32857  16.026   5.818   3.863 -0.4683  0.1417 -0.4681
16384W        W32858  11.814  11.350   1.523  0.1338 -0.0028 -0.1043
16385W        W32859  13.437   2.312  10.015 -0.2460  0.0364  0.3055
16386W        W32860   2.843  19.056  12.453  0.2803  0.2283  0.4442
16387W        W32861   0.555   1.167  14.780 -0.1377 -0.0738  0.0673
16388W        W32862   9.711  11.006   0.348 -0.0231 -0.0220 -0.0173
16389W        W32863   5.246   4.560   4.016  0.1302 -0.4267 -0.0395
16390W        W32864  14.146   7.317   2.351  0.0442 -0.0013 -0.0299
16391W        W32865  10.444  15.820  12.512  0.0960  0.0040 -0.0383
16392W        W32866  11.046   3.151  13.134 -0.1118  0.2405  0.2655
16393W        W32867  16.100  15.167   3.391 -0.0260  0.2969  0.1107
16394W        W32868   1.069   0.614   1.153 -0.3067  0.1939 -0.3113
16395W        W32869  18.228   9.807   4.724 -0.1502  0.1094 -0.0508
16396W        W32870  16.313   3.995   0.796 -0.0132  0.2051 -0.2711
16397W        W32871  13.692  16.503  14.192  0.1281  0.2004  0.0969
16398W        W32872   7.241  10.569  12.594  0.3130  0.1174  0.0392
16399W        W32873  12.143  10.283  14.444 -0.1248 -0.4102  0.3183
16400W        W32874  14.076   7.490  11.008  0.1757 -0.0644  0.0450
16401W        W32875  10.278  15.321  13.628 -0.1699 -0.1439  0.3182
16402W        W32876   9.292   1.151   2.240  0.0139  0.0705  0.1157
16403W        W32877  12.204   4.646  11.618  0.2138 -0.1283  0.1254
16404W        W32878   6.981  16.098   3.498 -0.1842 -0.0610 -0.3561
16405W        W32879   3.280  14.165   0.034 -0.0532 -0.3680 -0.1383
16406W        W32880  12.042  15.338   3.591  0.0202  0.2401 -0.1043
16407W        W32881  10.164  10.903   1.858 -0.0809  0.1262 -0.0003
16408W        W32882   5.796   6.894   3.194 -0.0565 -0.0470  0.2767
16409W        W32883  17.962  11.740   9.671  0.0756  0.0123  0.1469
16410W        W32884   2.157   2.503   0.831  0.2359  0.2879 -0.2677
16411W        W32885  10.080   2.757   1.538 -0.0169 -0.3853  0.4667
16412W        W32886  19.123   8.811  11.121 -0.1473  0.3427 -0.0219
16413W        W32887   0.056   5.519   4.733  0.0030  0.1999 -0.0124
16414W        W32888   9.888  15.549   1.490  0.0138  0.1818 -0.5352
16415W        W32889   9.889   4.502  11.798  0.0192  0.0216 -0.0239
16416W        W32890  15.456   6.215  11.947  0.1333 -0.5107  0.2333
16417W        W32891   6.259  12.172  15.072  0.0408  0.0809  0.0843
16418W        W32892   4.273  10.520  12.657 -0.0623 -0.1453  0.0089
16419W        W32893  14.665  18.170   1.219  0.0153  0.3266  0.0746
16420W        W32894   8.379   0.399  11.997  0.1139 -0.1948  0.1427
16421W        W32895   9.973  13.979   0.737 -0.0710  0.0829  0.1266
16422W        W32896  11.083  17.286  10.711 -0.0968 -0.0221  0.1471
16423W        W32897   9.370  16.919  14.615  0.0877  0.0927 -0.2154
16424W        W32898   6.983  12.712   4.825 -0.1066 -0.4251 -0.3191
16425W        W32899  14.190  13.422  11.399 -0.0198  0.5392  0.4876
16426W        W32900  11.833   0.753  10.890 -0.0767 -0.0946 -0.0025
16427W        W32901  10.319   1.686   0.878  0.2797  0.2467  0.0871
16428W        W32902   0.372  15.631  10.987  0.2929 -0.3318 -0.0200
16429W        W32903  13.675  17.651   1.298 -0.1262 -0.0178 -0.0888
16430W        W32904   7.188  12.743   1.780  0.0502 -0.2835  0.3682
16431W        W32905  14.168  11.937   3.104 -0.0616  0.2753  0.0199
16432W        W32906   2.241   3.505   1.161 -0.2453  0.0727 -0.2514
16433W        W32907   8.815   9.076   1.929  0.2317  0.2649 -0.0368
16434W        W32908   5.976  17.882   2.337 -0.3371 -0.1803  0.1874
16435W        W32909   0.643   6.784   2.096  0.0006  0.1870  0.0535
16436W        W32910  18.014  10.213  10.857  0.0755  0.1533 -0.0336
16437W        W32911   7.396   5.821   2.785  0.0699  0.3287 -0.1781
16438W        W32912   2.401  10.246   2.039 -0.3196 -0.2232  0.0808
16439W        W32913  16.290  10.346  12.494 -0.1696 -0.1744  0.2043
16440W        W32914   7.808  10.305   1.633  0.3053 -0.2490  0.1015
16441W        W32915  14.846  11.060  15.033 -0.0789  0.2782  0.0993
16442W        W32916   4.402  13.703  15.079  0.2223 -0.1949  0.0371
16443W        W32917  17.227   4.734   4.786  0.2047 -0.0133 -0.1636
16444W        W32918   6.934  17.665  14.256 -0.3058 -0.0694 -0.1430
16445W        W32919  17.557   7.131   3.508 -0.1111 -0.3850 -0.1631
16446W        W32920  18.224   1.464  15.001 -0.1284 -0.2226 -0.0750
16447W        W32921   1.146   4.919   1.152 -0.1107  0.1564  0.1551
16448W        W32922  18.839   9.264   4.730 -0.0285 -0.0018 -0.0316
16449W        W32923  15.183  13.278  10.823 -0.0997  0.2853 -0.0834
16450W        W32924  15.496   1.664  11.914  0.1139  0.0877 -0.3177
16451W        W32925   5.644   8.530   4.018  0.0531  0.0847 -0.0308
16452W        W32926  14.145  13.552   2.034 -0.0060 -0.0564 -0.0080
16453W        W32927  10.094  10.715  12.051 -0.1668  0.2998 -0.2238
16454W        W32928   6.803  14.810  10.384  0.0300  0.1932 -0.0827
16455W        W32929   6.799   6.747  12.322 -0.1202  0.0747 -0.1006
16456W        W32930   9.128   8.814   4.114  0.2145  0.0162  0.0224
16457W        W32931  17.505   1.707   3.908  0.1353  0.0820  0.2182
16458W        W32932  16.340  16.750  13.074 -0.3061 -0.4926  0.3902
16459W        W32933  15.492   6.338   3.211  0.1606 -0.0109  0.0427
16460W        W32934  13.498  13.467  14.034 -0.0999 -0.0171 -0.0243
16461W        W32935   7.008   7.243   0.844  0.1957 -0.2446 -0.0992
16462W        W32936   0.233  10.706   4.082  0.0359  0.3112  0.2526
16463W        W32937  10.827   9.763  14.475 -0.1157 -0.0469  0.0936
16464W        W32938   4.744  11.906   1.301 -0.1811 -0.0609  0.0932
16465W        W32939   3.544  16.328  13.089 -0.1476  0.2324 -0.0106
16466W        W32940  13.492   2.388   3.382  0.1212  0.0153  0.2890
16467W        W32941   8.809  12.604   3.523 -0.0392  0.3100  0.0170
16468W        W32942  18.133  13.313   0.340  0.0662  0.2461 -0.0038
16469W        W32943   1.331   8.589   0.280  0.0103  0.0950 -0.0792
16470W        W32944  10.651  10.174   2.157 -0.2215  0.2246  0.0271
16471W        W32945  15.525  18.480   4.952  0.0765 -0.2644 -0.0801
16472W        W32946   9.464   6.753   3.869  0.2120  0.0849 -0.0029
16473W        W32947  13.943   8.326  11.805  0.0969 -0.0269 -0.0656
16474W        W32948   5.388  12.045  12.955  0.1022 -0.1985  0.1519
16475W        W32949  16.381  11.478   1.631  0.2403  0.0456 -0.0127
16476W        W32950   7.306  14.638  15.109  0.0437  0.3902  0.0362
16477W        W32951   4.844  11.269   1.978 -0.0107  0.1782 -0.0737
16478W        W32952   3.834   7.136   5.212  0.0880 -0.3327 -0.0747
16479W        W32953   2.087   9.044  14.965 -0.0825  0.1829 -0.2721
16480W        W32954   3.596  15.225  14.602  0.0894 -0.0345 -0.0370
16481W        W32955   9.810  17.962  10.442  0.1838 -0.1245  0.4000
16482W        W32956  14.053   6.956  14.999  0.1121  0.1273 -0.2288
16483W        W32957  12.664  13.647   4.575 -0.2425  0.0118  0.0902
16484W        W32958   6.968  13.684   1.840 -0.1429  0.1030  0.1200
16485W        W32959   6.255  12.153  14.182  0.1134 -0.0466 -0.0391
16486W        W32960   7.821   0.175   0.107  0.0650 -0.1919 -0.1898
16487W        W32961   6.641   7.556   1.949 -0.0994 -0.3533 -0.3127
16488W        W32962  18.136  16.068   2.137  0.2032  0.2485  0.2829
16489W        W32963   0.559  11.206   0.626 -0.1858  0.0985 -0.0955
16490W        W32964   9.769   0.030   3.846  0.1412 -0.0467 -0.0076
16491W        W32965  10.626  14.690   2.029  0.0319  0.1554 -0.2389
16492W        W32966   9.259  14.790   2.217 -0.1095  0.0984  0.2561
16493W        W32967   9.187   6.552   2.775 -0.0834 -0.1839 -0.1279
16494W        W32968  16.310  17.431   1.470  0.1001  0.2744 -0.1909
16495W        W32969   3.112  16.399   3.586 -0.0501  0.1485 -0.2553
16496W        W32970  10.115  13.268  15.102 -0.0557 -0.2531  0.1144
16497W        W32971  12.145  10.417   4.333 -0.0989  0.1303  0.1107
16498W        W32972  11.470  15.273  11.750 -0.1246 -0.1943  0.0592
16499W        W32973   6.146   8.457   1.720  0.0599  0.1801  0.0720
16500W        W32974  12.113  13.802  11.461 -0.0487  0.2694  0.0296
16501W        W32975   9.725  15.926  13.804 -0.0033  0.3567  0.0650
16502W        W32976  13.880  15.340   2.488  0.2775  0.1786  0.2304
16503W        W32977   0.162  16.084  11.799 -0.1973 -0.1551 -0.1324
16504W        W32978   0.964  15.709   0.886  0.1815  0.0543 -0.3294
16505W        W32979  11.717  11.895  11.276  0.0670 -0.1365 -0.1529
16506W        W32980  10.187   5.754   1.624 -0.1019  0.0290  0.1329
16507W        W32981  11.241   7.979   3.246 -0.2700  0.1697  0.1853
16508W        W32982   4.688  10.856   1.478  0.1716 -0.2005 -0.0416
16509W        W32983   7.402  17.013  11.625  0.1027  0.1801 -0.0816
16510W        W32984   4.625   9.032  12.513 -0.1526  0.2403 -0.0064
16511W        W32985  18.203  18.801   0.955 -0.0902  0.2109 -0.0265
16512W        W32986  12.406  13.803  12.765 -0.1055 -0.0479  0.1413
16513W        W32987  13.506  10.893   3.504 -0.1737 -0.0583  0.2147
16514W        W32988   4.303   6.231   0.554 -0.3218 -0.2437  0.2326
16515W        W32989   7.058   6.231  14.230  0.0471 -0.2462  0.3697
16516W        W32990  15.605  16.075  12.707 -0.3129  0.0037 -0.2152
16517W        W32991   3.839  13.380   4.094  0.0615  0.4519 -0.0372
16518W        W32992  14.883   7.403  12.700  0.0885  0.0572  0.1010
16519W        W32993  16.111  16.663  13.584  0.2355 -0.0580 -0.1162
16520W        W32994  12.536  12.824  11.948 -0.1268 -0.0627  0.0314
16521W        W32995  14.155   2.936   4.664  0.1828 -0.2151 -0.1722
16522W        W32996   0.363   8.334   4.889  0.2878  0.0928  0.1898
16523W        W32997  13.222   8.906  10.881  0.2435 -0.0105  0.1644
16524W        W32998   8.371   4.042  13.956 -0.1066  0.1693 -0.1776
16525W        W32999  12.884  11.782   2.342  0.1909  0.0651 -0.0227
16526W        W33000   7.324   6.084   1.122  0.1017 -0.0744 -0.1473
16527W        W33001  15.080  16.748   1.261 -0.0270  0.2098  0.0595
16528W        W33002  10.173   8.965   0.555  0.1795 -0.0302  0.0515
16529W        W33003   1.207   0.582  10.441 -0.3604 -0.2114  0.2704
16530W        W33004  19.075   4.466  10.549  0.1313  0.3322  0.2059
16531W        W33005  18.513   6.083  11.822  0.1060  0.3430 -0.3535
16532W        W33006  11.558  10.501  13.452  0.0967  0.1200  0.0160
16533W        W33007   5.627   7.958   3.479 -0.1633 -0.3905  0.2104
16534W        W33008   5.919   8.568  11.853  0.0973  0.1473 -0.0994
16535W        W33009   7.630   9.172  14.980 -0.3359  0.3121 -0.0759
16536W        W33010   5.428  11.662  13.830  0.1205 -0.2769  0.1244
16537W        W33011   4.658  19.119   4.109 -0.0529 -0.2659  0.1371
16538W        W33012  17.524  10.275  12.400 -0.0313 -0.2157  0.3737
16539W        W33013   5.078   1.096   5.883 -0.0073  0.0619 -0.1905
16540W        W33014   7.600   0.286   0.957  0.0557  0.2248 -0.2058
16541W        W33015   9.726  11.170  12.744  0.2455  0.1481 -0.3076
16542W        W33016  10.699  18.984   1.034 -0.0063  0.2723 -0.1013
16543W        W33017   7.085   5.270  14.651 -0.0017 -0.1410  0.4348
16544W        W33018   0.915   8.998  14.446  0.0539  0.0441  0.1187
16545W        W33019  17.146  12.464  14.492  0.0460 -0.2870 -0.0095
16546W        W33020  14.304   8.593  11.498 -0.0768  0.0260  0.0522
16547W        W33021  18.536   4.220   0.920  0.1778 -0.1993  0.2872
16548W        W33022   7.373  17.061   0.544  0.1497  0.2467 -0.4282
16549W        W33023   5.469   6.873  13.314  0.2440  0.0927  0.1806
16550W        W33024   1.784  18.734  14.070 -0.2620  0.2443 -0.0427
16551W        W33025  11.182  13.456  10.905 -0.1828  0.1167 -0.0841
16552W        W33026   6.851   3.170  11.702 -0.0923 -0.0379  0.4893
16553W        W33027   9.935   0.219   2.470  0.1205 -0.0960 -0.1277
16554W        W33028   5.406  17.639  11.327 -0.1273 -0.1122  0.0367
16555W        W33029   2.038   7.922  14.391 -0.1911  0.1181  0.0991
16556W        W33030   2.485   3.922   2.148  0.3939 -0.1568 -0.1227
16557W        W33031  17.366   0.181   4.569  0.0988  0.2175 -0.1533
16558W        W33032   5.244  11.237  12.158 -0.2922  0.1911  0.3180
16559W        W33033   5.192  12.025   2.888  0.0954  0.3284 -0.0042
16560W        W33034   7.222  17.474  13.857 -0.0918  0.2776  0.0442
16561W        W33035   1.844   8.681   0.305  0.2871 -0.0354  0.1591
16562W        W33036  12.985   7.858  12.402 -0.0852 -0.1349  0.0893
16563W        W33037   2.066   2.447   0.319  0.0391  0.1484  0.1002
16564W        W33038  10.233   7.562  11.069  0.0112  0.0363 -0.3959
16565W        W33039   2.448  16.608   1.407  0.0481 -0.1058 -0.1358
16566W        W33040   5.366  17.581   0.657 -0.3346  0.1815 -0.0884
16567W        W33041  15.651   3.088   0.688  0.4109 -0.1632 -0.1484
16568W        W33042  17.374   4.846  13.607 -0.1081 -0.1394  0.0195
16569W        W33043  17.752   6.260  11.494 -0.0688 -0.0532  0.0965
16570W        W33044  14.283   9.985   4.580  0.1698  0.0692 -0.2872
16571W        W33045   6.500   4.770  12.903 -0.1322  0.2630  0.1713
16572W        W33046  16.955  16.426   2.309 -0.2513 -0.1193 -0.0503
16573W        W33047   2.061  12.899   2.255  0.1916 -0.0838  0.0348
16574W        W33048  11.684   1.775  12.607 -0.3676  0.0530 -0.0952
16575W        W33049  17.841   6.990  14.306 -0.2951 -0.2559  0.0539
16576W        W33050   1.560  10.452  11.347 -0.4750  0.0882  0.3203
16577W        W33051  11.583   9.446  11.786  0.0427 -0.3171  0.2961
16578W        W33052   7.916  12.231   1.123 -0.0899 -0.1582 -0.2700
16579W        W33053   9.250   7.616  12.499 -0.1497  0.1372 -0.3336
16580W        W33054  14.352   8.373   5.240 -0.2888 -0.1551  0.0617
16581W        W33055  11.317   5.194   4.865 -0.0000 -0.2608  0.0690
16582W        W33056  16.836   1.192   1.070 -0.0571  0.0249  0.1612
16583W        W33057   9.913  15.873   2.618 -0.0297 -0.0087  0.2078
16584W        W33058  18.473  12.576   3.421 -0.1331 -0.1668  0.1545
16585W        W33059   3.198   8.196   0.487  0.0445  0.3188  0.0705
16586W        W33060   9.978   4.434   4.094  0.1741  0.0823  0.1189
16587W        W33061  18.435  18.256   1.766  0.3673 -0.1879 -0.0992
16588W        W33062   1.255   2.928  12.960  0.0837  0.1181 -0.0783
16589W        W33063   4.678  15.101   4.443 -0.2228 -0.0507  0.2150
16590W        W33064   7.359   9.561   2.350 -0.0172 -0.0556  0.2483
16591W        W33065  12.909   3.231  14.524 -0.3916  0.0572  0.1738
16592W        W33066   0.779   2.715   3.640  0.3517  0.2680 -0.2061
16593W        W33067   1.216   5.898   5.293 -0.3017  0.1231 -0.1492
16594W        W33068   2.188  17.956   3.406  0.0855  0.1843 -0.0153
16595W        W33069   7.339   5.765   4.412 -0.0670  0.0379 -0.0988
16596W        W33070   8.806  17.247   2.627  0.4280  0.0026 -0.0443
16597W        W33071   1.106  17.540   2.029  0.0219  0.0412 -0.1275
16598W        W33072  10.708  11.442   4.200 -0.0790  0.1534  0.0190
16599W        W33073   3.394   2.072  13.602  0.0270 -0.0099  0.0197
16600W        W33074  16.225  16.883   2.390  0.2372  0.2871  0.2502
16601W        W33075   9.538  17.755   3.609  0.1161  0.0195 -0.5761
16602W        W33076  12.025   5.560  10.563 -0.1704  0.0229  0.1761
16603W        W33077  18.327  12.943   1.222  0.0189 -0.2124 -0.1905
16604W        W33078  16.950   9.311   0.604  0.0713 -0.1816  0.2009
16605W        W33079  12.907  19.089   2.118  0.2236  0.0150  0.0739
16606W        W33080   9.779  11.134   2.596 -0.0168  0.1542 -0.0031
16607W        W33081   0.814  13.852   1.458 -0.0570 -0.0875 -0.2911
16608W        W33082  12.770  11.043   2.880 -0.0023  0.0843  0.0541
16609W        W33083  16.363   3.667   3.448  0.3725 -0.0283  0.0049
16610W        W33084   2.386  15.586  13.146 -0.1549  0.0414  0.1246
16611W        W33085   6.342   0.266   4.660  0.0989 -0.0783 -0.0655
16612W        W33086  12.460  11.100  11.813 -0.1719 -0.0454 -0.2187
16613W        W33087  12.722   2.898   4.659 -0.0020 -0.0866 -0.0357
16614W        W33088   4.823   9.533   4.348  0.0728 -0.0505  0.2738
16615W        W33089  16.941   2.099  11.699 -0.0076  0.0101 -0.0829
16616W        W33090   5.178  10.231  12.783 -0.0613  0.0958 -0.1992
16617W        W33091  14.832  11.334   3.007  0.2516 -0.1238 -0.0104
16618W        W33092  16.138  11.685  12.710  0.1341 -0.0431 -0.1818
16619W        W33093   9.594   3.632  13.083  0.0613  0.1344 -0.3682
16620W        W33094   8.963  15.831   4.680  0.2600  0.2464 -0.0690
16621W        W33095  12.941  13.005   0.830 -0.2883 -0.0382  0.1525
16622W        W33096   7.713  15.844   2.680 -0.0465 -0.0589 -0.0133
16623W        W33097  12.023   0.558   1.970 -0.1224  0.0076  0.1131
16624W        W33098  16.964   2.497   3.639 -0.2470  0.0159  0.3085
16625W        W33099   6.943   1.433   0.227  0.1554 -0.2812  0.1173
16626W        W33100  18.809  13.151  15.092  0.2075  0.2342 -0.3114
16627W        W33101  17.897  11.703  14.691  0.1496  0.0170 -0.1074
16628W        W33102   1.191   4.628   2.609 -0.0698  0.4226  0.1184
16629W        W33103   9.555  11.503   0.344 -0.0303  0.0750 -0.0214
16630W        W33104   5.264   6.086   0.194 -0.0089 -0.0180 -0.1676
16631W        W33105  12.859   3.715   9.183  0.1507 -0.2369  0.0741
16632W        W33106  10.725   0.172   2.673 -0.2499  0.2039 -0.1004
16633W        W33107   5.966   6.773   4.479 -0.1816  0.2329  0.2237
16634W        W33108   7.903  14.354   3.966 -0.1077  0.2137  0.0647
16635W        W33109  10.279  16.590   5.190 -0.0079 -0.4189  0.2661
16636W        W33110   9.591   0.965   4.206 -0.0022 -0.0666 -0.0339
16637W        W33111  13.803   7.029  11.918  0.0980 -0.0097  0.3483
16638W        W33112  14.731   3.942   1.423  0.0419 -0.2393  0.1401
16639W        W33113   8.333  15.134   2.458  0.1288 -0.0594 -0.0955
16640W        W33114  14.261   2.212   1.731 -0.0954 -0.0572  0.3663
16641W        W33115  13.987  14.707   4.520  0.1991 -0.0569 -0.2054
16642W        W33116  15.974  12.370   5.542  0.1982  0.2175 -0.1691
16643W        W33117  10.008  18.840   4.446  0.1379  0.4327 -0.2710
16644W        W33118   9.994  17.530  11.803  0.2175 -0.1111 -0.0027
16645W        W33119   4.575  18.332  11.600 -0.3455  0.1254 -0.0891
16646W        W33120  18.324  18.269  14.955 -0.0006  0.1097  0.1140
16647W        W33121  17.123  12.890   3.966 -0.0465  0.1878  0.0662
16648W        W33122   0.931  10.917  10.728 -0.1081  0.1226 -0.2199
16649W        W33123   1.711   9.031  13.859  0.1246  0.3041 -0.0378
16650W        W33124   1.007  15.393  13.903  0.0664 -0.0037 -0.2738
16651W        W33125  15.769   2.042   4.118  0.1782 -0.0240  0.2828
16652W        W33126  14.557  14.212   3.234 -0.2140  0.2976 -0.0306
16653W        W33127  13.848   6.503  11.987 -0.3723 -0.3851  0.1028
16654W        W33128   8.818  17.429  12.801  0.2886  0.0672  0.1280
16655W        W33129   4.811  13.632   0.892  0.0086  0.0988  0.1865
16656W        W33130   8.819   7.959   1.314  0.1218  0.2820  0.1450
16657W        W33131  17.092  19.073  11.438 -0.0418  0.1928  0.1932
16658W        W33132   2.097   9.559   4.156 -0.1508 -0.0626  0.0097
16659W        W33133   5.834   7.470   3.358  0.2671  0.2041 -0.1285
16660W        W33134  16.708   4.982   3.012  0.1060  0.0542 -0.5275
16661W        W33135   7.103   2.943  12.118 -0.0486 -0.0274 -0.0046
16662W        W33136   3.890   9.844  13.487 -0.1755  0.2537 -0.3041
16663W        W33137  16.514   2.195   0.840  0.1970  0.1544 -0.4559
16664W        W33138   0.743   7.292  13.730 -0.2950  0.0990 -0.0563
16665W        W33139  10.726  14.933   2.502 -0.0803  0.3769 -0.0081
16666W        W33140   9.003   0.046   0.977 -0.0599 -0.1532  0.3254
16667W        W33141  18.413  15.994   0.517 -0.0991 -0.1399  0.2280
16668W        W33142   1.789  18.752   4.401  0.1156  0.1346 -0.1232
16669W        W33143   8.461   5.750  12.458 -0.3270 -0.1995 -0.2830
16670W        W33144   4.898   3.227  14.157 -0.0913 -0.1424  0.0347
16671W        W33145   5.596   2.003   4.256  0.0132 -0.1230 -0.1681
16672W        W33146  18.880   4.976  12.441 -0.3928 -0.1340  0.1327
16673W        W33147   1.623  14.666  12.960  0.1167 -0.1262 -0.1611
16674W        W33148   6.003  11.084  13.192 -0.2426 -0.0689  0.1072
16675W        W33149   3.104  12.618  12.025  0.0420 -0.4817 -0.0071
16676W        W33150   0.332  14.853   0.187 -0.1445 -0.0652 -0.2229
16677W        W33151   0.370  18.407  13.234 -0.1519 -0.1254  0.1609
16678W        W33152  18.583   5.089   3.054  0.2157 -0.1520  0.1060
16679W        W33153  18.122  13.038  12.470 -0.0964 -0.0633  0.0297
16680W        W33154   3.575   0.001  14.405 -0.2742  0.1098 -0.0713
16681W        W33155  16.018   8.438  14.087 -0.1906  0.5452 -0.0374
16682W        W33156   1.875  17.637   3.135 -0.0304 -0.1114  0.0057
16683W        W33157  13.710  15.655   3.987  0.2381 -0.5582 -0.2460
16684W        W33158  11.428   4.462  12.430 -0.1350 -0.1609 -0.1076
16685W        W33159   7.488   5.636   5.004 -0.2346  0.0742 -0.1696
16686W        W33160   1.983   2.430   2.082 -0.0376  0.0300 -0.1178
16687W        W33161   0.075   7.653  11.677 -0.1190 -0.1954  0.0799
16688W        W33162   5.145   1.977   9.924  0.1224  0.1751 -0.5196
16689W        W33163  14.793  15.754  12.269 -0.2975 -0.1647  0.0229
16690W        W33164  16.582  10.890   3.118 -0.0148 -0.0345 -0.2817
16691W        W33165   4.938   9.181   3.123  0.1879  0.1423  0.2493
16692W        W33166   6.118  14.224  14.806  0.0009  0.1878  0.3153
16693W        W33167  13.283   0.395  14.412  0.0836  0.1565  0.2134
16694W        W33168   0.907  13.234   4.116  0.1352  0.4211  0.2969
16695W        W33169   0.129  16.820   1.015 -0.1980  0.1609  0.0053
16696W        W33170  11.654   8.077  13.178  0.0447  0.0032  0.0520
16697W        W33171   9.171  18.056   3.854 -0.3481 -0.0076 -0.0482
16698W        W33172  18.388  14.959  10.764 -0.1603 -0.1243  0.0614
16699W        W33173  13.641  13.758  15.030 -0.2673 -0.1177 -0.1163
16700W        W33174   4.330   9.221  14.001 -0.1886 -0.3666  0.1941
16701W        W33175   1.990  12.905  12.522  0.1600  0.1446  0.0760
16702W        W33176  10.731   6.902  11.169  0.1272  0.1323  0.1065
16703W        W33177   8.057   2.555  10.664  0.0089 -0.0860 -0.4054
16704W        W33178   1.711  13.109  11.029 -0.3356 -0.1007  0.2290
16705W        W33179   4.687   7.327  14.453  0.2694 -0.0978  0.0237
16706W        W33180   8.742   1.795  13.359  0.4042  0.0271 -0.2776
16707W        W33181  18.145   8.165   3.407  0.3329 -0.1963 -0.1796
16708W        W33182   5.027   0.803   4.594  0.1006  0.0217  0.3119
16709W        W33183  15.199   7.806   1.565  0.2503  0.1764 -0.1599
16710W        W33184  17.230  18.949  13.095 -0.0801 -0.1440 -0.1869
16711W        W33185   0.354  11.595   2.552  0.0925 -0.2130 -0.2218
16712W        W33186  11.057   8.882   2.149 -0.1586  0.1608  0.0789
16713W        W33187   1.898   8.604  13.656  0.0357  0.1723  0.0690
16714W        W33188   2.476   0.793   5.107  0.1844  0.0243  0.0535
16715W        W33189  13.920   6.558  14.670  0.1554  0.0932 -0.2163
16716W        W33190   2.384   6.288   2.644  0.2525 -0.1254 -0.2898
16717W        W33191  14.133  14.266   0.525  0.1800 -0.0233 -0.1662
16718W        W33192   8.141   5.811   2.191  0.2705 -0.0881  0.1785
16719W        W33193   6.414   6.300  11.959 -0.0152  0.1516 -0.1803
16720W        W33194   9.883  18.591  11.321  0.0895 -0.0685  0.1243
16721W        W33195   8.228   8.862  10.468 -0.1621  0.2896  0.3011
16722W        W33196  10.773  15.198   3.729 -0.2515  0.1406  0.1497
16723W        W33197  12.590   3.072  14.039 -0.1444  0.0041 -0.1218
16724W        W33198  12.356   1.551  14.468  0.0059  0.2849 -0.0847
16725W        W33199   7.174  17.442  10.948 -0.0490  0.0469 -0.1704
16726W        W33200   3.298   2.651  10.685 -0.0318 -0.0024  0.4223
16727W        W33201  16.943  12.465  11.692  0.0202  0.2843  0.3828
16728W        W33202  15.241  10.767  13.539 -0.0637  0.0607  0.0933
16729W        W33203   0.905  17.131  14.994 -0.0195 -0.3308  0.0160
16730W        W33204  10.388   6.522  12.860  0.0151  0.2989 -0.1573
16731W        W33205   1.886  16.084   0.357 -0.0322 -0.0383  0.2584
16732W        W33206  11.266   3.560   3.377  0.0202  0.2093  0.2462
16733W        W33207  14.463  10.921  14.617  0.0015  0.0906  0.0340
16734W        W33208  17.967   7.671  14.102  0.0664 -0.1673 -0.1517
16735W        W33209  17.201   6.463   4.473 -0.3390  0.3473 -0.2995
16736W        W33210   3.297  15.687   2.805  0.0766  0.0483  0.1991
16737W        W33211   0.464  11.003  12.112 -0.3334 -0.0076  0.2056
16738W        W33212  12.179  10.265   0.073  0.2765  0.3033 -0.3241
16739W        W33213   2.854   7.772   0.733  0.1203  0.1867  0.0366
16740W        W33214   6.899   2.048  13.109 -0.0440 -0.0908 -0.1067
16741W        W33215   5.789   0.884   4.909  0.0580  0.1923  0.1905
16742W        W33216  18.639   5.372   1.811 -0.5636 -0.1417  0.1967
16743W        W33217  18.674   8.011  13.626 -0.1336 -0.2723 -0.3897
16744W        W33218   7.340  17.608   1.953  0.0795  0.2133 -0.2183
16745W        W33219   2.312   4.463  14.213 -0.2687  0.0154  0.0254
16746W        W33220  18.024   0.869   4.714 -0.1386 -0.2326 -0.0335
16747W        W33221   4.241  10.985  11.234 -0.1408 -0.1407 -0.1553
16748W        W33222   6.391  12.553   0.163  0.2978 -0.2767 -0.2846
16749W        W33223  16.798  17.489   4.223 -0.2733 -0.1079  0.0478
16750W        W33224  14.754   9.050   1.968  0.1099  0.1270  0.1514
16751W        W33225   2.969   4.084   5.532  0.0271 -0.0562 -0.1973
16752W        W33226   5.107  15.513   3.502 -0.2408  0.2041  0.1249
16753W        W33227   4.636   6.244   2.136 -0.0519 -0.1097 -0.0890
16754W        W33228   7.455  10.588  13.876 -0.0287 -0.2444 -0.0068
16755W        W33229  13.930  18.949  14.027 -0.0719  0.0134  0.0904
16756W        W33230   0.328  10.759   0.851  0.0641  0.0936  0.1017
16757W        W33231   7.976  16.347  11.256  0.0900  0.0456  0.3711
16758W        W33232   0.615  13.808  12.255 -0.0543 -0.1307 -0.2370
16759W        W33233   6.664   9.592  13.961 -0.1632 -0.0162 -0.0027
16760W        W33234   5.798  13.667   2.530 -0.1646  0.3979  0.1400
16761W        W33235  17.954  14.673  14.352 -0.1554 -0.0878  0.0292
16762W        W33236  10.429  16.878  13.373  0.1089  0.1200  0.2012
16763W        W33237   5.863  13.496   1.711 -0.0544 -0.0510 -0.0028
16764W        W33238  15.493   0.865   1.235  0.3345 -0.0393  0.2270
16765W        W33239   2.678   6.122   4.287 -0.2555 -0.1327 -0.1326
16766W        W33240  13.196   8.975   0.727  0.1007  0.1091  0.0303
16767W        W33241  13.123  10.861   4.396 -0.0550  0.3897  0.1013
16768W        W33242  14.599  19.091  10.856  0.2749  0.2746 -0.5058
16769W        W33243   0.211   7.619   0.151  0.1190  0.1184 -0.0854
16770W        W33244  13.966  16.329  13.106  0.1577 -0.1260 -0.1614
16771W        W33245   7.470   4.851  10.703 -0.0708 -0.2789  0.0251
16772W        W33246  14.591   2.186   0.247 -0.1229  0.0820 -0.0595
16773W        W33247  14.572  18.515   3.863  0.1046 -0.0289 -0.0339
16774W        W33248  10.869   4.400   4.957 -0.0541  0.1568  0.0451
16775W        W33249   2.491  17.767  13.453 -0.0727 -0.1325  0.0070
16776W        W33250   9.578   0.113  11.807 -0.4640  0.0567 -0.0584
16777W        W33251   2.127   9.510  12.718  0.2639 -0.0304  0.2296
16778W        W33252  15.530  10.572  10.650 -0.0490 -0.1293  0.1067
16779W        W33253   4.511  13.424  13.124  0.2815 -0.3065  0.1046
16780W        W33254   5.981   3.061   5.452 -0.2167 -0.0869 -0.3479
16781W        W33255  18.641   7.617  12.076 -0.0565 -0.2336  0.2207
16782W        W33256   9.424   5.541   3.513 -0.2262 -0.2725  0.1504
16783W        W33257  14.945  14.842   4.623 -0.1102 -0.1860 -0.1799
16784W        W33258   8.490   7.568  12.847 -0.1103 -0.0799 -0.1475
16785W        W33259   9.537  17.651   1.587 -0.2638 -0.0680 -0.0911
16786W        W33260  15.546  11.662   1.246 -0.4824  0.2498 -0.1913
16787W        W33261  18.062  12.974   2.143 -0.2889 -0.4231  0.1619
16788W        W33262  10.415  10.982   4.935  0.0065  0.0579  0.1501
16789W        W33263   0.551   1.395   4.152  0.0384  0.1975 -0.0139
16790W        W33264  17.700   4.531  12.206 -0.2213  0.2776 -0.3197
16791W        W33265   0.186  14.016  12.505 -0.0051 -0.0484 -0.1186
16792W        W33266   2.896   2.327   5.811  0.1210 -0.0438  0.0094
16793W        W33267   5.617  19.102  13.081  0.3478 -0.0274 -0.0410
16794W        W33268  13.995   8.203   4.303  0.2169 -0.0090  0.1690
16795W        W33269   0.785   6.762   4.713 -0.0326 -0.0179  0.2309
16796W        W33270  13.615   6.966   0.266  0.2545  0.1483  0.2190
16797W        W33271  10.922  17.923  11.718  0.2122 -0.2810  0.0507
16798W        W33272   5.053  16.568  10.341 -0.0128 -0.0566 -0.2335
16799W        W33273  18.233   4.695  13.720 -0.0279 -0.1591 -0.3799
16800W        W33274   8.502   2.142   9.900 -0.1361 -0.0547 -0.1594
16801W        W33275   2.633   0.723   3.163  0.3929 -0.1660  0.0758
16802W        W33276  17.465  13.311  14.243  0.2201 -0.0158 -0.0304
16803W        W33277   7.723  11.111  11.835  0.0731 -0.1491 -0.1990
16804W        W33278  11.343   0.528  14.779 -0.1802 -0.1380  0.3318
16805W        W33279  14.221  12.572   5.053  0.0507 -0.0645  0.1145
16806W        W33280   0.323   5.227   0.623  0.1609 -0.0249  0.2180
16807W        W33281   5.815  14.635  13.705  0.0058 -0.2703 -0.2988
16808W        W33282   3.442   8.556   4.591 -0.3710 -0.1566  0.0601
16809W        W33283   2.414   7.059   4.863  0.1987  0.0621  0.1516
16810W        W33284   4.221  13.093   3.813 -0.0047  0.0856  0.4012
16811W        W33285  11.394   3.334  12.737 -0.0403 -0.1218 -0.2483
16812W        W33286  14.296   0.435   2.125 -0.0426 -0.0237  0.0010
16813W        W33287  12.698   8.033   5.638 -0.2043 -0.1962  0.0696
16814W        W33288  12.850   0.718   3.636 -0.0543  0.0493 -0.2007
16815W        W33289   9.804   5.343   3.926 -0.1542 -0.1480 -0.0360
16816W        W33290   9.660  16.217   2.947 -0.0213 -0.0337 -0.3883
16817W        W33291  10.924   1.344  13.915 -0.0790 -0.0502  0.1005
16818W        W33292  10.200   2.557  13.350  0.2172 -0.0563  0.1572
16819W        W33293  16.112  12.563   0.275 -0.0605  0.2676  0.0469
16820W        W33294   5.267   7.220  11.833 -0.1844  0.0073 -0.2644
16821W        W33295  10.824  14.878   1.500  0.0966 -0.3981 -0.0686
16822W        W33296  13.933   6.022  11.806  0.0225 -0.1230 -0.0893
16823W        W33297  10.055   7.463  12.713  0.1645 -0.3212  0.1647
16824W        W33298  14.103   1.231   3.791 -0.0735 -0.0763  0.1720
16825W        W33299   5.746  15.715   4.418 -0.2719  0.1857 -0.2308
16826W        W33300   6.410  18.637   5.352 -0.1870  0.3015  0.0681
16827W        W33301   7.738   8.875   9.862  0.4130  0.1750 -0.2042
16828W        W33302  10.714   9.308  11.378 -0.0169  0.3746  0.1560
16829W        W33303  10.964  16.079  13.127  0.0020  0.2649  0.1428
16830W        W33304   0.997   8.514  14.168  0.0232  0.2479 -0.5971
16831W        W33305   6.657   5.994  12.942 -0.0927  0.0145  0.0333
16832W        W33306   0.714   7.712  11.440  0.1271  0.3385  0.0994
16833W        W33307  12.112  14.746  13.644  0.1845  0.0008  0.2426
16834W        W33308   4.011   2.083   2.248  0.1479  0.1851 -0.0919
16835W        W33309  19.099  16.502   2.086  0.0964  0.1399 -0.1686
16836W        W33310   1.219  17.969  12.926  0.0121 -0.1821  0.1051
16837W        W33311   4.917   4.615  13.916  0.3922  0.2379  0.0230
16838W        W33312  15.635   8.182  12.082  0.2015  0.0600 -0.1009
16839W        W33313   8.081   5.548   3.755  0.1918  0.0835  0.2017
16840W        W33314   2.430   7.407  13.222 -0.1634 -0.0694  0.2521
16841W        W33315   9.919  18.331   1.291 -0.1287  0.2065  0.2231
16842W        W33316   2.464   9.666   2.929 -0.1505 -0.1148 -0.0311
16843W        W33317   7.658  13.367  14.570 -0.0214 -0.0082 -0.1067
16844W        W33318   5.586   2.259  13.548  0.3416 -0.1993  0.1778
16845W        W33319  12.014  11.617  10.195  0.0256  0.0517  0.0186
16846W        W33320   7.455  15.544  12.733  0.4300  0.2291  0.0659
16847W        W33321   3.593  16.232  14.587 -0.1528  0.1628 -0.0432
16848W        W33322  15.505  12.871   3.476 -0.0451 -0.1080  0.1216
16849W        W33323  11.336  13.685  12.915  0.4763 -0.1780 -0.1893
16850W        W33324  17.896   1.425  10.408  0.0074 -0.1127  0.2855
16851W        W33325   4.528   7.594  10.497  0.1994 -0.2526  0.0826
16852W        W33326   7.242   6.299   2.556 -0.2855  0.1099 -0.1855
16853W        W33327  17.811   6.329  12.904  0.2584 -0.0327  0.2048
16854W        W33328   3.419  15.641  10.954 -0.0279  0.0715  0.1464
16855W        W33329  17.327   7.021   2.336 -0.0981  0.1879 -0.0958
16856W        W33330   5.975  19.092   0.632 -0.0262  0.1552 -0.2087
16857W        W33331   5.414   5.680   2.386 -0.2495 -0.1106  0.0085
16858W        W33332  10.765  18.672  11.990  0.0817 -0.4383  0.2150
16859W        W33333   2.170   9.442  14.640 -0.1157  0.1011 -0.1342
16860W        W33334  18.521   9.974   1.572 -0.0319  0.1001 -0.2760
16861W        W33335  15.859  14.574   2.084  0.0345  0.0009 -0.0467
16862W        W33336   2.803  15.713  14.417  0.0165 -0.1620  0.1339
16863W        W33337   0.119  12.015  12.412 -0.0780 -0.0944 -0.1426
16864W        W33338   9.024   3.340  14.080 -0.0792 -0.0256  0.1544
16865W        W33339  12.115  17.806  13.416  0.2932 -0.3703  0.2381
16866W        W33340  16.839  18.188  12.329 -0.1219 -0.0187  0.2536
16867W        W33341   2.302  15.849  14.482 -0.0393 -0.0692  0.0817
16868W        W33342   7.276  17.974   2.289 -0.1808 -0.2643 -0.3919
16869W        W33343  11.533   9.790  12.259 -0.2960 -0.0551  0.2468
16870W        W33344   2.076   5.366   3.356  0.2523 -0.0129 -0.0755
16871W        W33345   9.738   0.214   0.979  0.0033  0.2104  0.3125
16872W        W33346   5.721   7.034   4.095  0.2331  0.0176  0.1564
16873W        W33347   3.232  11.010  13.074  0.1399  0.1075 -0.2099
16874W        W33348  16.714   3.935   3.709  0.0656  0.2837  0.1124
16875W        W33349  10.128   7.900   3.942 -0.4875 -0.2044  0.1938
16876W        W33350  17.630   6.862   1.970 -0.1722  0.1923  0.3620
16877W        W33351  10.394   9.249   5.680  0.0035 -0.1992 -0.2891
16878W        W33352   8.307  10.736   2.616 -0.0885  0.0734 -0.2775
16879W        W33353  15.509   0.891  11.159  0.0088 -0.0057  0.1274
16880W        W33354   0.588   1.349   3.544  0.1576 -0.1857  0.0554
16881W        W33355   5.019  16.329  11.637  0.0276  0.0049  0.0238
16882W        W33356   0.796  13.702  13.252  0.0271  0.1067  0.0055
16883W        W33357   6.999  11.879   1.791 -0.0014 -0.0841  0.3599
16884W        W33358  12.839   5.637   4.848 -0.1474 -0.1436  0.1052
16885W        W33359   5.332   3.388   1.282 -0.1031 -0.1275 -0.1163
16886W        W33360  12.007  14.517  14.465  0.2356 -0.1107  0.1509
16887W        W33361   5.632   2.622  11.440 -0.0420 -0.0540 -0.4490
16888W        W33362  11.259   8.738   4.288  0.0152 -0.0504 -0.0922
16889W        W33363  15.453  12.024   4.887  0.1545  0.0928 -0.0944
16890W        W33364  12.296  17.694   4.793 -0.4176 -0.1468  0.1143
16891W        W33365   0.263  11.206   0.013 -0.1829  0.0156 -0.0024
16892W        W33366  12.341   2.158  14.587 -0.1727 -0.5423  0.1912
16893W        W33367   7.720   2.460  14.745 -0.0262  0.1567 -0.3054
16894W        W33368  10.016   0.631  12.385 -0.1045  0.0360 -0.2071
16895W        W33369  12.169  16.751  10.118 -0.1217  0.1739  0.1302
16896W        W33370  15.289   9.758   2.980 -0.1948  0.4512 -0.1430
16897W        W33371  18.929   2.970   4.055  0.1435  0.0514  0.2268
16898W        W33372   7.391  12.938  14.596  0.2346 -0.0566  0.2968
16899W        W33373   8.838   8.300  12.557 -0.0182  0.0271 -0.1195
16900W        W33374   9.236  15.323   2.298  0.4637  0.0645 -0.1056
16901W        W33375   5.853  11.629   0.716  0.2969  0.0293  0.0881
16902W        W33376  18.815   6.768  10.282 -0.2263  0.2839  0.1436
16903W        W33377  14.106  12.807  14.970 -0.0503 -0.1149 -0.0964
16904W        W33378  10.202  18.484   1.681  0.1705 -0.2682 -0.0179
16905W        W33379  12.245   6.437  13.336  0.1056  0.0364 -0.0591
16906W        W33380  10.870   7.849  14.243  0.3985 -0.1845 -0.0302
16907W        W33381  18.312  14.624   0.087 -0.3895  0.0875 -0.1839
16908W        W33382  10.474  17.046  14.171 -0.2831 -0.1901 -0.2847
16909W        W33383   3.654  10.652  14.428 -0.1648 -0.3130  0.1797
16910W        W33384  14.596  11.723  13.473  0.1023  0.0248 -0.0960
16911W        W33385  10.207  15.380  15.116  0.0300 -0.2090 -0.3915
16912W        W33386  11.745   2.292  15.103 -0.1595  0.0568 -0.0877
16913W        W33387   7.891  15.466   1.923  0.2658  0.2768  0.7985
16914W        W33388   7.132   1.884   5.471 -0.2652 -0.0556  0.2035
16915W        W33389   8.155  12.513   0.591  0.0830 -0.2041 -0.1113
16916W        W33390  10.915  14.264   4.964 -0.0680  0.0843 -0.0191
16917W        W33391  12.376   0.481   5.046 -0.0249  0.0495 -0.0018
16918W        W33392  18.201   2.934  14.692 -0.1259  0.1251 -0.0773
16919W        W33393  11.605  18.496  13.359 -0.1068  0.1978  0.0461
16920W        W33394   2.483   9.409  13.300  0.0351 -0.2703 -0.1645
16921W        W33395   5.569  18.153  14.797  0.0900  0.1028 -0.1330
16922W        W33396  10.026  13.431  10.837  0.1638 -0.2156  0.0014
16923W        W33397  15.857   4.421   0.894 -0.6014  0.0292  0.2501
16924W        W33398   7.675   6.232   1.557  0.0156  0.0311  0.0284
16925W        W33399  10.823  16.931   6.095  0.2472  0.0713  0.0294
16926W        W33400  17.020  17.534   3.740  0.2402  0.2379  0.2093
16927W        W33401   9.829   8.318   3.658  0.0269  0.2659  0.0962
16928W        W33402   6.707  15.661   4.362 -0.0896 -0.1326  0.1435
16929W        W33403   6.073  10.900   2.347  0.1435  0.0908  0.0689
16930W        W33404  17.349   9.483   1.978  0.0067 -0.2707 -0.2254
16931W        W33405   8.655   2.106  14.699  0.1540  0.0900 -0.0793
16932W        W33406   5.040   7.848   1.473  0.0947  0.1193  0.2649
16933W        W33407   1.199  11.877  11.628 -0.3176  0.1032  0.0295
16934W        W33408   4.190   2.105   5.594 -0.2460 -0.0002 -0.0088
16935W        W33409   5.679   2.482  11.926 -0.1528 -0.0250 -0.0108
16936W        W33410   8.448   2.037   0.259 -0.0707  0.0315 -0.1253
16937W        W33411  15.759   8.875  10.966 -0.1376  0.2432 -0.0536
16938W        W33412   1.840  13.122  13.840  0.0008 -0.0355  0.2009
16939W        W33413  12.185   7.826  15.068 -0.0286  0.0827 -0.1466
16940W        W33414  13.359   7.223   5.205  0.0648 -0.1761  0.0160
16941W        W33415   3.505   8.893  14.212 -0.0232  0.0912 -0.1194
16942W        W33416   1.158  18.380   2.469 -0.1106 -0.2523  0.2671
16943W        W33417   8.876   1.563  10.573 -0.0526  0.4502  0.0923
16944W        W33418  10.490   7.543   0.030 -0.3650  0.2950  0.3202
16945W        W33419  13.886  17.376  13.113  0.3341  0.0461  0.2549
16946W        W33420   2.517  15.140  11.651 -0.1896  0.1315 -0.0067
16947W        W33421  17.683   3.238  10.570 -0.3089  0.0522 -0.1384
16948W        W33422   8.000  10.005  11.831  0.1081 -0.1489 -0.0083
16949W        W33423  15.514   4.289  12.738 -0.3130  0.3359 -0.1561
16950W        W33424   5.442  16.741  12.379  0.3733  0.1310 -0.1260
16951W        W33425   0.082  11.505   0.701 -0.0545 -0.0715  0.0510
16952W        W33426  12.836   3.937   0.696 -0.0350  0.3157 -0.1541
16953W        W33427  16.499   3.733  11.628  0.2325 -0.1546 -0.0747
16954W        W33428  15.434  15.846   0.595  0.3844  0.0524 -0.1449
16955W        W33429   3.822  12.936   3.532  0.0944 -0.2581  0.0663
16956W        W33430   6.901   2.788   9.621 -0.1116 -0.0495 -0.0727
16957W        W33431  16.874   4.531  11.880  0.0497 -0.1148 -0.1002
16958W        W33432  10.145  16.382  13.646  0.5242  0.2864  0.0825
16959W        W33433   1.729  13.009  11.607  0.0764  0.0513 -0.0067
16960W        W33434   2.547  15.810   4.119  0.0108 -0.1548  0.0422
16961W        W33435  19.136  10.897  12.249  0.0785 -0.1068  0.2281
16962W        W33436  11.382  13.057   0.350 -0.3092  0.2625 -0.1267
16963W        W33437   1.517  15.766   3.353  0.1111  0.0840  0.1279
16964W        W33438  13.763   0.890  10.492 -0.1419  0.3385 -0.0047
16965W        W33439   1.030   1.776   4.875 -0.1108 -0.0784 -0.0349
16966W        W33440   0.044   1.307  14.921  0.0352  0.2287 -0.1633
16967W        W33441  10.597  16.020   9.726  0.0573 -0.0617 -0.1377
16968W        W33442   8.897   1.127  14.630  0.2646  0.0920  0.1482
16969W        W33443  15.462  11.038  14.325 -0.2165 -0.1831 -0.0297
16970W        W33444  16.369  17.873   2.408 -0.0648 -0.2138  0.0874
16971W        W33445   5.593  15.010  13.989  0.0312  0.2065  0.2863
16972W        W33446   8.640  10.838  11.231 -0.2654 -0.0074  0.0092
16973W        W33447  16.033  16.457  14.031 -0.0269  0.0466  0.0580
16974W        W33448  12.981  14.125   1.166 -0.3841  0.1172  0.3504
16975W        W33449   8.135   3.717   5.140  0.2308 -0.1460 -0.0122
16976W        W33450   9.794   0.251   2.010 -0.2231  0.2056 -0.1316
16977W        W33451   8.364  12.631   2.637 -0.0957  0.4059 -0.2275
16978W        W33452   6.239   3.965   2.423  0.1611  0.1536 -0.1802
16979W        W33453   7.077   3.805  14.107 -0.1060 -0.0542 -0.1751
16980W        W33454   8.100   8.693  11.920  0.0285 -0.1125  0.2168
16981W        W33455  16.938   5.053  11.145 -0.2808 -0.3707  0.1184
16982W        W33456  11.491   1.291   4.662 -0.0879  0.1574 -0.1337
16983W        W33457   0.033  16.041  12.406  0.0448 -0.0447 -0.3764
16984W        W33458  17.342  15.481  14.640  0.1316  0.0129 -0.2133
16985W        W33459   3.617   9.352   1.247 -0.1153 -0.0853 -0.2539
16986W        W33460  13.865  10.296   1.076 -0.0089  0.1218  0.0052
16987W        W33461   3.982   6.866   1.266 -0.0531  0.0268 -0.0100
16988W        W33462  18.110   5.011  11.555 -0.2677  0.1941 -0.0159
16989W        W33463   0.199  17.665   0.842  0.0229 -0.2442  0.2907
16990W        W33464  14.747  17.323   5.266  0.0814  0.0440  0.1881
16991W        W33465   5.936  13.210  12.608 -0.1097  0.2053  0.0809
16992W        W33466  18.856   7.265  11.549  0.3170  0.1803  0.1794
16993W        W33467  15.898  13.469  12.380 -0.0587 -0.1017 -0.1515
16994W        W33468  15.889   1.976   2.214  0.1435 -0.1856  0.0744
16995W        W33469  15.393  12.097  12.178 -0.2365 -0.0146  0.1727
16996W        W33470   6.761   5.233   5.296  0.1660  0.2321 -0.1347
16997W        W33471   2.661   9.774  14.670 -0.1734 -0.0802  0.0602
16998W        W33472  17.731  18.076   1.970 -0.2108  0.4418  0.1648
16999W        W33473  11.319   8.847  14.909 -0.0277 -0.1803  0.2532
17000W        W33474  16.341   6.999   4.534 -0.0777  0.1324 -0.3867
17001W        W33475   7.418  17.769  14.273  0.2463 -0.0752 -0.3222
17002W        W33476   1.246  18.575  11.768  0.0631 -0.0296 -0.3333
17003W        W33477  11.869  13.293   2.542 -0.0796  0.3019  0.1257
17004W        W33478  13.463   6.126  12.115 -0.1345 -0.1905 -0.2754
17005W        W33479  14.111  14.705   4.025 -0.0925 -0.2045 -0.2102
17006W        W33480  16.377  18.161  12.149 -0.1045  0.1275 -0.0161
17007W        W33481  13.569  17.970   1.776 -0.0351 -0.2832 -0.2645
17008W        W33482   9.987  16.435  14.306  0.2367  0.0453  0.0013
17009W        W33483   8.196   5.225   1.392  0.1359 -0.0363 -0.0522
17010W        W33484   1.086   7.228   2.880  0.0781 -0.1432  0.1495
17011W        W33485   0.355  17.828  11.957  0.0530 -0.0145  0.0094
17012W        W33486   2.927  14.867  11.522  0.1755  0.0779 -0.2581
17013W        W33487   3.378   0.757   2.294  0.3909  0.0195 -0.1497
17014W        W33488  18.467   2.348   0.100  0.0309 -0.1203  0.2439
17015W        W33489   5.424  12.021   4.539  0.0032  0.1951  0.3158
17016W        W33490   7.156  15.080   0.056 -0.0354  0.1687 -0.2941
17017W        W33491  11.839   6.160   1.069 -0.2208  0.3142 -0.5595
17018W        W33492  12.034   4.319   4.427 -0.1615 -0.4095  0.0828
17019W        W33493  17.219   1.264  10.951  0.3854 -0.1535 -0.1119
17020W        W33494  13.362   1.895   4.229 -0.0652 -0.6139  0.0141
17021W        W33495  15.398  14.057  10.270 -0.1617 -0.1700 -0.0965
17022W        W33496   4.116  10.099  14.353 -0.0337  0.0037 -0.0115
17023W        W33497  11.332   0.279  14.335  0.2296  0.0739  0.0811
17024W        W33498   4.224  12.268   3.136  0.2464  0.0552  0.1661
17025W        W33499  16.613  15.612   2.060 -0.0708  0.1672 -0.1309
17026W        W33500  16.188  11.106  13.511  0.1978 -0.2372 -0.2482
17027W        W33501   8.980  13.331   2.040  0.3861  0.0089 -0.1828
17028W        W33502   5.597   7.606  14.294  0.0055  0.1795  0.0999
17029W        W33503   3.423   9.996   2.940  0.1318 -0.0898 -0.0682
17030W        W33504   1.253   6.926  11.139  0.1101  0.1131  0.0962
17031W        W33505   6.718   4.974   4.845 -0.2887  0.1641  0.1961
17032W        W33506   6.843   8.039   3.747 -0.2428  0.0629  0.0359
17033W        W33507   4.643   1.736   4.220 -0.1092  0.1197  0.2559
17034W        W33508   3.322  13.654  11.356  0.1880 -0.1058  0.1053
17035W        W33509  14.605   2.768  11.084 -0.0626  0.1468  0.2803
17036W        W33510  17.782  11.038  13.941 -0.4468 -0.1025  0.0775
17037W        W33511   3.074  10.263  10.285  0.1639  0.2359 -0.2526
17038W        W33512   5.467  15.925   0.998  0.0230 -0.0045  0.2705
17039W        W33513   7.891  16.960  12.374 -0.2809 -0.2332 -0.1629
17040W        W33514  10.873   5.386  11.494  0.2747  0.0650 -0.1726
17041W        W33515   1.662   2.666   3.337  0.1522 -0.3936 -0.2746
17042W        W33516   5.083  13.910  14.500 -0.2346  0.1516  0.0332
17043W        W33517   8.464   3.241   4.483  0.1124 -0.0436 -0.1658
17044W        W33518  15.216   9.101  12.207  0.1591  0.0594  0.3652
17045W        W33519   9.122  18.748  10.503  0.1794 -0.0701 -0.0916
17046W        W33520  18.182  10.592  11.191  0.3349 -0.1749 -0.1681
17047W        W33521   2.611  16.877  13.805  0.1790 -0.1997 -0.0011
17048W        W33522  11.826   3.809   1.322 -0.2326  0.0964 -0.1307
17049W        W33523   6.696   6.360  11.527 -0.0565  0.1884 -0.2168
17050W        W33524   4.585   9.737   0.546  0.0537  0.0618 -0.1760
17051W        W33525  11.383  14.012  12.021  0.1530  0.1038 -0.2152
17052W        W33526  17.281   8.178   3.109 -0.0682  0.0934 -0.0936
17053W        W33527   9.853  13.069   0.343  0.1245 -0.0588 -0.1464
17054W        W33528  17.334  16.784   4.659 -0.2135 -0.0621 -0.0789
17055W        W33529  16.297  13.431   4.054 -0.2065  0.2280 -0.1124
17056W        W33530   1.635   0.364   1.143 -0.1709 -0.4832  0.1162
17057W        W33531   2.371   2.153   2.288 -0.0308  0.1280 -0.0691
17058W        W33532  18.738   0.729  10.695 -0.0077  0.1734  0.0637
17059W        W33533   3.881  12.937  11.754 -0.7132 -0.1739 -0.0482
17060W        W33534  17.936   2.273  13.540  0.0215 -0.1190  0.0784
17061W        W33535  10.888  15.546   0.631  0.1197  0.0328  0.0579
17062W        W33536  12.520  13.268   3.606  0.3571  0.1265  0.0109
17063W        W33537  13.232   2.253  12.378 -0.2764  0.1059  0.3171
17064W        W33538  12.239   8.341  10.358 -0.0491 -0.0088  0.3069
17065W        W33539   2.773  14.080  14.729  0.1023 -0.0534 -0.0801
17066W        W33540  11.001   0.435  12.067 -0.2331 -0.1989 -0.1779
17067W        W33541  14.640   3.336  11.855 -0.0322 -0.1434 -0.1185
17068W        W33542   3.083  16.514  14.513 -0.2371  0.0331 -0.1402
17069W        W33543   9.177  14.596  14.633 -0.1605  0.0691 -0.0133
17070W        W33544   4.152  13.931   3.879 -0.0626 -0.1031  0.2066
17071W        W33545   2.447   0.331  12.656 -0.3816 -0.0848  0.3685
17072W        W33546   1.660   5.683  11.325  0.0231 -0.0139 -0.0990
17073W        W33547   9.340  14.246   2.903  0.4341  0.1045 -0.0985
17074W        W33548  16.462  12.186   3.759 -0.1488 -0.1637  0.3360
17075W        W33549  16.482  10.719  10.832  0.2186  0.2352  0.1476
17076W        W33550  11.362  15.872   3.470 -0.0979 -0.0918  0.0523
17077W        W33551  17.532  11.408  14.852  0.1986 -0.0853 -0.0076
17078W        W33552  18.773  18.255  14.386  0.0817  0.0955 -0.0274
17079W        W33553  16.619   2.078  13.343 -0.2668 -0.1027 -0.0782
17080W        W33554  15.176  15.120   2.218  0.0348  0.0136 -0.0265
17081W        W33555   2.917  17.471  14.349  0.3313  0.2505 -0.2166
17082W        W33556   7.984  15.466  12.921  0.0835 -0.0351 -0.2454
17083W        W33557  11.757  12.813  14.042 -0.2185 -0.0986  0.2158
17084W        W33558  11.127  12.932  12.645  0.2582 -0.0364 -0.0734
17085W        W33559   1.680   7.571  11.815 -0.0590 -0.1297 -0.0380
17086W        W33560  12.594  18.780  14.248  0.4820  0.0202  0.1549
17087W        W33561  11.072   0.317   0.209 -0.2924  0.0387 -0.0032
17088W        W33562  14.785  19.073  10.389  0.1213 -0.1667  0.0113
17089W        W33563  14.352  18.944   4.829 -0.1686  0.0321  0.4040
17090W        W33564   9.505   7.829   2.225 -0.2434 -0.1663  0.0360
17091W        W33565  10.529   5.843   0.357 -0.2236  0.1209 -0.4650
17092W        W33566   6.546  15.712  13.896  0.1954  0.1105  0.1471
17093W        W33567   4.806   2.345   1.194 -0.0192  0.0908  0.0778
17094W        W33568  16.840   1.621   3.280 -0.0273  0.1850 -0.0311
17095W        W33569   9.576  16.598   4.070 -0.1042  0.0554 -0.1230
17096W        W33570  13.842  17.872  11.755  0.1303 -0.1889 -0.1019
17097W        W33571  10.087   8.246  12.509 -0.0234 -0.0003 -0.1098
17098W        W33572   6.613   0.908   2.490 -0.1379  0.0290  0.2665
17099W        W33573  19.119  13.385  10.166  0.3696  0.2211  0.0866
17100W        W33574  12.120  12.996   0.053  0.1597 -0.0404 -0.1995
17101W        W33575   2.812   5.299  11.810 -0.1820 -0.0529  0.1890
17102W        W33576   8.721   9.505  13.832  0.2167 -0.3036  0.1660
17103W        W33577   5.026   1.245  11.554  0.4013 -0.0664  0.1533
17104W        W33578   4.222  12.486  12.037 -0.1638 -0.5791 -0.0336
17105W        W33579   6.429   1.806   2.878  0.0778 -0.1153 -0.2493
17106W        W33580  16.385   4.253   3.277  0.3878  0.1434  0.0605
17107W        W33581  16.571  12.469   1.012 -0.1438  0.1733  0.0128
17108W        W33582  12.438  15.701  14.648  0.0887  0.2363  0.1166
17109W        W33583  13.296   5.957   0.257 -0.0597 -0.1167  0.0345
17110W        W33584   6.626   8.297   1.775 -0.1015 -0.0402  0.1734
17111W        W33585   1.129   6.778   5.510 -0.1765  0.1635  0.0097
17112W        W33586  12.782   3.232   2.106  0.1142 -0.0162 -0.3013
17113W        W33587   0.205  11.578   3.554  0.1584 -0.0628 -0.0745
17114W        W33588   2.841  16.283   2.875 -0.1570  0.1084 -0.1351
17115W        W33589   2.270  10.658  14.343  0.2389  0.0443  0.0826
17116W        W33590  17.269   5.136  12.210 -0.2778  0.0547 -0.2013
17117W        W33591   5.003  16.966  10.632 -0.1030 -0.2326 -0.0999
17118W        W33592  10.227   9.064  10.760  0.0133  0.0152  0.2373
17119W        W33593  17.714  12.786  12.198 -0.2894 -0.3444  0.3094
17120W        W33594   7.207   8.505   0.124  0.0952 -0.1173 -0.2146
17121W        W33595   9.109  10.883  10.761  0.0509  0.0976 -0.3165
17122W        W33596   0.118   7.891   4.949 -0.3055 -0.1705  0.0848
17123W        W33597   8.866   4.790   2.846  0.1583 -0.1419  0.1297
17124W        W33598   6.716  11.200   0.986  0.0660 -0.1215  0.2876
17125W        W33599   2.375  11.556   2.586  0.1974  0.1423  0.1576
17126W        W33600   6.895  12.131   3.109 -0.0492 -0.2356 -0.2225
17127W        W33601  17.663  12.499   0.223 -0.0942 -0.1097  0.0335
17128W        W33602  15.541  12.145  14.399  0.0630  0.4699 -0.0104
17129W        W33603  17.362  14.672   4.913 -0.2121 -0.1128  0.0572
17130W        W33604  11.831   5.845  12.653 -0.1298  0.2128 -0.2411
17131W        W33605   1.486  15.799   1.186 -0.0616 -0.0472 -0.1612
17132W        W33606   4.543  18.959   5.487  0.1108 -0.1074  0.2436
17133W        W33607  11.019  13.499   5.364  0.1744 -0.0767 -0.0282
17134W        W33608   5.445   0.728  10.672 -0.3711  0.0746  0.1671
17135W        W33609  15.229   7.042  11.359 -0.0945 -0.3656  0.0755
17136W        W33610  11.289  10.038   0.808  0.0742  0.0166  0.2206
17137W        W33611   0.912  10.970   0.995  0.1558  0.1084 -0.2190
17138W        W33612  12.287  18.786   4.451 -0.1665 -0.1180 -0.3454
17139W        W33613  12.705  11.700  14.206 -0.0962  0.3267  0.2009
17140W        W33614  14.717   1.909  14.686 -0.0563 -0.0409 -0.0310
17141W        W33615  14.457  14.600   9.477 -0.1448 -0.1327 -0.2035
17142W        W33616   3.354   0.983  13.084  0.0535  0.2929  0.1660
17143W        W33617   5.390  12.879   1.022  0.0360 -0.2067  0.0567
17144W        W33618   4.053  11.494  14.780 -0.1537 -0.1481 -0.0168
17145W        W33619  18.138   2.800  11.741 -0.2919 -0.0140 -0.2010
17146W        W33620  14.109   8.652   1.518  0.1899  0.2554 -0.1612
17147W        W33621   6.689   4.751   3.560 -0.1683 -0.0970  0.4407
17148W        W33622  18.688   0.767  13.483 -0.2498 -0.2325  0.1326
17149W        W33623  18.078   0.747  14.576  0.2527 -0.1387 -0.1735
17150W        W33624  12.217   2.555   2.540 -0.1012  0.1157 -0.0032
17151W        W33625   9.567   6.886  13.155 -0.2086 -0.2946  0.1373
17152W        W33626   0.969  17.043  12.563  0.0514  0.1329  0.2285
17153W        W33627  18.083  15.209  14.714  0.1189  0.2078  0.1212
17154W        W33628  17.989   5.697  10.251 -0.1811 -0.0505  0.1327
17155W        W33629  11.123   7.376   2.066 -0.1195  0.0347  0.3239
17156W        W33630   0.300  13.807   1.496 -0.0594  0.0059  0.1473
17157W        W33631   7.334  10.437   2.698 -0.1282 -0.0902 -0.3259
17158W        W33632  14.167   9.971   3.402 -0.1564 -0.2074  0.0063
17159W        W33633   2.188  13.872  12.790  0.2064  0.2682 -0.0900
17160W        W33634  16.395   2.652   0.638  0.0551  0.1358 -0.0824
17161W        W33635  15.533  13.812   3.109 -0.1510  0.0583 -0.2826
17162W        W33636  10.014  13.993  13.962 -0.0965 -0.0169 -0.2358
17163W        W33637   9.261  16.013   2.735  0.0777 -0.0213  0.0199
17164W        W33638   4.789   4.712   3.686 -0.1772 -0.2959  0.1428
17165W        W33639  13.478  17.480   4.206  0.3173  0.0255 -0.0345
17166W        W33640  12.066  16.893   0.035 -0.0304  0.2052  0.0757
17167W        W33641  17.457   8.670   1.667 -0.3419 -0.1018  0.0744
17168W        W33642   9.430   1.226  13.424  0.0010  0.1087  0.1732
17169W        W33643   3.069   7.838  13.995 -0.3031  0.1188  0.1400
17170W        W33644  11.219   9.273  11.479  0.2760 -0.0015 -0.1288
17171W        W33645  17.613   6.790  13.915  0.0782 -0.4342 -0.1254
17172W        W33646   5.459   9.297  14.930 -0.1721 -0.2620 -0.2184
17173W        W33647  12.286   5.929  12.506  0.1469 -0.0831  0.0662
17174W        W33648  14.265  15.601   3.055 -0.2080  0.0842  0.1325
17175W        W33649   0.840  14.187  13.261 -0.0587 -0.0950  0.0185
17176W        W33650   6.737   3.963   4.902 -0.0977  0.2877 -0.1871
17177W        W33651  17.617   5.382   1.358  0.2387  0.0916  0.1725
17178W        W33652   8.807  18.370   4.179  0.2701 -0.2399 -0.1110
17179W        W33653   1.282   8.053   0.871  0.1091  0.1061  0.0838
17180W        W33654   6.813   7.048  11.000  0.0358 -0.1699 -0.2339
17181W        W33655  16.308  14.377   3.923 -0.4228 -0.1503 -0.0221
17182W        W33656   6.783   8.796   1.868 -0.3048  0.0279 -0.0572
17183W        W33657   6.403   5.921  11.630  0.1155 -0.1177  0.0065
17184W        W33658  16.390   2.034   1.358 -0.0812 -0.2117 -0.0440
17185W        W33659  10.092   3.427  14.039  0.0571 -0.3735 -0.0138
17186W        W33660   2.271   6.949  11.592  0.5043 -0.1092  0.2235
17187W        W33661  16.874  10.097  14.929  0.0440 -0.0821 -0.0737
17188W        W33662   2.329   0.021  11.429 -0.3805  0.2535 -0.1220
17189W        W33663  16.549   5.524   4.771 -0.0813  0.0522  0.0630
17190W        W33664  13.178  18.154   0.448  0.0334 -0.0428 -0.0755
17191W        W33665   0.228   2.968   4.918 -0.3184 -0.2668  0.0723
17192W        W33666  10.222   6.889   2.694  0.0971  0.3201 -0.2073
17193W        W33667  11.917   9.011  13.043 -0.0825  0.2527  0.0295
17194W        W33668   9.023  15.976   3.171 -0.1445  0.0777  0.1853
17195W        W33669   8.896  16.833  12.832 -0.1339  0.2286 -0.0528
17196W        W33670   2.853   5.745   0.202 -0.0713 -0.0393 -0.1393
17197W        W33671  13.624   0.355   9.332  0.2223  0.3354  0.1220
17198W        W33672  18.081  10.651  15.099  0.2084  0.0348 -0.0435
17199W        W33673   3.758   2.842   5.267  0.2895 -0.0205  0.1532
17200W        W33674   0.322   0.129   1.564  0.4484  0.2160  0.0112
17201W        W33675   0.187   6.362  10.402  0.3837  0.0088  0.1901
17202W        W33676   9.927  18.995  12.206  0.0626  0.2356 -0.3198
17203W        W33677  12.707   6.773   3.795 -0.2262  0.1059  0.2388
17204W        W33678   2.563   7.312   0.700 -0.1335 -0.1615 -0.4245
17205W        W33679   0.719  13.000   1.860 -0.4426  0.1205  0.2276
17206W        W33680  15.234   6.092  10.760  0.0706  0.3181  0.0960
17207W        W33681  13.834   3.140  11.689 -0.1430  0.1350  0.2947
17208W        W33682   7.390  16.881  12.134 -0.0810 -0.0786  0.0284
17209W        W33683   5.150   7.391  14.423 -0.0858 -0.0924 -0.0041
17210W        W33684   2.121   2.448  13.190  0.1265 -0.2584  0.4987
17211W        W33685   8.513  11.629   0.974 -0.1456  0.2771 -0.4377
17212W        W33686  12.225  16.237  12.445 -0.0086  0.0714 -0.1106
17213W        W33687  12.432  10.624  14.915  0.0268  0.1093 -0.1264
17214W        W33688   4.388   9.389  10.600  0.2094  0.4828 -0.2623
17215W        W33689   7.113   4.719  14.978 -0.0355 -0.0605  0.1748
17216W        W33690   0.903   9.789   3.134  0.1250 -0.2944  0.1210
17217W        W33691   2.905   6.078  14.332  0.0325 -0.1673  0.0844
17218W        W33692  14.566   6.337   1.089  0.1895  0.1540  0.4262
17219W        W33693   9.835   9.707  12.473  0.0556  0.5391  0.5063
17220W        W33694   1.409  13.934   4.968 -0.1424 -0.1021  0.0523
17221W        W33695   8.492   3.576   3.076  0.0851  0.0667  0.0776
17222W        W33696  16.296   9.861   4.549 -0.0031  0.1051 -0.0681
17223W        W33697   8.666   3.983   0.209  0.2744  0.1266 -0.1898
17224W        W33698  11.845  12.052  10.304 -0.0019  0.3047  0.2667
17225W        W33699   4.219  14.703   2.419 -0.1811 -0.0758  0.2028
17226W        W33700   2.933   5.450   5.556  0.2078  0.1620 -0.2013
17227W        W33701   4.847   4.134  12.180 -0.0095 -0.1507 -0.2605
17228W        W33702  17.101  17.726  14.951  0.4909 -0.1760 -0.1085
17229W        W33703   6.068   7.408  14.424  0.1224  0.1071  0.0599
17230W        W33704  12.720   2.439  14.369  0.0599  0.0357 -0.0742
17231W        W33705  14.610   9.662  10.671  0.0641  0.2292  0.2882
17232W        W33706   7.388   9.969   0.226 -0.1706 -0.0499  0.2405
17233W        W33707  14.306  16.752   0.661 -0.2521 -0.0784 -0.3675
17234W        W33708  11.713  11.332   0.394  0.3970 -0.0437 -0.0906
17235W        W33709   1.360   7.428   3.655 -0.2775  0.1203  0.0913
17236W        W33710  17.073   4.283   0.398 -0.1956  0.2263 -0.0409
17237W        W33711   4.691  17.216  13.649 -0.3102  0.0950 -0.0112
17238W        W33712   7.505   1.638   5.805 -0.2402 -0.3615  0.0538
17239W        W33713  10.330   2.995   4.294 -0.2727  0.1715  0.0518
17240W        W33714  14.897  18.441   1.815  0.0571  0.1160 -0.3598
17241W        W33715   5.717   9.476   3.395 -0.0339  0.1895 -0.3148
17242W        W33716   2.440  18.137  15.129  0.1343  0.2142  0.0746
17243W        W33717  11.798   7.551  14.794  0.2685 -0.4477  0.0713
17244W        W33718   8.966   3.987  14.543 -0.1840  0.1523 -0.1078
17245W        W33719  18.448   7.930  14.944 -0.1864 -0.3065  0.1517
17246W        W33720   6.074   4.447  13.741  0.1027  0.1641 -0.0146
17247W        W33721  11.702  16.641  13.356 -0.1983  0.0628 -0.1437
17248W        W33722   5.855   6.527  14.646  0.0925  0.1386  0.0531
17249W        W33723   5.268   2.713  11.064 -0.0537  0.1222 -0.0256
17250W        W33724  13.775   9.892   4.806 -0.0604  0.1685  0.1451
17251W        W33725  15.717  18.142   3.240  0.0675 -0.3202 -0.2546
17252W        W33726   9.479  18.972   1.235  0.0506 -0.1383  0.2814
17253W        W33727  13.302   8.285   9.793 -0.2781  0.1650  0.0404
17254W        W33728  15.006   1.388   0.809 -0.0413 -0.1341 -0.0968
17255W        W33729  16.361   0.922  13.065 -0.2451 -0.0906  0.2766
17256W        W33730   8.629   5.180   4.523  0.1716  0.1625 -0.0041
17257W        W33731   3.393  10.391   0.932 -0.0481 -0.4023  0.0436
17258W        W33732  14.436   1.790  11.285  0.2116  0.2411 -0.1301
17259W        W33733   8.240   0.392  14.908 -0.0858 -0.2057  0.0441
17260W        W33734  11.324   7.184   5.921  0.4041 -0.0625 -0.4259
17261W        W33735   5.711  10.043   2.776  0.0576  0.2273 -0.2245
17262W        W33736  16.555   6.625  14.809 -0.0858 -0.0161  0.2209
17263W        W33737   3.705  12.022   4.509 -0.0803  0.2115 -0.1166
17264W        W33738  11.044   0.170  10.500  0.2719  0.0268 -0.1542
17265W        W33739   1.125   8.442  10.298  0.2597 -0.1267 -0.0030
17266W        W33740   7.045   4.390   2.033  0.2133  0.3767  0.1428
17267W        W33741   2.137   4.375   2.169  0.0920 -0.1008  0.2112
17268W        W33742   8.725  17.819  10.432 -0.1656  0.1154  0.0837
17269W        W33743  11.248  14.909   5.007  0.2753 -0.3478 -0.0020
17270W        W33744   4.994  16.552   4.247 -0.0481  0.0985 -0.3324
17271W        W33745   2.072  17.992   5.216 -0.3487 -0.1064  0.0479
17272W        W33746  14.603   2.859  13.683  0.0023 -0.0554  0.0057
17273W        W33747  12.037   6.229   2.057 -0.0409  0.2588 -0.0720
17274W        W33748   7.422   6.532   4.735 -0.2123 -0.3250  0.1215
17275W        W33749  11.609   7.665   2.109  0.1930 -0.0278  0.0050
17276W        W33750  14.279  10.729  11.020  0.1595 -0.0200  0.1899
17277W        W33751  13.516   8.084  14.681 -0.2288 -0.0359  0.0922
17278W        W33752   0.730   0.324   0.926 -0.2350 -0.2555 -0.1192
17279W        W33753   7.991   8.275  13.963 -0.0369 -0.0961  0.0266
17280W        W33754   0.948  13.259   5.495 -0.3054 -0.2363 -0.1419
17281W        W33755  17.884   2.357  13.047 -0.0051 -0.0480 -0.2585
17282W        W33756  12.736   8.567  13.084 -0.1468 -0.0204 -0.1365
17283W        W33757  14.843   5.676   3.422  0.1039  0.0975  0.0864
17284W        W33758  14.172  13.558   1.219 -0.0995  0.2100  0.2986
17285W        W33759   0.041   4.690  14.325 -0.3381  0.0248  0.2245
17286W        W33760  16.472  16.295   4.945  0.2026  0.0351 -0.1632
17287W        W33761  10.221  13.980  13.493  0.0286 -0.1038  0.1388
17288W        W33762   4.113  15.760   0.827 -0.0858 -0.1501  0.4068
17289W        W33763  15.867  14.348   0.807 -0.1137 -0.3470  0.2792
17290W        W33764  13.725   5.522  13.568 -0.0101 -0.1431  0.0443
17291W        W33765   8.207  11.370  11.823  0.3764 -0.0869 -0.0030
17292W        W33766   9.962  17.775  13.206  0.1065 -0.0388 -0.0497
17293W        W33767   9.414  16.532  15.098  0.1080 -0.0687  0.0412
17294W        W33768  15.075   7.544  11.172  0.0999  0.0608  0.2189
17295W        W33769   3.713   2.754   3.604 -0.0493  0.1291 -0.1633
17296W        W33770   1.478   8.971   4.488 -0.0374 -0.1539  0.1655
17297W        W33771   5.631  10.443   0.670 -0.0835 -0.1326  0.3265
17298W        W33772  17.452   1.610   1.678 -0.3800 -0.1049  0.0393
17299W        W33773  13.536  13.012  13.880 -0.1332 -0.1741 -0.3107
17300W        W33774  16.493   0.487   2.875  0.0095  0.0610  0.0644
17301W        W33775   2.083  16.851   4.502  0.1143 -0.0973  0.2665
17302W        W33776  11.422   1.153  10.377 -0.0537 -0.2353  0.2292
17303W        W33777  10.232   3.129  10.284  0.0948 -0.0095  0.0752
17304W        W33778   7.592  12.538  14.365 -0.1417 -0.0001  0.2384
17305W        W33779  14.891  10.655   4.687 -0.3121 -0.2245 -0.0516
17306W        W33780   7.791  10.714  11.416 -0.1337 -0.0532  0.0488
17307W        W33781  10.617   5.174  13.730 -0.0324  0.2605 -0.0155
17308W        W33782  16.888  13.871   0.503 -0.1733  0.1575  0.0941
17309W        W33783   8.046  18.077   0.916 -0.4132  0.0126 -0.2138
17310W        W33784  18.735   3.901   0.256 -0.2090 -0.0554 -0.4204
17311W        W33785  10.343  18.237   0.362  0.0927  0.0476  0.3289
17312W        W33786  18.638   8.447   4.253  0.2138  0.1853  0.1075
17313W        W33787   0.116   9.074   0.837 -0.1620  0.2247  0.1274
17314W        W33788  10.036  10.081   0.361 -0.1834 -0.2367 -0.0729
17315W        W33789  17.700  10.751   0.365 -0.1051 -0.2204  0.0137
17316W        W33790   3.337  12.129   1.151 -0.0392 -0.1757 -0.1328
17317W        W33791   3.858   8.812   9.521  0.1542 -0.2242 -0.1290
17318W        W33792   5.433   1.954  14.386 -0.1402  0.5619 -0.0188
17319W        W33793   8.367   7.041   3.000  0.2013  0.0381  0.1086
17320W        W33794  19.100   7.362   5.125 -0.0612 -0.4588  0.1473
17321W        W33795   5.257  10.161   0.330 -0.0953  0.0561  0.0617
17322W        W33796   1.736   5.072  11.608 -0.2376 -0.0317 -0.0292
17323W        W33797   3.798   7.652   0.846 -0.0593  0.3923  0.1248
17324W        W33798  17.877   1.724  13.522 -0.0505  0.0596 -0.0120
17325W        W33799  11.270  11.593   0.194 -0.1356 -0.1502  0.0428
17326W        W33800   3.118  16.886   3.860  0.0604 -0.0027 -0.0728
17327W        W33801   4.912   3.388  15.146 -0.0236 -0.0641 -0.0083
17328W        W33802  14.119   5.391   2.885  0.0445 -0.3069  0.0150
17329W        W33803  11.986  17.663  10.914  0.1517  0.0332  0.1876
17330W        W33804  16.826   4.140  13.221  0.2024  0.3714 -0.0383
17331W        W33805  11.708   2.436   3.969  0.1692 -0.0432 -0.0132
17332W        W33806   6.514  12.419   1.016 -0.4583  0.0035  0.0130
17333W        W33807  10.423  11.615   4.560 -0.0221 -0.0081 -0.0216
17334W        W33808  15.856   8.364  14.653  0.0972  0.0160 -0.0849
17335W        W33809  15.516  14.344   3.388  0.0246 -0.2608 -0.1177
17336W        W33810  10.393   8.295   1.925  0.1992 -0.0213  0.0464
17337W        W33811   2.098  17.688  12.072  0.2945  0.6024  0.0533
17338W        W33812   2.787   7.063   4.161 -0.0448  0.1906 -0.2210
17339W        W33813   2.673   5.779  10.317  0.0619 -0.4009 -0.0093
17340W        W33814  15.291   3.283   3.245  0.2687 -0.0052  0.0311
17341W        W33815   6.926   5.367   4.462 -0.0176  0.1156 -0.0348
17342W        W33816   8.659   6.020  11.090  0.0524  0.0034  0.1071
17343W        W33817  11.679  18.447  10.075  0.1049 -0.0130 -0.0883
17344W        W33818   9.808  14.180   1.684 -0.0587  0.0076  0.3144
17345W        W33819  12.557   5.638  12.175  0.1738  0.2285 -0.2501
17346W        W33820   2.801   9.971   2.051  0.0893  0.1651 -0.1885
17347W        W33821  14.798   4.774  14.527 -0.0067  0.1679  0.0623
17348W        W33822   5.719   8.265   3.081 -0.0521 -0.0909  0.1340
17349W        W33823  11.354   1.653   3.854  0.1452 -0.0552  0.2701
17350W        W33824   2.522  11.724  12.043  0.5151  0.3725  0.2289
17351W        W33825  18.785  14.736   4.434 -0.0896 -0.1772  0.0195
17352W        W33826   1.856  14.028  11.244  0.2907  0.1362  0.2706
17353W        W33827  10.195  16.466  13.180  0.0797 -0.3138  0.0095
17354W        W33828  10.602   5.037   2.264 -0.2800  0.3175 -0.1790
17355W        W33829   0.474   6.353  13.877 -0.3933 -0.1755  0.4156
17356W        W33830  10.336  17.745   1.638 -0.1854 -0.0105  0.2959
17357W        W33831   1.064   3.746   5.025 -0.0701  0.2677 -0.2010
17358W        W33832  13.201  18.296  14.466  0.1306  0.2587 -0.0238
17359W        W33833  15.607  10.029  10.145 -0.0992  0.0833 -0.1259
17360W        W33834   8.027  15.872  11.367  0.1234 -0.0249 -0.0329
17361W        W33835   3.996   4.746  13.432  0.1971 -0.1032  0.3079
17362W        W33836   9.314   5.737   1.883  0.0098 -0.1281 -0.0046
17363W        W33837  17.178  17.533   1.382  0.1068 -0.1084  0.1525
17364W        W33838  11.410   1.112  10.921  0.0563 -0.2359  0.0522
17365W        W33839   0.972   9.719  15.127 -0.4005  0.1096  0.1344
17366W        W33840   7.977   6.802  11.699 -0.2493 -0.2527 -0.1604
17367W        W33841  10.449   6.445   3.978 -0.1733 -0.0365 -0.0265
17368W        W33842  11.835   0.241   3.252 -0.0866 -0.0308  0.2695
17369W        W33843   6.943   0.819  14.576  0.0139 -0.0923 -0.0744
17370W        W33844  16.090   1.363  14.451 -0.0914  0.2185 -0.0125
17371W        W33845   6.537  16.269   1.103  0.0788  0.0358  0.0460
17372W        W33846   8.138   6.080  11.223 -0.0798 -0.0337 -0.0356
17373W        W33847  11.963   0.138  13.110  0.0303 -0.1761  0.3392
17374W        W33848  17.281  12.454   1.669 -0.0272  0.0329 -0.0429
17375W        W33849  13.854   0.232   1.029 -0.0083  0.0066 -0.0771
17376W        W33850  12.859   7.699   1.156  0.1690  0.2077  0.1840
17377W        W33851  10.398   6.778  12.165  0.1178  0.3292 -0.2625
17378W        W33852   6.916  10.823  10.881 -0.1888  0.0780 -0.0060
17379W        W33853   3.004  14.485   4.144  0.0947 -0.1285  0.0081
17380W        W33854   2.197  12.051   1.934 -0.0835  0.0945  0.2193
17381W        W33855  15.553  16.854  13.369 -0.0805 -0.0902 -0.1026
17382W        W33856   7.431   0.770   0.868 -0.0380 -0.0344 -0.2185
17383W        W33857  16.191   2.979   3.308  0.0299  0.2120  0.0862
17384W        W33858   6.031  16.404  15.134 -0.1979 -0.2124  0.2808
17385W        W33859  17.210   7.274   1.715 -0.0098  0.0306  0.1257
17386W        W33860   6.051   7.775  12.801 -0.1201  0.3112  0.2029
17387W        W33861  16.528  14.803  15.099  0.0045  0.0741  0.0741
17388W        W33862   0.777   3.946  14.239 -0.0011  0.2612 -0.1210
17389W        W33863   9.446  16.477   5.052 -0.0054  0.0560  0.2664
17390W        W33864   3.954  18.626   4.691 -0.1931 -0.0317  0.1799
17391W        W33865   5.724  15.945  12.042  0.0957 -0.3914  0.1867
17392W        W33866   6.409  15.409   0.503 -0.1228  0.4226 -0.0871
17393W        W33867  19.108   9.156   3.063 -0.0129 -0.1188 -0.0980
17394W        W33868   0.568   3.021   2.012  0.3881  0.3937 -0.1187
17395W        W33869   9.166   8.007   5.557 -0.1329  0.0172  0.0978
17396W        W33870   1.188   0.982  12.575 -0.3086 -0.1539  0.0262
17397W        W33871  17.804   9.875  12.545 -0.1976 -0.1275 -0.0501
17398W        W33872   2.413   3.002  12.508  0.0072  0.1554 -0.1692
17399W        W33873   5.854  10.497   4.059  0.1613  0.0757  0.1237
17400W        W33874  11.276  16.104   5.635 -0.3872  0.0336  0.3058
17401W        W33875   4.819   3.317   1.232  0.3028  0.0695  0.1300
17402W        W33876   2.598   6.929  12.577 -0.0445  0.0791  0.3283
17403W        W33877  11.864   8.202  14.108 -0.1150 -0.2602 -0.3163
17404W        W33878   3.602  14.904   1.391 -0.4780  0.0186 -0.1239
17405W        W33879   2.397   1.619  11.196  0.1380 -0.2002 -0.0232
17406W        W33880  11.277   2.020  12.309  0.0862 -0.3703 -0.3028
17407W        W33881  18.522  15.288   2.120 -0.3470  0.2152  0.1144
17408W        W33882   1.330   8.438  13.816  0.0049  0.0943  0.0247
17409W        W33883   0.388  13.109  13.330  0.0873 -0.1190  0.2884
17410W        W33884  10.619   8.578   2.843  0.0092  0.2183  0.2490
17411W        W33885   5.126   0.141   0.718  0.0663 -0.0618  0.1670
17412W        W33886  12.004   4.007   3.233 -0.3091 -0.2765  0.3040
17413W        W33887  18.554   8.571   2.607  0.4225  0.0830  0.0634
17414W        W33888  13.236  10.999  11.032  0.1382  0.0902 -0.2090
17415W        W33889   6.222   3.555  13.881  0.1215  0.0794  0.0855
17416W        W33890  12.204   0.753  14.344 -0.0629 -0.2607 -0.1510
17417W        W33891   2.468  16.488  11.571  0.1100 -0.1221 -0.3704
17418W        W33892   5.669  16.768   0.190 -0.1736 -0.1096 -0.0195
17419W        W33893  14.003  16.726  10.063 -0.1364 -0.0621  0.0118
17420W        W33894  10.205  17.190  15.054  0.1140  0.0200 -0.2592
17421W        W33895   7.825   2.444   2.956 -0.0480  0.0077  0.1997
17422W        W33896  14.220  11.580   0.513 -0.1120 -0.4988 -0.4373
17423W        W33897   4.894  15.998  11.926 -0.0426  0.0178  0.0003
17424W        W33898   3.804   6.856  10.872  0.1265  0.1586  0.0012
17425W        W33899  17.965  10.909  13.508  0.1760 -0.1370  0.2980
17426W        W33900   8.178   3.235  10.229 -0.1555  0.0368 -0.0007
17427W        W33901  12.517  10.351   1.459 -0.1448  0.0453  0.1269
17428W        W33902  10.327  18.311   3.270 -0.0317  0.1316 -0.0413
17429W        W33903   5.354   9.926  13.972 -0.1097 -0.0294 -0.3089
17430W        W33904   6.242   9.399   1.459 -0.0236 -0.0678 -0.2911
17431W        W33905   0.436   1.388   0.153 -0.0619 -0.0403 -0.3262
17432W        W33906   6.825  10.423   2.655  0.2218  0.2315  0.1860
17433W        W33907  17.319   4.061   2.966  0.0806 -0.0801 -0.2280
17434W        W33908   4.594  15.550   5.686 -0.1247  0.1756  0.1413
17435W        W33909  14.201  12.547   0.254 -0.0272  0.3519 -0.0844
17436W        W33910  10.463  13.480   4.161  0.0915  0.1516  0.1814
17437W        W33911   8.085  14.605   1.110 -0.2585 -0.1885 -0.0307
17438W        W33912   0.384  15.621   4.448 -0.1553 -0.0806  0.0102
17439W        W33913   5.656  16.883   1.267 -0.5416 -0.0341 -0.0332
17440W        W33914  16.089   3.593  12.280  0.2148  0.0168 -0.1421
17441W        W33915   9.971  16.964  12.124  0.0643 -0.0663  0.0563
17442W        W33916   6.293   5.169  12.845 -0.0258 -0.1205 -0.0108
17443W        W33917  18.741  16.742  13.803 -0.0239  0.4431 -0.0234
17444W        W33918   7.594   9.807   3.394  0.3162 -0.0047 -0.3216
17445W        W33919  11.379  14.894  14.911 -0.0614 -0.2079 -0.0207
17446W        W33920  18.185   3.214  10.990 -0.1515 -0.1957 -0.0622
17447W        W33921   3.205   2.117   6.120  0.0061  0.1956  0.0800
17448W        W33922   3.549  18.986   1.113  0.0946 -0.1030  0.1157
17449W        W33923   9.007  13.416   4.572  0.0130 -0.0974 -0.0775
17450W        W33924  11.725  11.510  13.942  0.0761 -0.0831  0.1169
17451W        W33925   7.692  14.363   0.880 -0.0901  0.1611 -0.0105
17452W        W33926   5.329   8.898   5.004 -0.0769  0.2622 -0.2071
17453W        W33927  12.749  12.083  14.555  0.1682  0.1141  0.3112
17454W        W33928  15.917  17.585   1.173  0.1336 -0.1618 -0.2419
17455W        W33929   3.031  16.994  14.704  0.1051 -0.4418  0.1260
17456W        W33930   5.645  17.820   0.063 -0.0406  0.3491 -0.0256
17457W        W33931   3.718  18.091  12.897 -0.1263  0.3032  0.1956
17458W        W33932   8.414  12.414   3.095  0.0539  0.4761  0.1575
17459W        W33933  14.988   3.720   3.322 -0.0837  0.0327 -0.2517
17460W        W33934  15.527   4.827  14.434  0.5306  0.2475  0.3062
17461W        W33935  15.153  16.251  14.037  0.0508  0.0848  0.0521
17462W        W33936  15.632  15.687  14.440 -0.0763 -0.0787  0.0448
17463W        W33937   0.493  16.240  10.971  0.1111 -0.3832 -0.1481
17464W        W33938  16.301   3.061  13.749 -0.0672 -0.0947 -0.1184
17465W        W33939  17.110  11.106  11.277 -0.4450  0.3817  0.1068
17466W        W33940   4.240  17.597   6.160  0.2896  0.0136 -0.2180
17467W        W33941   1.001   4.875   4.292  0.1959 -0.1283 -0.3822
17468W        W33942  13.241  12.610  12.565  0.1319 -0.0006  0.0798
17469W        W33943   9.705   8.169  13.525 -0.0873 -0.0944 -0.2923
17470W        W33944   0.496   6.318   3.150  0.0281 -0.2033  0.2355
17471W        W33945   1.523   2.779  11.488 -0.1661  0.1422  0.0380
17472W        W33946  14.272  15.006  11.268  0.0935  0.1232  0.0489
17473W        W33947  18.136  16.141  11.331  0.4205  0.3012 -0.1252
17474W        W33948   1.435   8.781  14.526  0.0844 -0.0765 -0.2055
17475W        W33949  12.685  17.106  12.149  0.2327  0.2545  0.0327
17476W        W33950  15.184   6.075   3.519 -0.1598 -0.1719 -0.0648
17477W        W33951   6.961   6.007  10.815 -0.0880 -0.1298  0.2302
17478W        W33952  13.998  12.902  11.414  0.0770 -0.1304 -0.0994
17479W        W33953   4.083   0.703  12.048 -0.0882 -0.0594  0.0141
17480W        W33954  11.669   8.361   2.451 -0.2420  0.1114  0.1065
17481W        W33955   4.011  12.777  12.467 -0.1178 -0.1847 -0.4506
17482W        W33956   3.021   0.847   5.264 -0.0311  0.2445 -0.1527
17483W        W33957  15.152  12.293  11.185 -0.3111 -0.1773 -0.0316
17484W        W33958  13.547   0.913  14.223 -0.0653  0.0978  0.0335
17485W        W33959  11.280   8.014  13.546  0.1512  0.3093  0.0000
17486W        W33960  12.512  15.399  13.701 -0.0712 -0.0910 -0.0210
17487W        W33961   6.277   2.193   4.915  0.0368  0.0476 -0.0701
17488W        W33962   5.620   8.242   4.398 -0.2621 -0.2521 -0.0039
17489W        W33963   3.227   3.213   4.295  0.1156 -0.6218  0.2103
17490W        W33964   8.459   4.584  13.255 -0.1270 -0.1491  0.0713
17491W        W33965  16.426   2.142  12.455  0.0671 -0.0621  0.2048
17492W        W33966   3.349   5.049   2.681 -0.0984 -0.1741 -0.3226
17493W        W33967  10.320   5.688   4.007  0.0482 -0.1359 -0.1863
17494W        W33968   0.498  10.368  11.547  0.1642 -0.1725  0.0714
17495W        W33969   8.584  12.276  11.664 -0.2055 -0.0921  0.0520
17496W        W33970  14.406   2.210  10.397  0.3520  0.1199  0.1270
17497W        W33971   3.749  16.487   3.034 -0.2753 -0.0871  0.3198
17498W        W33972   4.251   9.556  14.954 -0.1951 -0.2643  0.2667
17499W        W33973  12.043   1.481   3.248  0.0873 -0.1654 -0.2280
17500W        W33974  17.486  10.592   2.135 -0.2225 -0.0476 -0.0658
17501W        W33975   1.558  16.802   5.215  0.3726  0.0975 -0.0760
17502W        W33976  17.302  10.044   4.998  0.0548 -0.4566 -0.1032
17503W        W33977   5.993  18.432  15.068  0.0778 -0.1333  0.1848
17504W        W33978  18.592  18.562   4.959  0.0083 -0.0528  0.1640
17505W        W33979   8.157   3.449  13.059  0.2441  0.1123  0.0808
17506W        W33980  13.619  17.899   2.838  0.2508 -0.0992  0.0033
17507W        W33981  18.077   2.846   1.807  0.0240  0.0994  0.2641
17508W        W33982   6.788   0.649   0.388 -0.4452 -0.1100  0.0527
17509W        W33983   4.883   7.773   4.060  0.0446  0.0392  0.0539
17510W        W33984  13.295  17.074   3.346  0.0230 -0.0991  0.1423
17511W        W33985   7.450   0.623   1.348 -0.1956 -0.1558 -0.0491
17512W        W33986   7.052   3.684  13.179  0.0318  0.0659  0.1078
17513W        W33987  11.312  13.913  14.750 -0.0762  0.3093 -0.0661
17514W        W33988  12.239   3.493  13.845 -0.0885  0.0160  0.1001
17515W        W33989   9.133  16.392   1.174  0.1153 -0.1278  0.4087
17516W        W33990   4.323   6.990   4.373  0.0122  0.0727  0.0852
17517W        W33991   0.469   0.294   3.230  0.0463  0.0478 -0.1086
17518W        W33992  13.161  11.765  14.956 -0.1673 -0.1277  0.1698
17519W        W33993  16.543   8.938   1.529  0.1364  0.4156 -0.2688
17520W        W33994   9.541   2.580  12.672 -0.2399  0.2518  0.1193
17521W        W33995  18.536  15.791  12.985 -0.1175 -0.2577 -0.2035
17522W        W33996  10.685  14.105   2.256 -0.2516  0.2076  0.0697
17523W        W33997   9.746   8.164   1.604  0.0723 -0.0020  0.1100
17524W        W33998  18.480  16.735  11.587  0.0591 -0.0239 -0.2536
17525W        W33999   6.327   9.646  12.094  0.2894 -0.1015 -0.0364
17526W        W34000  16.513   4.140   2.152  0.1353  0.0393  0.2281
17527W        W34001   0.486  18.313   3.483  0.0373 -0.0403 -0.0937
17528W        W34002  10.903   5.552  11.059  0.1213 -0.2282  0.0441
17529W        W34003  13.907  15.320   5.775  0.1056 -0.0226 -0.0614
17530W        W34004  15.752  11.042   4.625 -0.1245  0.1520  0.0791
17531W        W34005   4.775   3.659   0.872 -0.0267 -0.1050  0.2064
17532W        W34006  14.513   3.625   0.511 -0.2608 -0.3156 -0.1381
17533W        W34007  13.936  14.825   3.451  0.2248  0.0423 -0.0784
17534W        W34008  18.637  17.616   2.992  0.0506 -0.0256 -0.1089
17535W        W34009  13.516   0.501   1.215  0.0185 -0.5412 -0.3941
17536W        W34010  16.740   3.633  12.135 -0.0244  0.0130 -0.3803
17537W        W34011  13.580  11.987  12.395 -0.4140  0.0120  0.0710
17538W        W34012   9.751   6.347   2.002 -0.0736 -0.3261 -0.1127
17539W        W34013  11.849   6.733   3.443  0.1614 -0.1719  0.2572
17540W        W34014   6.341   1.577   1.545 -0.0985  0.3136  0.3198
17541W        W34015  16.586  11.026   0.163  0.0494  0.3036 -0.0001
17542W        W34016  13.554  13.833   5.598  0.1269 -0.0187  0.0846
17543W        W34017  17.122  16.282  15.087  0.1182  0.0810 -0.1847
17544W        W34018   3.669  14.450   3.379  0.0030  0.2032  0.0507
17545W        W34019   0.592   5.795  14.739 -0.1010  0.0624 -0.4049
17546W        W34020   2.877  11.236   4.745  0.2226  0.1545  0.3326
17547W        W34021  10.855  16.303   9.372 -0.0052 -0.0775 -0.2051
17548W        W34022   6.396   5.096  11.570 -0.3761  0.1547 -0.1370
17549W        W34023   1.836  17.049   2.322 -0.1150 -0.1130 -0.2130
17550W        W34024  17.101  14.413  12.888 -0.0736 -0.0057 -0.0610
17551W        W34025  17.829   9.686   3.751  0.0664  0.0919 -0.3981
17552W        W34026  11.253   4.934   9.759  0.1647 -0.1169 -0.1157
17553W        W34027   2.559   7.980   1.586 -0.2874 -0.2118  0.0540
17554W        W34028  16.674  14.426  11.243  0.1126  0.0573 -0.0496
17555W        W34029   8.782   9.680   3.490 -0.0150 -0.1290 -0.1939
17556W        W34030   0.273  10.405  12.996  0.0227 -0.0226 -0.1071
17557W        W34031  18.835  14.665   1.590 -0.0459 -0.0297 -0.0194
17558W        W34032   3.934   2.848  11.629 -0.0088  0.1467  0.0068
17559W        W34033   3.077  17.765   2.905 -0.1631 -0.3445 -0.1453
17560W        W34034   6.639   3.439   3.697  0.1453 -0.4115  0.0324
17561W        W34035  14.334  15.910   4.627 -0.2426  0.0516 -0.1673
17562W        W34036   8.994  17.198  13.190 -0.1764  0.1971 -0.1662
17563W        W34037  16.184  12.371  12.046  0.3957  0.1366  0.1914
17564W        W34038   2.238  17.738   4.253  0.0931 -0.1678 -0.1603
17565W        W34039   4.433   8.513   2.595  0.0751 -0.2340 -0.1740
17566W        W34040   7.223  18.075  15.040 -0.2133  0.1288 -0.0353
17567W        W34041  17.552  16.702  12.989  0.0286 -0.1218  0.0994
17568W        W34042   4.847   0.028  14.991 -0.1593  0.5910  0.1605
17569W        W34043   2.379   2.690   2.384  0.0730  0.1370 -0.1347
17570W        W34044   4.602   2.950  13.197 -0.3415  0.1135 -0.0864
17571W        W34045  16.534   0.284   5.663 -0.0838  0.0301  0.4398
17572W        W34046  12.737   5.155   5.100 -0.2217  0.1631 -0.2479
17573W        W34047   4.105   8.947   3.837  0.1794 -0.3519  0.0185
17574W        W34048  14.045  10.564  14.891  0.0159 -0.1858  0.2685
17575W        W34049  10.361   0.578  11.400  0.0123  0.0183  0.0830
17576W        W34050  14.398   5.065  14.427 -0.4027 -0.4485  0.2730
17577W        W34051   1.376   7.962  11.265  0.1911 -0.0728 -0.0217
17578W        W34052  10.221  14.834   0.635  0.0758  0.1461 -0.0072
17579W        W34053   7.893   1.951  11.538  0.0889  0.1993 -0.2433
17580W        W34054  15.017  10.928  14.529  0.0388 -0.0274  0.0513
17581W        W34055   5.738   9.006   9.749  0.0354 -0.1209  0.0194
17582W        W34056  11.085  17.888  12.582  0.2346 -0.2478  0.3930
17583W        W34057   5.752   8.856  14.676 -0.0094 -0.0929 -0.1340
17584W        W34058   3.945   8.071   4.045  0.0332  0.1501  0.0197
17585W        W34059   9.303   4.259   3.807  0.1394 -0.2278  0.0179
17586W        W34060  14.140  11.425  13.814 -0.0603 -0.0151 -0.0901
17587W        W34061   0.615  16.945  13.753 -0.2801  0.1265  0.3014
17588W        W34062   8.969   7.608  13.111  0.1096 -0.1744 -0.2569
17589W        W34063  15.770   8.098   3.181 -0.0783  0.0556 -0.0825
17590W        W34064   5.375   3.540  12.281  0.0437 -0.0966  0.2159
17591W        W34065  16.465   7.125  10.827 -0.3969  0.1683  0.2505
17592W        W34066   2.854   6.859   2.269 -0.4743  0.3679 -0.0374
17593W        W34067   8.655   9.733   0.836 -0.0937  0.2530 -0.0359
17594W        W34068   7.480   9.639  10.486 -0.0851 -0.0208 -0.3048
17595W        W34069  18.419  17.169  11.973  0.0149 -0.2239 -0.0086
17596W        W34070   2.203  15.071  12.825  0.1097 -0.3798 -0.0423
17597W        W34071   0.983   4.763   2.088  0.0545 -0.4474  0.3147
17598W        W34072  16.982   7.899  10.301  0.0620  0.1044  0.0589
17599W        W34073   9.775  11.956  11.952 -0.1014  0.1528  0.2856
17600W        W34074  14.312   5.860  14.299 -0.4090 -0.1976 -0.3841
17601W        W34075   3.897  15.797  10.864 -0.2429  0.2784  0.2022
17602W        W34076   8.463   6.581   3.129  0.0412  0.1411 -0.1190
17603W        W34077   3.547   7.336  10.579  0.2494  0.0059 -0.4231
17604W        W34078   2.302   4.893   3.416  0.2189  0.1702  0.1555
17605W        W34079  14.749  10.668   0.136 -0.0324 -0.0938  0.2068
17606W        W34080  11.529  16.669   0.460 -0.0237  0.1975  0.1450
17607W        W34081  11.222  12.276   3.778 -0.0797  0.1678  0.4002
17608W        W34082   1.135   3.858  12.493  0.0386  0.3101 -0.0541
17609W        W34083   0.988  18.869   0.168  0.2012  0.0793 -0.0892
17610W        W34084  18.303   0.307   3.668 -0.4143  0.2748  0.0303
17611W        W34085  13.785   4.426   4.204 -0.2184 -0.1696  0.0647
17612W        W34086   7.389   2.208   9.169 -0.0909 -0.1516 -0.0187
17613W        W34087   9.954  18.050   4.500 -0.1418 -0.0481 -0.2874
17614W        W34088  12.765   8.099  12.776 -0.1690 -0.0184 -0.0998
17615W        W34089   3.115  12.179   3.447 -0.0694  0.0036 -0.1298
17616W        W34090   3.984   3.644  13.775  0.2733 -0.1726  0.1156
17617W        W34091   8.036  16.247   0.735 -0.0260 -0.0408 -0.3395
17618W        W34092   7.744  18.082   4.618  0.2514 -0.1749  0.0078
17619W        W34093   5.403  17.757   4.632  0.0233  0.2256  0.4307
17620W        W34094   7.068   4.852  13.847 -0.0101  0.1101  0.0679
17621W        W34095   5.474  18.645   2.243 -0.0919 -0.1116  0.0559
17622W        W34096  10.970   2.596  12.367 -0.1948 -0.1959  0.1916
17623W        W34097  16.603  18.636  12.126  0.0911  0.0842  0.1214
17624W        W34098  18.067  15.197   1.221  0.1186 -0.1895  0.1272
17625W        W34099  13.507  11.635   4.491 -0.0262 -0.0362  0.1548
17626W        W34100  15.025  18.822   0.753 -0.1746  0.1945  0.0448
17627W        W34101   0.146  11.770   1.694  0.1498  0.1015  0.0887
17628W        W34102  15.849  14.018   2.144  0.0619  0.0031 -0.2485
17629W        W34103  15.386   2.764  12.329 -0.1020 -0.1656 -0.0084
17630W        W34104   6.146   0.423  13.753 -0.0639  0.2629 -0.0749
17631W        W34105  11.053  11.569   3.037  0.2719  0.2492 -0.2039
17632W        W34106   1.764   6.347  12.957 -0.0238 -0.0212  0.1133
17633W        W34107  15.779   8.389   0.816 -0.2046  0.0683 -0.2425
17634W        W34108  14.839   1.268   2.883  0.2243 -0.0691  0.3687
17635W        W34109  13.547   7.509  13.719 -0.0866  0.1076 -0.0645
17636W        W34110  16.863  13.176   0.808 -0.0532 -0.0346 -0.0645
17637W        W34111  15.107   2.814  10.654  0.1229 -0.1078  0.0340
17638W        W34112   6.940   9.193   0.557 -0.0695  0.0023  0.2157
17639W        W34113   1.291   2.006  12.665 -0.1041 -0.3000 -0.2962
17640W        W34114   2.246   7.499  14.539  0.2202  0.2260  0.0358
17641W        W34115   7.538  17.309  14.492 -0.1263 -0.1866  0.1007
17642W        W34116   6.700  12.134   0.239 -0.4691  0.3131 -0.1031
17643W        W34117   5.496   2.684   1.899 -0.0436 -0.1034 -0.2684
17644W        W34118   0.408  10.293   0.509  0.4657  0.0285  0.1056
17645W        W34119   2.546  13.676   0.773  0.1340  0.0644 -0.0997
17646W        W34120  16.874  13.532   1.797  0.0372  0.1777 -0.0445
17647W        W34121   4.941   6.205  13.890  0.0760  0.0661 -0.0549
17648W        W34122   2.288  11.850   0.248 -0.3098  0.2199  0.0996
17649W        W34123   8.196  11.461  14.633  0.0049  0.0994  0.2448
17650W        W34124  11.379  16.663   4.492  0.0564  0.0886 -0.3539
17651W        W34125   8.850  18.626  12.457 -0.3315  0.1038  0.0010
17652W        W34126  16.510  15.319   0.734 -0.1627 -0.0294  0.0073
17653W        W34127   0.998  12.875   2.273  0.0048 -0.1849  0.2976
17654W        W34128  17.832  14.473   4.764 -0.4278 -0.2373 -0.1054
17655W        W34129  17.727  14.243  14.601 -0.3249 -0.2348 -0.1958
17656W        W34130   3.072  11.912  14.636 -0.1881  0.0714 -0.0196
17657W        W34131  15.683  10.490  14.941  0.0368 -0.2117  0.1411
17658W        W34132   7.093  16.521  11.019  0.0525  0.3709 -0.5277
17659W        W34133   9.370  17.149  10.464  0.0765  0.0475 -0.2377
17660W        W34134   8.008  16.554   3.181  0.2473 -0.1055  0.1000
17661W        W34135  17.705   7.037   4.023 -0.1551  0.0403  0.1034
17662W        W34136   8.636  16.620  13.800  0.0940  0.2739  0.2002
17663W        W34137   5.068  18.769  10.503  0.0110  0.3987 -0.1417
17664W        W34138  17.901  14.718   0.349 -0.0678  0.3554  0.1112
17665W        W34139  17.308   3.986  13.381  0.1204  0.0269  0.0646
17666W        W34140   4.118   1.993  11.918  0.0752  0.0281  0.0423
17667W        W34141  11.641   0.195   0.098 -0.3246 -0.1945  0.0587
17668W        W34142   6.782   7.777  13.383  0.0135 -0.0120 -0.0206
17669W        W34143  12.278   6.145   0.134 -0.0257 -0.1726 -0.2015
17670W        W34144  11.592   5.425  13.590 -0.3447 -0.3639 -0.0820
17671W        W34145  14.274  11.879  14.228  0.0463  0.0752 -0.1058
17672W        W34146   7.524  11.009  14.197  0.0607  0.0339  0.1032
17673W        W34147   1.239   9.133   9.821  0.2161  0.1534 -0.1361
17674W        W34148   5.067   8.801  14.693 -0.2298 -0.1585  0.2209
17675W        W34149   0.832   9.670   4.697  0.0016 -0.0205 -0.0740
17676W        W34150   3.172  15.174   3.720 -0.1488 -0.0879 -0.0078
17677W        W34151   4.256   7.877  13.296 -0.0650  0.1108 -0.1756
17678W        W34152   8.420  17.905  14.132 -0.2441  0.1379 -0.0600
17679W        W34153  16.371  11.200  10.944  0.0089 -0.1758  0.3683
17680W        W34154   9.498  15.138  14.650  0.0282 -0.3771 -0.0618
17681W        W34155  19.121  18.743  13.895 -0.1634 -0.3001  0.2287
17682W        W34156  13.129  13.509   4.788  0.0441  0.1989  0.0920
17683W        W34157  18.780  14.386   4.907 -0.2010 -0.0538 -0.1369
17684W        W34158  15.107  19.072   1.275 -0.1466  0.1575 -0.0918
17685W        W34159   9.471   6.020  11.435 -0.0947 -0.1141 -0.2311
17686W        W34160   6.865  13.215   4.929  0.0301  0.0616  0.0846
17687W        W34161  18.103   4.724  12.568 -0.4089  0.1861  0.0089
17688W        W34162   7.718   5.301   1.193 -0.3162  0.3458  0.1180
17689W        W34163   0.609   7.926   2.664  0.2037  0.1250  0.1388
17690W        W34164   6.715  17.065   3.149  0.2143 -0.0382  0.0999
17691W        W34165   7.557  10.219   1.141  0.1991 -0.0698  0.0014
17692W        W34166  16.646  12.423   5.171  0.0328 -0.0579 -0.0218
17693W        W34167  17.651  17.817  14.166  0.2135 -0.1298  0.1091
17694W        W34168  14.249   9.142   1.484  0.2052 -0.1389 -0.0060
17695W        W34169   2.167   3.053   0.232  0.1920  0.1717  0.0540
17696W        W34170   6.782   4.388  13.104 -0.2428  0.1429 -0.0426
17697W        W34171  18.966  18.666   0.252  0.1653 -0.1057  0.2936
17698W        W34172   1.379   6.311   4.009  0.3236 -0.0684 -0.0641
17699W        W34173  16.656   3.201  10.949 -0.4598 -0.2598 -0.3350
17700W        W34174   9.038  16.596  10.716 -0.3587 -0.0026 -0.1041
17701W        W34175   5.403   0.048  13.644 -0.1421  0.0062 -0.0350
17702W        W34176  12.432  18.310   4.547  0.0198 -0.0139 -0.3294
17703W        W34177   8.003  11.628  14.172 -0.1715  0.1237 -0.1131
17704W        W34178   1.617  18.403  13.686  0.0673  0.2931  0.1212
17705W        W34179  12.589  14.889  13.555 -0.2504  0.0395  0.0902
17706W        W34180  17.811   9.868  11.309 -0.0475  0.2389  0.1206
17707W        W34181   5.770  16.085   4.086  0.0986  0.0427  0.0656
17708W        W34182  15.389   6.951   4.109 -0.1126  0.0154 -0.1169
17709W        W34183  13.165   5.539   2.978  0.0940 -0.0323 -0.0227
17710W        W34184  14.093   9.951   4.000  0.3174 -0.0859  0.2449
17711W        W34185  16.640  15.240   1.220 -0.1294  0.2302 -0.1197
17712W        W34186  15.746  19.008   1.944 -0.2062 -0.0533  0.0230
17713W        W34187   2.444  13.706  14.448  0.0924 -0.2223 -0.2677
17714W        W34188   4.671  10.149  12.570  0.0672  0.0756 -0.0237
17715W        W34189  16.982  18.780  11.879  0.3317 -0.0562  0.1391
17716W        W34190  16.444  17.794   1.844 -0.2494  0.0936 -0.1709
17717W        W34191   3.287   9.307  13.931  0.0734  0.1040 -0.1051
17718W        W34192  18.263  15.231   1.711  0.3563  0.4688  0.2836
17719W        W34193   3.956   5.447   4.119  0.1093 -0.0606  0.3212
17720W        W34194   4.797   7.057  11.983  0.1303  0.6476 -0.2945
17721W        W34195   9.752   4.146   3.087 -0.0632 -0.0397 -0.1572
17722W        W34196   5.164   5.858  12.446 -0.3585  0.1409 -0.0640
17723W        W34197  10.381   4.691   2.942  0.3006 -0.0467  0.1046
17724W        W34198   0.752   4.134   1.601 -0.2337 -0.0451 -0.0324
17725W        W34199  12.396   7.741   3.516  0.2860 -0.0343  0.1909
17726W        W34200  17.246  13.810   4.115 -0.0389 -0.2218  0.4746
17727W        W34201   9.035  14.891   5.758 -0.6485 -0.0588  0.0851
17728W        W34202   1.894   9.200   3.801 -0.2016  0.4230 -0.0346
17729W        W34203   2.883  17.716   2.195 -0.0755  0.1189  0.2499
17730W        W34204   8.260   3.686  13.645  0.2504 -0.1956  0.2041
17731W        W34205  12.699   6.822   1.842 -0.1242 -0.1096 -0.1303
17732W        W34206   9.828   0.171  14.874 -0.2917 -0.1858 -0.2596
17733W        W34207  19.045  11.659  14.981 -0.1851  0.1280  0.0756
17734W        W34208   2.150  11.886  13.411 -0.2139  0.2088 -0.0501
17735W        W34209   9.778  10.385  11.741 -0.0653  0.2179  0.3005
17736W        W34210   5.341  10.963   0.875 -0.0179  0.0581 -0.0504
17737W        W34211  14.288  14.302  12.452  0.1963 -0.0836  0.0018
17738W        W34212  18.940  12.610   2.140  0.2579 -0.0100  0.0986
17739W        W34213   3.490  17.718  12.482 -0.2893 -0.0669 -0.0857
17740W        W34214   9.057   9.308  13.542 -0.0422  0.0545 -0.0965
17741W        W34215  14.999   6.607  14.575 -0.0053 -0.0681 -0.0517
17742W        W34216   1.575  15.487   2.457 -0.2316 -0.2515 -0.1614
17743W        W34217  12.939   9.434   0.599 -0.2759  0.1435  0.2225
17744W        W34218   5.263  12.982  13.256 -0.2575 -0.0338  0.0567
17745W        W34219   4.793  13.140  14.144  0.1423 -0.3651  0.0067
17746W        W34220  10.152   8.494  14.684  0.1302  0.0186 -0.0283
17747W        W34221  14.601   7.099   2.215 -0.2747  0.2291 -0.0406
17748W        W34222   0.343  18.708   9.952 -0.2768  0.3779  0.0968
17749W        W34223   8.284   9.325  12.656  0.1914  0.2719 -0.0152
17750W        W34224   3.551   9.830  13.883 -0.2399  0.1757  0.2093
17751W        W34225  17.220  14.228   0.626 -0.2421 -0.0045 -0.1000
17752W        W34226   1.975  18.888   5.385  0.0519 -0.0229 -0.1239
17753W        W34227   8.069   3.232  11.625  0.2894 -0.0004 -0.0394
17754W        W34228  15.942  15.263  15.046  0.2428  0.1346  0.1283
17755W        W34229  16.437   7.619   3.081 -0.0138 -0.0813 -0.0433
17756W        W34230  13.607  12.614  10.393  0.2038 -0.3126 -0.0200
17757W        W34231  10.820   8.855  14.904  0.3301 -0.1744  0.0299
17758W        W34232  11.269   9.505  12.605  0.0440 -0.0333 -0.1528
17759W        W34233   7.381   4.344  10.660  0.1311  0.1038 -0.3075
17760W        W34234  16.490   5.162  14.273  0.1611  0.1104  0.2949
17761W        W34235   9.807  17.354  11.370 -0.1749 -0.0109  0.0295
17762W        W34236  10.281   4.151  14.775 -0.2357  0.0354  0.0437
17763W        W34237  16.352   3.254  10.500 -0.0677 -0.0099 -0.0224
17764W        W34238   6.263   5.270  10.400 -0.4035  0.1703 -0.1758
17765W        W34239  17.284  18.322   4.798  0.0862 -0.0346  0.1353
17766W        W34240  18.311  13.714   2.895  0.0627  0.0290  0.4067
17767W        W34241   0.093   9.181   1.638  0.1249 -0.2213 -0.2270
17768W        W34242  17.072  10.240  12.227 -0.0627 -0.2210 -0.1957
17769W        W34243  17.752   9.298  13.304  0.0624 -0.2766 -0.0231
17770W        W34244  13.773   7.756   4.532  0.0238  0.2324  0.0600
17771W        W34245  18.180  17.395  11.028 -0.1029 -0.3271  0.0028
17772W        W34246  11.338  14.185   2.388 -0.1829  0.0384  0.1055
17773W        W34247   3.125  16.615   1.324  0.0316 -0.1717 -0.0281
17774W        W34248  13.138   8.212  15.152  0.1463  0.2177 -0.2706
17775W        W34249   9.152  14.252   5.824  0.1344  0.2192  0.1556
17776W        W34250  16.783   5.288   0.061 -0.3610 -0.1333  0.1524
17777W        W34251   7.022   8.652   0.627  0.1403 -0.2950 -0.3505
17778W        W34252   0.162   9.181  10.834  0.2721  0.2917 -0.1055
17779W        W34253   7.131  18.549  12.704  0.1152 -0.1774 -0.0875
17780W        W34254  15.774   0.388   3.938  0.2242  0.1727  0.0149
17781W        W34255  17.956  11.109  15.055 -0.3237 -0.2155 -0.0735
17782W        W34256  13.951   7.493  12.518 -0.2045 -0.0413 -0.0928
17783W        W34257   8.541  13.716  14.450 -0.0765 -0.0208 -0.0017
17784W        W34258  18.939   5.785   1.928  0.0805 -0.0679 -0.0640
17785W        W34259  16.979  17.058   0.971 -0.2206 -0.2015  0.0963
17786W        W34260   5.523  13.805   1.138 -0.0094 -0.1735  0.1638
17787W        W34261   9.477  13.733  12.178 -0.0166  0.1825 -0.2966
17788W        W34262  16.532  11.593   1.166 -0.4625 -0.1081 -0.1273
17789W        W34263  19.018   6.149   0.943  0.1989  0.0626 -0.1292
17790W        W34264   8.844   5.091   4.110 -0.1324 -0.0323  0.1090
17791W        W34265  14.649   0.848  11.468 -0.0549 -0.0383  0.0542
17792W        W34266  18.813   3.941  14.912  0.0358 -0.1319  0.1126
17793W        W34267   5.928  11.914  10.433  0.1186  0.1133 -0.1425
17794W        W34268   5.045   0.269   9.963 -0.0155 -0.0277  0.0931
17795W        W34269  14.924   8.767  13.418 -0.1108  0.1555  0.0122
17796W        W34270  11.333   8.274  15.112  0.3067  0.2382  0.0665
17797W        W34271   1.939  17.386  14.111 -0.1055  0.0519  0.0827
17798W        W34272  11.320  15.894  12.788  0.0055 -0.0727 -0.0544
17799W        W34273   8.532  11.615  12.187  0.2010 -0.1711  0.0970
17800W        W34274   7.420  12.244   2.946 -0.0617  0.2377  0.2276
17801W        W34275   2.433   9.558  10.732  0.4941 -0.1779  0.0252
17802W        W34276   5.409  14.100  12.575 -0.0968 -0.0598 -0.2169
17803W        W34277  11.362   7.253  14.703 -0.2165  0.0090 -0.1192
17804W        W34278   5.295  10.092  13.331  0.1157  0.1582  0.0580
17805W        W34279  12.128   9.241   3.345 -0.2077 -0.3181 -0.0788
17806W        W34280   0.018  14.280  13.801  0.1804 -0.0584 -0.1717
17807W        W34281   4.208   1.935  12.446  0.0688 -0.0702 -0.2547
17808W        W34282   0.460  11.842  12.725  0.2311  0.0703  0.1003
17809W        W34283   3.064  12.576  14.539 -0.1546 -0.2576 -0.2913
17810W        W34284   8.391   6.836   4.037  0.0891  0.3101  0.0862
17811W        W34285   8.006   7.424  12.501 -0.0456 -0.0225  0.5297
17812W        W34286   6.555  16.943  13.710 -0.2495  0.1197  0.1860
17813W        W34287   5.341  16.397  13.830  0.0188 -0.2268 -0.4112
17814W        W34288  13.674   1.253   3.493 -0.2016  0.2265  0.1699
17815W        W34289  12.589  10.762   0.730  0.0001  0.0942 -0.1571
17816W        W34290  17.189   2.267   4.010 -0.0177  0.0306  0.0360
17817W        W34291   5.580   2.360  12.444 -0.0014  0.0741 -0.0710
17818W        W34292  10.836   0.918  13.658 -0.3126  0.1310 -0.0835
17819W        W34293   7.169   5.633   0.453 -0.1347  0.1717  0.4847
17820W        W34294   2.251  14.272   3.412 -0.1876  0.1241  0.3783
17821W        W34295   9.983   4.253  11.356 -0.1131 -0.2336 -0.0342
17822W        W34296  15.614   0.022   3.013  0.0502 -0.1106  0.3033
17823W        W34297   1.449   8.145   4.860 -0.1815 -0.1245 -0.3038
17824W        W34298  17.311   4.505   1.807  0.2762  0.4199 -0.3514
17825W        W34299   1.763  19.019  12.167  0.2730  0.0128 -0.0233
17826W        W34300  14.333   4.301  10.926 -0.0204  0.0467  0.4331
17827W        W34301  13.175  15.210  10.744  0.3916  0.1028 -0.1934
17828W        W34302   7.051   2.988  13.231 -0.0510 -0.2110 -0.0969
17829W        W34303  10.654   9.235   5.242  0.2828  0.3210  0.0176
17830W        W34304  10.693   6.627   4.878  0.2209  0.1651  0.2299
17831W        W34305   3.859  13.681   2.958  0.2056  0.1354 -0.2419
17832W        W34306   1.616   1.444   1.530 -0.0499 -0.0472 -0.3596
17833W        W34307  17.989   6.930   3.278 -0.0067 -0.1502 -0.0340
17834W        W34308  13.724   4.167  12.553 -0.3025  0.5799 -0.1493
17835W        W34309  12.799   2.287  10.956 -0.0135 -0.1067 -0.0831
17836W        W34310  14.265  14.162  13.589  0.0044  0.0495 -0.0959
17837W        W34311   9.741   5.647  13.338 -0.0626  0.1934  0.1237
17838W        W34312  15.493  14.479   2.941  0.0586 -0.3058 -0.3554
17839W        W34313   5.038   4.026  11.681 -0.1597  0.1313 -0.1355
17840W        W34314   1.087  11.831  13.905  0.0886 -0.2000 -0.2676
17841W        W34315  11.003  17.693   4.975 -0.1690  0.1552 -0.0001
17842W        W34316   8.386  12.394  13.903 -0.2858  0.2128  0.1111
17843W        W34317   5.822   3.298   0.336 -0.2295 -0.3659 -0.3447
17844W        W34318  11.843  16.147  10.581 -0.1245  0.3059  0.1546
17845W        W34319   0.024  11.432   3.968 -0.0321 -0.2238 -0.0429
17846W        W34320  11.045   9.863   2.449  0.1663  0.0861 -0.1478
17847W        W34321  15.034   9.794   2.508 -0.2168  0.2120 -0.1559
17848W        W34322  10.651   5.876   9.792 -0.5177  0.1899 -0.0219
17849W        W34323   5.457   0.635   1.585  0.3065  0.0094 -0.0177
17850W        W34324   6.657  10.010  14.283 -0.0957  0.1312 -0.3578
17851W        W34325  12.480   5.033   1.569 -0.0307  0.1405  0.0382
17852W        W34326  12.034   6.012   2.941  0.1533 -0.0273 -0.0515
17853W        W34327  11.054   9.879   5.637 -0.0148  0.1921  0.1644
17854W        W34328   2.037  12.043   2.414 -0.1304  0.1290 -0.1406
17855W        W34329   7.851  17.096  11.886  0.0060 -0.0572  0.0129
17856W        W34330   5.148   4.577  10.828  0.0806  0.1515  0.0004
17857W        W34331   9.702  12.851   4.023 -0.2592 -0.1362  0.0170
17858W        W34332   2.571  10.971   4.373  0.3211 -0.2612 -0.1335
17859W        W34333   3.049  12.868   4.223  0.1941 -0.1453 -0.0297
17860W        W34334   4.195   6.121   1.264  0.1457 -0.3105  0.2206
17861W        W34335  18.148   6.289   0.416 -0.2581  0.0808  0.2288
17862W        W34336  11.562   3.965   3.486  0.1875  0.2277 -0.0816
17863W        W34337  12.526   1.353  14.887  0.1114 -0.0674  0.0616
17864W        W34338  16.595  16.433  10.316  0.1035 -0.2082 -0.2012
17865W        W34339  17.538  11.300   2.856 -0.1803 -0.1824 -0.0362
17866W        W34340  12.490  13.870   1.310 -0.2189 -0.1892  0.0826
17867W        W34341  14.951  10.996  12.997 -0.0326 -0.0931  0.2392
17868W        W34342   0.922   1.464   2.132 -0.3322  0.0950  0.1121
17869W        W34343   8.543   6.843  11.044 -0.3381 -0.0609  0.6516
17870W        W34344   1.730   3.764   4.086  0.1051  0.0594 -0.0042
17871W        W34345  15.808  12.390  13.391  0.0676 -0.0272 -0.0370
17872W        W34346  12.189  15.962   0.140 -0.0687 -0.1473 -0.2331
17873W        W34347  16.259  19.015  12.956  0.3096  0.1493  0.0765
17874W        W34348   4.574   0.917  12.357  0.0025 -0.2220 -0.0221
17875W        W34349   4.014  10.299   0.273 -0.3808  0.0801 -0.0950
17876W        W34350  11.612   2.504   0.816 -0.1621  0.0607  0.0299
17877W        W34351  11.111  14.445  10.824 -0.0879  0.0279 -0.0442
17878W        W34352   1.491   1.861  11.360 -0.0721  0.1173 -0.1418
17879W        W34353  18.199  18.872  11.293  0.0751  0.1619  0.0972
17880W        W34354   6.432  16.957  13.089  0.0685 -0.3059  0.0006
17881W        W34355  11.938  18.726   1.759  0.1556 -0.0727  0.0408
17882W        W34356   3.304  15.639  14.841 -0.0875  0.5029  0.3211
17883W        W34357  10.773  12.244  12.184 -0.0201 -0.3008  0.2539
17884W        W34358  12.848   4.148  12.644 -0.1995  0.0760  0.0217
17885W        W34359  12.345  17.138   2.162  0.0659 -0.2558 -0.1536
17886W        W34360  15.435  18.209  13.255  0.1040  0.0523  0.1990
17887W        W34361   1.193  11.319  12.486  0.1215  0.2266 -0.1107
17888W        W34362  14.659  11.132  11.632  0.2332 -0.0590  0.1502
17889W        W34363  15.037   2.133   1.569 -0.3423 -0.1682  0.3363
17890W        W34364  18.581  17.985   2.133  0.0629 -0.1792  0.0182
17891W        W34365   8.299  18.388   3.304 -0.0867  0.2574 -0.0508
17892W        W34366  12.814   2.590  10.471  0.0484 -0.1289 -0.3961
17893W        W34367   4.287   1.129   5.459  0.2343  0.2863 -0.1786
17894W        W34368   9.601   3.988  11.107  0.0885 -0.1833 -0.1091
17895W        W34369   2.047  17.358   4.615 -0.0160  0.1038  0.1000
17896W        W34370  10.931  14.647  13.622  0.0348 -0.3589 -0.0789
17897W        W34371  18.043  17.773   4.629 -0.2610 -0.0097 -0.1794
17898W        W34372   0.759  12.713  13.495  0.1983 -0.0681  0.1845
17899W        W34373   9.671  11.391  14.526 -0.3575 -0.0009 -0.0145
17900W        W34374   7.230   1.911   4.116  0.3242 -0.1599 -0.4474
17901W        W34375  12.043  10.595   3.277 -0.0577 -0.1299  0.2604
17902W        W34376   2.884   2.849  12.678  0.1562  0.1231 -0.0057
17903W        W34377   6.863   5.198   3.892 -0.2325  0.1739 -0.0557
17904W        W34378   3.205   7.818  10.529  0.2099  0.4632  0.0671
17905W        W34379   8.971   7.845   2.924 -0.0642 -0.0093 -0.0623
17906W        W34380  10.938   8.335   3.467  0.0500 -0.1273  0.0716
17907W        W34381  12.446  13.317  11.513  0.1293  0.0981  0.2380
17908W        W34382   9.452  11.287   4.971 -0.3520  0.0553 -0.0861
17909W        W34383  13.654   5.973  13.213  0.0759 -0.1780 -0.1769
17910W        W34384  10.179   0.818  14.174 -0.5171 -0.2204  0.2151
17911W        W34385  12.933  18.096  11.787  0.2171 -0.2532  0.0211
17912W        W34386   7.017  13.650   3.918  0.0078 -0.1343  0.0521
17913W        W34387  18.488   3.632   1.068 -0.0317 -0.0738 -0.2247
17914W        W34388  12.348  11.595  13.780  0.3348 -0.0373 -0.0515
17915W        W34389   1.965  16.307   1.793  0.2915  0.0850 -0.1512
17916W        W34390   6.959  18.096  11.827 -0.2325  0.1921 -0.0122
17917W        W34391  10.327   6.685  11.451 -0.1248 -0.1780 -0.1124
17918W        W34392   0.034  16.375   0.710  0.0638  0.3666 -0.0930
17919W        W34393  18.661   4.840  14.179 -0.0701 -0.0712 -0.2687
17920W        W34394  13.410   2.767  11.824 -0.1531 -0.0997  0.3347
17921W        W34395  15.558  13.174   2.510  0.3052  0.5553 -0.0405
17922W        W34396  15.395  13.934  12.478  0.2958  0.4931  0.2102
17923W        W34397  14.305  12.900  11.976  0.0582 -0.0065  0.1004
17924W        W34398   9.526   2.907   9.659 -0.2441 -0.0835  0.1471
17925W        W34399  17.590   9.478  13.795  0.0090  0.2318 -0.2227
17926W        W34400  16.043  13.074   9.489 -0.0897  0.1374 -0.2177
17927W        W34401   8.745  18.899   3.300 -0.2730  0.0650 -0.0328
17928W        W34402  13.063  13.136  12.564  0.0242  0.0438 -0.3382
17929W        W34403   6.787  10.182   1.940  0.0028 -0.1984 -0.2186
17930W        W34404   3.974   1.209   3.185  0.3129 -0.1074 -0.1361
17931W        W34405   5.752   2.183   2.279  0.0464 -0.0532  0.2374
17932W        W34406   1.767  13.284   2.911  0.1383 -0.1153 -0.1887
17933W        W34407   9.067   6.101  13.134  0.0073  0.1548  0.3012
17934W        W34408  13.683   9.257  13.530 -0.1103  0.0147 -0.0965
17935W        W34409  13.181  10.328   5.138 -0.0280  0.4194  0.0522
17936W        W34410  13.983  18.612  13.620 -0.1459 -0.1595 -0.0519
17937W        W34411   8.173   6.485  10.447 -0.0670 -0.1530  0.1993
17938W        W34412  15.874  16.504  11.486 -0.0283 -0.1224  0.1001
17939W        W34413  15.379  18.371   2.729  0.2286  0.2759  0.0653
17940W        W34414  15.188   2.841  12.844 -0.0610 -0.0456 -0.2715
17941W        W34415   2.015  17.755  13.067 -0.0435 -0.0685 -0.0508
17942W        W34416   1.819  13.773   4.612  0.0307 -0.0403 -0.2980
17943W        W34417   0.941  18.285   0.320  0.1534  0.0517  0.0289
17944W        W34418   8.170  16.545  10.660 -0.0006 -0.0554 -0.0572
17945W        W34419  11.747  18.881  12.043  0.0076  0.3027  0.1834
17946W        W34420  18.341  13.483   4.653 -0.1826 -0.2470  0.1956
17947W        W34421   0.731  10.193  14.818 -0.2644  0.2077 -0.2570
17948W        W34422  13.822  17.172   1.151  0.3360 -0.2810 -0.3451
17949W        W34423   0.065   1.750  13.472 -0.3988  0.2607  0.0319
17950W        W34424   3.112   6.772   5.498  0.3452  0.2530 -0.0368
17951W        W34425   2.541  14.488  13.469 -0.2543  0.3557  0.1588
17952W        W34426   2.777   1.475  14.082 -0.1128 -0.2123  0.3758
17953W        W34427  11.778   1.400   4.109  0.0190  0.0974 -0.4902
17954W        W34428   1.265  12.351  14.773 -0.2410 -0.0210  0.1637
17955W        W34429  11.086  10.524  13.559 -0.1872 -0.1355  0.4093
17956W        W34430   5.482  14.775  13.152 -0.4602  0.1386  0.1154
17957W        W34431   3.951  13.965   2.077 -0.1862  0.3313 -0.2431
17958W        W34432  17.193  13.836   5.834 -0.0277 -0.4005 -0.2398
17959W        W34433   0.435  11.886  13.636  0.1034 -0.0380 -0.0186
17960W        W34434  11.371  13.078  12.236 -0.1093  0.1429 -0.2075
17961W        W34435   4.801   2.520   4.296 -0.3302  0.1313  0.0173
17962W        W34436   9.060   0.237   0.444 -0.0693  0.1401 -0.0143
17963W        W34437  15.705  16.641   2.481 -0.0355  0.1640  0.1593
17964W        W34438   9.888  10.934   4.220 -0.0456 -0.2356 -0.1201
17965W        W34439  13.941   2.008  12.269 -0.1214  0.1809 -0.1210
17966W        W34440  15.766   3.500  10.776 -0.0280 -0.0342  0.0966
17967W        W34441  10.227   0.963  14.676  0.0603  0.0553  0.2037
17968W        W34442  13.988  15.789  13.953  0.2142  0.1578 -0.0533
17969W        W34443   9.029   2.970  14.597 -0.3081  0.0667 -0.1715
17970W        W34444   4.057   5.942  12.426  0.0873 -0.0571 -0.3662
17971W        W34445   2.967   8.347  10.659  0.1589  0.0767 -0.1061
17972W        W34446   0.987  13.623   4.438  0.0912 -0.1238 -0.1176
17973W        W34447  13.767  19.131   3.665 -0.3309 -0.3345 -0.2888
17974W        W34448   7.155   1.060  12.516  0.0676  0.0089 -0.0675
17975W        W34449   0.418   9.467  12.742 -0.0208 -0.1715 -0.0202
17976W        W34450   2.789  14.048  14.207 -0.4930 -0.1481  0.1316
17977W        W34451  10.842   2.478   1.071  0.1501  0.0946 -0.0281
17978W        W34452   8.785   9.962   4.483  0.1204 -0.1087  0.0199
17979W        W34453  14.256   1.414  10.403 -0.3626 -0.0048 -0.1672
17980W        W34454   3.039   3.164   2.206 -0.1469 -0.0773 -0.0864
17981W        W34455   6.837   1.595   1.828  0.0062 -0.1550 -0.0361
17982W        W34456   3.339   7.599  13.144 -0.0573  0.1309  0.0854
17983W        W34457   3.529  12.445  14.245  0.1800  0.0927  0.2797
17984W        W34458  19.139   6.115  12.628 -0.0459 -0.1012  0.1180
17985W        W34459  18.103  18.840   0.477 -0.2710  0.3012 -0.0500
17986W        W34460  17.973   1.522   3.570 -0.0423 -0.0489 -0.1579
17987W        W34461   6.905  10.587  11.347 -0.3032  0.0062  0.3295
17988W        W34462  13.991  18.163   4.770  0.3044 -0.1414  0.0201
17989W        W34463  14.564  10.411   5.057 -0.3851 -0.0543 -0.2849
17990W        W34464   0.613   9.043   0.599  0.1469  0.1319  0.2816
17991W        W34465  18.123   1.455   2.427  0.1599 -0.1433 -0.4013
17992W        W34466   4.330   1.545   2.995  0.0769  0.0150  0.0942
17993W        W34467  17.642   1.984   5.529 -0.0320  0.0140  0.0551
17994W        W34468   6.515  16.676  11.108  0.1248 -0.2591 -0.1244
17995W        W34469  17.269  12.734   2.617 -0.4905 -0.2087 -0.0198
17996W        W34470  14.210  13.033   2.104 -0.0554 -0.1187 -0.1149
17997W        W34471   9.016   2.483  14.127  0.0689  0.1432 -0.1898
17998W        W34472   4.361  11.221   2.865 -0.3448  0.0074  0.2264
17999W        W34473   8.632  18.692  13.685 -0.0982 -0.1358  0.0028
18000W        W34474   5.245   1.243  12.968 -0.4570 -0.1509  0.4809
18001W        W34475   8.936   5.667  14.808  0.0055  0.0113 -0.2947
18002W        W34476   7.219  10.253   5.459 -0.1021 -0.3651  0.0011
18003W        W34477  12.904   9.139   5.724  0.5331  0.0631 -0.2974
18004W        W34478  15.136   1.585  14.790  0.1720  0.0339  0.0256
18005W        W34479  16.266   3.973   3.858  0.3530 -0.1452  0.4095
18006W        W34480  15.442  18.643   1.051  0.2967 -0.0505  0.1495
18007W        W34481   0.822  13.641   3.229  0.0046  0.2624  0.1782
18008W        W34482  12.886   2.553  12.684  0.1703  0.1387  0.1643
18009W        W34483  17.689   6.385   9.680 -0.0827  0.0316  0.0013
18010W        W34484   2.119  15.129  14.454  0.0108  0.0080  0.0902
18011W        W34485   4.962  10.699   3.384  0.0375 -0.0252 -0.0224
18012W        W34486  16.349   4.517  13.300  0.2321  0.1827  0.2030
18013W        W34487  14.495  12.550  14.220 -0.0026  0.2347  0.1706
18014W        W34488  16.975  18.492  13.087  0.0244 -0.0892 -0.0924
18015W        W34489   5.855  16.441   2.418 -0.2238 -0.1990  0.0269
18016W        W34490  16.651  11.196   4.130  0.0399  0.4138  0.1296
18017W        W34491  16.721  11.113  10.616  0.1328  0.1139  0.3509
18018W        W34492   0.668   4.755   4.840  0.1064  0.3768 -0.1779
18019W        W34493   0.332   4.813  13.245 -0.1321  0.0742  0.0777
18020W        W34494  11.653  10.446  14.401 -0.0328  0.1638 -0.0008
18021W        W34495   2.866   2.577   0.402 -0.1359  0.1584 -0.1063
18022W        W34496   4.723   1.841  14.743 -0.1549  0.1022 -0.2763
18023W        W34497  18.929  18.628  12.296 -0.1441  0.1477  0.0210
18024W        W34498   9.674  11.928  12.769 -0.1535  0.1772 -0.2542
18025W        W34499   0.158  12.517   2.704 -0.1971  0.1925  0.0142
18026W        W34500   4.452  12.348  14.788  0.0117  0.0613 -0.2846
18027W        W34501  11.262   0.080  12.306  0.2949 -0.0740 -0.3740
18028W        W34502  15.544   8.230  14.044  0.1708  0.0401  0.1715
18029W        W34503  18.070  17.918   1.616 -0.1334 -0.2828  0.1181
18030W        W34504   1.030   2.530   0.107 -0.0250 -0.1460 -0.4282
18031W        W34505   3.002  11.447  15.038 -0.3559 -0.0091  0.2901
18032W        W34506  13.567   1.066   0.903  0.1981 -0.2661 -0.0843
18033W        W34507   1.173   0.642   1.654 -0.1973 -0.1928 -0.1066
18034W        W34508   8.185   9.582  12.119  0.0987  0.2180 -0.0758
18035W        W34509   1.781   8.394  14.637  0.0094  0.2510  0.1322
18036W        W34510   8.462   7.666   3.759  0.0167  0.1153 -0.2233
18037W        W34511  11.867   5.847   0.018  0.3108  0.0702  0.0544
18038W        W34512   5.078   1.258   0.404 -0.2350 -0.1418  0.0919
18039W        W34513  18.043  10.218   4.537 -0.1272 -0.2527  0.2428
18040W        W34514   3.443  12.439  13.622 -0.1580 -0.0857  0.1766
18041W        W34515   4.482  12.473  14.221  0.0735  0.0431  0.0255
18042W        W34516   2.687  19.087   0.454  0.1051  0.1928 -0.0424
18043W        W34517   4.725  13.879   2.484 -0.0173  0.0587  0.2345
18044W        W34518  13.694   9.403   2.563 -0.1117 -0.0534  0.3539
18045W        W34519   9.065   5.419   4.450 -0.0874 -0.0451  0.2877
18046W        W34520   2.970   9.275  13.184 -0.0202 -0.2557  0.2794
18047W        W34521   3.252   1.816   2.427 -0.1624  0.1654 -0.1207
18048W        W34522   3.502   1.713   4.353  0.0796  0.1246  0.2600
18049W        W34523   8.499  13.602   3.750 -0.2595 -0.2324 -0.2152
18050W        W34524   9.854  17.383   3.726  0.0322 -0.1700 -0.0566
18051W        W34525   5.451  15.135   2.643 -0.0206  0.4380  0.2904
18052W        W34526  16.435   2.904  11.284 -0.1551  0.0234  0.0746
18053W        W34527  16.452  10.134   0.895  0.0316  0.2072 -0.0320
18054W        W34528  14.731  11.985  13.014 -0.1501 -0.0667  0.1978
18055W        W34529  16.630   1.020   5.069  0.0237  0.1719  0.2318
18056W        W34530   3.550   6.675  11.464  0.1282 -0.0884  0.1155
18057W        W34531   1.971  12.922   4.595 -0.2736  0.2063 -0.2259
18058W        W34532   7.752   1.014  12.338 -0.0379  0.0386  0.0888
18059W        W34533   5.978   6.527  13.847 -0.2803 -0.0457  0.0292
18060W        W34534  18.936  12.960   4.363  0.2091 -0.1392  0.1287
18061W        W34535  10.920  13.437  12.602 -0.1393 -0.2878 -0.1349
18062W        W34536   9.846  11.352   0.671  0.0540  0.0912  0.2568
18063W        W34537  14.686  10.627   1.810 -0.0312 -0.2217  0.1369
18064W        W34538  17.426   5.863   1.458 -0.2582  0.2718 -0.0377
18065W        W34539  12.730   1.321  12.624  0.2994 -0.0776 -0.1497
18066W        W34540  14.329  18.021  14.968 -0.1905  0.1027  0.1633
18067W        W34541  17.253   3.580   0.952 -0.1964  0.0320  0.0395
18068W        W34542  16.822   2.823   0.254  0.0656 -0.1163 -0.0841
18069W        W34543   1.517   5.121  12.476  0.0277  0.0224  0.0485
18070W        W34544   0.399   7.920  12.020  0.0541  0.1166 -0.2392
18071W        W34545   3.212   1.668  14.465  0.3388  0.2913  0.0216
18072W        W34546   7.472   8.621   5.039 -0.3380 -0.1080  0.1671
18073W        W34547   0.131  16.558   2.980 -0.1661  0.0637  0.1025
18074W        W34548   5.502   4.335   1.980 -0.4593 -0.0210  0.1958
18075W        W34549   1.629   0.370  15.061  0.0956  0.1475 -0.1859
18076W        W34550  15.078  18.495  12.436 -0.0908 -0.0486 -0.0302
18077W        W34551   5.089   0.281   0.191 -0.0074 -0.0598  0.3358
18078W        W34552   8.119  19.055   2.675 -0.3993  0.3026  0.0680
18079W        W34553   6.168   4.405   0.670 -0.2322 -0.2016 -0.0615
18080W        W34554   9.564  14.571  15.117 -0.0585 -0.3039  0.0212
18081W        W34555  14.741  18.375  13.722  0.0908 -0.0782 -0.0621
18082W        W34556  14.160  14.213  13.049 -0.2660 -0.0301 -0.3337
18083W        W34557   3.998  14.547  15.139  0.4305  0.2523  0.1534
18084W        W34558  16.023  17.345  10.802  0.3762  0.4286  0.1767
18085W        W34559  16.040  16.251  15.061  0.1501 -0.1651 -0.1192
18086W        W34560   9.379  10.247   0.841 -0.1316  0.0035 -0.1727
18087W        W34561   6.478  16.208  15.002 -0.1682  0.1672  0.2098
18088W        W34562  17.510   6.394  14.840 -0.0437 -0.1273  0.1559
18089W        W34563  15.373   7.883  11.816  0.3265 -0.2790  0.1515
18090W        W34564   0.572   7.876   4.712  0.3518  0.1519  0.0733
18091W        W34565   1.527  14.815  12.120 -0.3034  0.0894 -0.0055
18092W        W34566  14.802  12.571  12.424  0.0738  0.2573  0.1160
18093W        W34567   9.835  12.830   4.972 -0.2157 -0.2351  0.0537
18094W        W34568   8.333  12.833  11.154  0.1598  0.0816 -0.0996
18095W        W34569   0.016   3.108  11.235  0.1463 -0.1563 -0.1230
18096W        W34570   2.702  16.967  13.333  0.1355  0.3271 -0.1177
18097W        W34571  15.734  12.077   9.835  0.0834  0.0715 -0.3444
18098W        W34572  11.518   7.866   0.776 -0.5711 -0.0236  0.0954
18099W        W34573   7.790  18.677   4.570  0.0678  0.1617 -0.3297
18100W        W34574  10.275   0.760  10.798  0.2350 -0.0722  0.1868
18101W        W34575  18.831  12.488   1.493  0.1437  0.2245  0.1206
18102W        W34576  11.463   9.073   0.280 -0.1333 -0.0705  0.1649
18103W        W34577   3.850  11.575  13.734 -0.1509 -0.0488 -0.0900
18104W        W34578  12.590  14.067   0.797  0.1037  0.2030 -0.0750
18105W        W34579   0.385  15.193  11.455  0.2171  0.3345 -0.2978
18106W        W34580  14.006   5.141   3.365  0.0489  0.3310 -0.1228
18107W        W34581   5.901   2.126  14.210  0.0504  0.1256 -0.3469
18108W        W34582   3.487  11.128  11.370  0.2711 -0.2137 -0.1155
18109W        W34583   1.270   5.482  12.193 -0.0582 -0.2069 -0.0330
18110W        W34584   8.404   7.351   4.651 -0.1869 -0.4754 -0.2604
18111W        W34585  10.595   7.206  14.842  0.0399  0.0295  0.4323
18112W        W34586  10.866  16.096   4.533  0.0626 -0.1748  0.0724
18113W        W34587  16.259  18.930  11.280  0.0305 -0.0438 -0.3678
18114W        W34588   3.664   5.243  13.499 -0.1265  0.0529  0.2149
18115W        W34589  11.007  18.196   4.954 -0.2238  0.1160  0.2787
18116W        W34590   1.195  11.526  13.041 -0.3569  0.3237 -0.1329
18117W        W34591  12.981   3.274   1.072 -0.4927  0.0169 -0.2845
18118W        W34592  16.703  13.357   5.384 -0.2490  0.0149 -0.1759
18119W        W34593   4.000   4.310   1.912  0.3370  0.1129  0.0258
18120W        W34594   4.622  15.320   3.028 -0.0078 -0.2547  0.0131
18121W        W34595  10.019  11.691  10.934  0.0755  0.1078 -0.0364
18122W        W34596  16.778  16.764  12.493  0.1472  0.2003 -0.0541
18123W        W34597   0.398   5.233  13.527 -0.1185  0.2099 -0.2484
18124W        W34598   0.422   8.992  10.483  0.1609 -0.3669 -0.0755
18125W        W34599   7.742   0.687  11.336 -0.1193  0.0255  0.3081
18126W        W34600   5.640  16.702   0.685 -0.3501 -0.0060  0.0901
18127W        W34601   7.697   6.191   2.938  0.0825 -0.0717  0.4369
18128W        W34602   1.517  17.944   0.167  0.0032 -0.0393 -0.1148
18129W        W34603  11.438   6.239   0.487  0.0557 -0.0053  0.3188
18130W        W34604  16.641   6.732  11.744 -0.0641  0.0062 -0.0527
18131W        W34605   0.254  16.492  12.555  0.1572 -0.0359  0.1721
18132W        W34606  17.950   9.026   0.786  0.2750 -0.3076 -0.1784
18133W        W34607  16.998  17.540   4.668 -0.2020  0.1718 -0.1618
18134W        W34608   7.630   1.057   3.046 -0.1125 -0.0339  0.0021
18135W        W34609  17.431  11.001  15.145 -0.2081  0.0277 -0.2672
18136W        W34610   1.594   6.911   4.979  0.4124 -0.0629  0.1667
18137W        W34611   6.342   2.806   3.063  0.1050  0.1361  0.0290
18138W        W34612  18.686  13.948   3.467  0.3349  0.1323 -0.2644
18139W        W34613  11.633  10.301  12.153  0.0539 -0.0164 -0.1635
18140W        W34614  13.014  13.415   3.822  0.1540 -0.0796  0.3384
18141W        W34615  18.477   9.392   2.238  0.1535  0.0931  0.1027
18142W        W34616   7.685   5.640  12.582  0.0872 -0.1765  0.3100
18143W        W34617  12.418  13.242   3.067  0.0550  0.0114  0.0486
18144W        W34618  16.728  14.376  13.216 -0.3082  0.1649 -0.0363
18145W        W34619  13.178  16.263  14.588  0.0142 -0.0459 -0.0252
18146W        W34620   7.182  16.995  12.549  0.1264 -0.1812  0.3402
18147W        W34621  15.580   9.963  13.036 -0.0476  0.1139 -0.2261
18148W        W34622   0.026   4.811  11.981 -0.0980  0.1183  0.3431
18149W        W34623   2.307   9.920   4.465  0.1277 -0.1528  0.3521
18150W        W34624  15.503  12.295   1.775  0.1078 -0.0839 -0.0956
18151W        W34625   0.830  14.964   1.020  0.0875 -0.0611  0.1485
18152W        W34626   2.851  12.126   9.281 -0.0298  0.0527  0.1655
18153W        W34627  11.690   4.694  12.882 -0.0265  0.4930  0.0295
18154W        W34628   0.463  17.735  11.480  0.0058  0.1188  0.3783
18155W        W34629  12.123  17.338  11.374  0.0463  0.2715  0.1205
18156W        W34630   6.175  18.163   3.864  0.1337  0.1254  0.2600
18157W        W34631   4.320   2.478  14.153 -0.1601 -0.0876 -0.1301
18158W        W34632   7.560  11.703  10.899  0.0569 -0.0814 -0.0361
18159W        W34633  10.696   6.102   4.867  0.0378  0.2464  0.0767
18160W        W34634  10.417  14.466   4.471  0.2938 -0.0837 -0.2681
18161W        W34635  18.447  10.788   2.142 -0.0954 -0.1868  0.1166
18162W        W34636  14.078   6.620  12.828 -0.0344  0.0138 -0.0210
18163W        W34637   6.322  12.658  13.873  0.4015  0.2521  0.0059
18164W        W34638  13.398   4.988  14.245 -0.0628  0.0145  0.1290
18165W        W34639   5.681  12.737  14.420  0.1174  0.3089 -0.2867
18166W        W34640  17.175   4.812   2.300 -0.2356  0.2795 -0.3229
18167W        W34641   2.813  12.992  14.257 -0.1698 -0.2115  0.0003
18168W        W34642  11.020   7.446   2.542 -0.0071  0.4496  0.1033
18169W        W34643  14.088   0.753  12.831  0.1711  0.3515 -0.3828
18170W        W34644   7.276  10.660   3.171 -0.0188 -0.1312  0.0127
18171W        W34645   5.052  13.466  13.298  0.1924 -0.1510  0.1743
18172W        W34646   1.314   0.846  13.596 -0.0022  0.2857  0.0301
18173W        W34647  16.427  15.633  12.665  0.2849 -0.1718  0.0019
18174W        W34648  15.960   8.247   0.347  0.1118  0.0549  0.1324
18175W        W34649  10.682  16.919  11.523  0.0312 -0.0901 -0.1593
18176W        W34650  11.229  12.276  14.800 -0.2596  0.3286  0.1417
18177W        W34651   1.471   7.464   3.162  0.2320 -0.2304  0.1832
18178W        W34652  15.479  11.576   5.098  0.1556 -0.7783 -0.1136
18179W        W34653   7.049  14.531  11.443 -0.1451 -0.0748 -0.1990
18180W        W34654  13.762  12.251   2.259  0.2655  0.0821  0.1340
18181W        W34655   9.974  13.574   5.629  0.0051 -0.0462  0.2962
18182W        W34656  17.061  13.599   3.622 -0.1667  0.1509  0.2329
18183W        W34657   5.279   1.544  10.133 -0.0836  0.1261 -0.0159
18184W        W34658   7.280  18.995   0.922  0.0667  0.1140 -0.0589
18185W        W34659   2.673   1.780   6.313 -0.1594 -0.2512 -0.1073
18186W        W34660  14.386  16.317   4.337  0.0587  0.0113  0.0195
18187W        W34661  13.191   5.355   0.356 -0.1911  0.1913 -0.3556
18188W        W34662   5.166   7.489   0.805  0.0068  0.5869 -0.1200
18189W        W34663   8.682  10.670  11.776  0.3261  0.2662  0.2829
18190W        W34664   1.229  15.370  11.366  0.0250 -0.0650 -0.0951
18191W        W34665  17.093   7.690   0.898  0.3901  0.0127 -0.1987
18192W        W34666  14.666   5.068  13.698  0.1365 -0.1721  0.1297
18193W        W34667  12.320   3.329  14.428 -0.2362  0.1624  0.0988
18194W        W34668  17.063   9.257   4.347 -0.0666 -0.0594 -0.0522
18195W        W34669   8.866  15.357   4.527 -0.1562 -0.2323  0.2898
18196W        W34670   7.226   6.192   4.239  0.1143 -0.0904  0.3316
18197W        W34671  16.030  17.015  12.380  0.2970 -0.1231  0.2604
18198W        W34672   1.643   4.091  11.319 -0.1820  0.0860  0.1037
18199W        W34673   2.141  14.185   0.016  0.1052  0.0335 -0.0937
18200W        W34674   6.577  11.460   1.402  0.0317  0.2406  0.2736
18201W        W34675   3.279   0.331  13.238 -0.2325  0.0800 -0.1248
18202W        W34676  17.581   3.281  12.695 -0.2596 -0.0919  0.0380
18203W        W34677  15.740  16.540   3.039  0.3559 -0.3281  0.1133
18204W        W34678   8.106  16.960   1.862 -0.3757  0.3200  0.0459
18205W        W34679   2.178   6.700  12.721  0.1919  0.1685 -0.0207
18206W        W34680   1.754   4.216  14.926 -0.2031  0.1019 -0.2037
18207W        W34681  16.056  11.360   0.062  0.0489  0.0544 -0.0054
18208W        W34682  15.969  13.543  11.741  0.0947 -0.1439  0.2303
18209W        W34683   8.709   8.057  10.172  0.0028 -0.1649  0.1934
18210W        W34684  18.767  14.018   4.017 -0.5522 -0.0792  0.0395
18211W        W34685  12.669   5.129  12.259  0.3456  0.2224 -0.0745
18212W        W34686   8.223   1.235  12.236 -0.2600  0.2604 -0.3876
18213W        W34687   2.211  13.384  11.703  0.1335  0.0263 -0.0379
18214W        W34688  16.538   8.150  14.036  0.2925 -0.1018 -0.0536
18215W        W34689   0.805  11.427  10.675 -0.0480  0.3651  0.1744
18216W        W34690  17.971  11.224   2.560 -0.0478  0.0670  0.2895
18217W        W34691   3.245  12.493   3.933 -0.0353 -0.1692  0.0842
18218W        W34692   6.536  16.507  12.302 -0.2753 -0.0078  0.0875
18219W        W34693  16.886  10.470  14.542 -0.2876 -0.1904  0.3229
18220W        W34694   9.217   0.498   2.912 -0.0848 -0.2499 -0.1469
18221W        W34695   9.544   0.881  14.608  0.2479 -0.0567  0.1329
18222W        W34696  17.963  13.998   1.906 -0.4909 -0.2755  0.0845
18223W        W34697  12.392   1.444   0.999  0.1565 -0.0319  0.2658
18224W        W34698   2.575   3.819  14.731  0.2216  0.0125 -0.0788
18225W        W34699  16.613  12.010   2.260 -0.0184 -0.1462 -0.3224
18226W        W34700   1.985   1.988  11.212  0.2907  0.1342  0.0777
18227W        W34701   3.712   8.437  14.401  0.0678 -0.0224  0.2868
18228W        W34702  18.889   5.534  11.362  0.5267 -0.3260 -0.1591
18229W        W34703  11.961  15.627  14.999  0.1519  0.1024 -0.1125
18230W        W34704  10.413   7.234  11.351  0.1721  0.1017 -0.1227
18231W        W34705  12.000   8.549   1.288  0.3630  0.0975 -0.0507
18232W        W34706   2.936   2.889  14.527 -0.0201  0.3403  0.1475
18233W        W34707  16.640  17.792  11.974 -0.0072 -0.0238  0.2638
18234W        W34708   2.990   5.130  10.844 -0.0583 -0.3181 -0.1159
18235W        W34709  17.693   8.678   5.117  0.2472  0.1069  0.0394
18236W        W34710   6.652   5.872  12.088  0.1213 -0.1830  0.3125
18237W        W34711  10.653  16.448  13.475 -0.1082 -0.1528  0.3220
18238W        W34712  14.924  12.633  13.891  0.1688  0.1681 -0.1023
18239W        W34713   2.283  11.350   0.497  0.3762 -0.0136  0.0814
18240W        W34714  12.575   0.218   4.601  0.3117 -0.1570  0.1222
18241W        W34715   8.705  12.000  15.088 -0.2939 -0.0027 -0.1367
18242W        W34716  17.045   0.835   0.757 -0.1687 -0.0440 -0.1525
18243W        W34717  12.250  17.354  13.640  0.2170 -0.0362 -0.0198
18244W        W34718   4.273   6.929   5.267  0.1860  0.0822  0.1575
18245W        W34719   1.096  16.344  14.866 -0.0882 -0.1992 -0.3643
18246W        W34720   6.349  11.991   2.087 -0.0773 -0.2980 -0.0022
18247W        W34721  16.693   5.494  11.137  0.1272 -0.1761  0.2172
18248W        W34722  16.695  15.755  14.667 -0.1457 -0.0508  0.1604
18249W        W34723   4.610  17.964  11.151 -0.0231 -0.1593  0.1793
18250W        W34724  14.677  17.681   2.526 -0.1584  0.1740 -0.1269
18251W        W34725   1.597  15.797   0.063  0.0377 -0.1348  0.2789
18252W        W34726  18.343  16.565  14.423  0.2632  0.1505  0.2441
18253W        W34727   5.006   8.700   2.828  0.1914 -0.1385  0.0151
18254W        W34728   7.079  11.648  10.109  0.1373  0.0358  0.1231
18255W        W34729   4.688   4.317  13.552  0.2472 -0.2400 -0.0308
18256W        W34730   2.291  11.662  12.991  0.1869 -0.0545  0.2151
18257W        W34731   7.894  18.782   9.842 -0.1934  0.0398 -0.1097
18258W        W34732  17.074  10.851   2.300  0.0821  0.2856  0.0439
18259W        W34733  14.323   2.552   0.060  0.2710 -0.2844 -0.1026
18260W        W34734  10.935   1.741   4.106  0.0108  0.1140 -0.1663
18261W        W34735   5.517   9.676   0.395 -0.1135  0.1594 -0.0599
18262W        W34736  18.553  17.049  14.581 -0.0492 -0.0891  0.2208
18263W        W34737   7.472   0.685  11.992 -0.0587  0.1809 -0.0606
18264W        W34738   4.233  16.423  11.653 -0.1461  0.0269  0.0254
18265W        W34739  16.727  17.764   1.431 -0.2652  0.4071  0.0582
18266W        W34740  15.827  13.473   2.820 -0.0360 -0.0665 -0.2203
18267W        W34741   4.823  17.143   3.529  0.0429  0.1491  0.3800
18268W        W34742   7.937   1.040  14.236 -0.1703  0.1091 -0.1016
18269W        W34743   1.419   5.685   2.161  0.1670  0.1556  0.0777
18270W        W34744  12.599  17.618   1.983 -0.4244  0.1109 -0.0134
18271W        W34745  13.470  14.621  11.495 -0.4666 -0.1686 -0.1073
18272W        W34746   8.691   4.422  13.690 -0.2101  0.0293  0.1507
18273W        W34747   1.841  14.129   0.748 -0.3791 -0.3910  0.0041
18274W        W34748   5.313   2.795   0.576  0.2557 -0.0953  0.0942
18275W        W34749   1.264   4.296   3.318 -0.2048  0.0342  0.0603
18276W        W34750  12.375   8.876  12.967  0.3574  0.2502 -0.2683
18277W        W34751   5.423  17.924  12.130  0.1652 -0.2219 -0.7246
18278W        W34752  13.544   1.144  13.734  0.1269  0.0072  0.1307
18279W        W34753  18.511  15.459  12.615 -0.1996 -0.1418 -0.0439
18280W        W34754  14.841   9.186  10.877 -0.2133  0.1149 -0.0050
18281W        W34755   0.516   8.996  11.795  0.1267  0.1220  0.0739
18282W        W34756  11.194  17.005  11.514  0.0833  0.2729 -0.0078
18283W        W34757  17.246  16.662  13.416 -0.0592 -0.5194  0.0123
18284W        W34758   3.186  17.257   1.327  0.1388 -0.1937  0.1423
18285W        W34759   1.428   5.406  14.213  0.4245  0.4823  0.1515
18286W        W34760   9.428   6.343   4.299  0.0004 -0.0566 -0.0841
18287W        W34761   1.836   6.278   3.434 -0.0450 -0.1374  0.1655
18288W        W34762  13.179   6.411  14.982  0.3408  0.3590  0.0480
18289W        W34763  16.982  16.482  13.798  0.2321  0.0622  0.2446
18290W        W34764  17.264   3.095   2.952 -0.3374 -0.1011  0.1815
18291W        W34765  10.660   3.731  11.737 -0.1654  0.3614  0.2333
18292W        W34766  10.407  17.744  14.169 -0.2092 -0.0152 -0.2176
18293W        W34767   2.741   2.169  12.003  0.0329 -0.1072 -0.1590
18294W        W34768   4.494   1.386  14.869  0.1075 -0.0569  0.0908
18295W        W34769  10.513   0.623  13.821  0.1644 -0.2099 -0.0955
18296W        W34770   8.487   9.164   5.008 -0.2064  0.1311 -0.0757
18297W        W34771  10.135  10.915  13.567 -0.2062 -0.0040  0.2723
18298W        W34772  15.691   1.473  10.593 -0.0792  0.1181  0.2859
18299W        W34773  12.011   3.060  10.443  0.0557  0.1584 -0.1079
18300W        W34774   9.355   1.048  12.933  0.1616 -0.0901 -0.2661
18301W        W34775  13.583  15.135   1.121  0.1551  0.0791  0.0147
18302W        W34776   5.193  15.408  12.557 -0.1712 -0.0342  0.0338
18303W        W34777   7.901   9.684  13.679 -0.5742  0.1278 -0.1408
18304W        W34778   9.346  12.111   1.587  0.1739 -0.1038  0.1882
18305W        W34779  13.775   1.701  11.818 -0.0635 -0.4827 -0.1309
18306W        W34780  14.292   9.527  11.500  0.0363 -0.2440  0.1171
18307W        W34781  10.926  11.337  13.437  0.0072  0.1508 -0.0553
18308W        W34782   8.888  11.456  13.962  0.0995 -0.0855  0.0666
18309W        W34783   6.475  13.090  14.054 -0.0659  0.0252 -0.1505
18310W        W34784   6.011   2.599   1.358  0.2642 -0.3129  0.1595
18311W        W34785  11.454  14.187   2.872  0.2266  0.1624 -0.1324
18312W        W34786   0.615  14.035   3.873 -0.0725 -0.1826  0.2112
18313W        W34787   7.047  11.025  15.133 -0.3068 -0.1324 -0.0574
18314W        W34788   9.241  11.430   3.648  0.3392  0.1341 -0.2819
18315W        W34789  16.031  12.027  13.778  0.1168  0.0480 -0.3657
18316W        W34790  15.807   8.611  15.099  0.3274 -0.0543  0.2878
18317W        W34791   9.099   6.469   0.919  0.0164 -0.0991 -0.0098
18318W        W34792  17.203  17.018   3.463  0.1421 -0.1120 -0.0031
18319W        W34793   0.389   9.748  14.796  0.0139 -0.3316  0.3333
18320W        W34794  18.603  16.161   2.330 -0.1003  0.2285  0.0045
18321W        W34795  12.401   8.669  12.035  0.0288 -0.2136  0.3825
18322W        W34796  16.184   6.120  13.807  0.3734  0.0648 -0.2040
18323W        W34797   1.415  11.755  11.118  0.0221 -0.0487 -0.0327
18324W        W34798   1.063   1.783   2.585 -0.0275 -0.0589  0.0931
18325W        W34799  13.536  15.862   4.746  0.0922  0.0712 -0.0713
18326W        W34800  18.900  16.556   5.830 -0.2077  0.1267 -0.2757
18327W        W34801  18.502   5.616  12.420  0.2965  0.1193 -0.1325
18328W        W34802  11.256  12.647   0.890  0.0014  0.0025 -0.2760
18329W        W34803   5.466   7.485  14.938 -0.0099 -0.3612  0.0272
18330W        W34804   6.610   7.789   1.482  0.0643 -0.0768  0.2225
18331W        W34805   7.973  18.766  13.319 -0.1366  0.3274  0.1047
18332W        W34806  10.232   9.371   1.029  0.3340 -0.2311  0.1384
18333W        W34807   8.552   8.601   3.541 -0.0002  0.1864 -0.0687
18334W        W34808  13.085  18.736  10.338 -0.1903  0.1565 -0.0967
18335W        W34809   0.924  18.068   5.403 -0.2067 -0.2474 -0.0048
18336W        W34810   7.080  17.916  11.358  0.1670  0.0842 -0.0005
18337W        W34811  15.536  13.229   4.795  0.2395 -0.3274 -0.2007
18338W        W34812   4.200  10.542  10.948 -0.1649 -0.3539  0.1055
18339W        W34813  14.342  14.179   2.299  0.0489  0.0587  0.3053
18340W        W34814   5.554   0.363   5.088  0.1309 -0.2146  0.0616
18341W        W34815  15.159   0.442  10.336 -0.2176  0.4731  0.1604
18342W        W34816  15.118   7.268   4.423  0.0959  0.3994 -0.2063
18343W        W34817  12.556  16.477   3.766  0.3794 -0.2472 -0.2499
18344W        W34818   1.666   6.101   0.575 -0.2988 -0.0110  0.0648
18345W        W34819   3.384  14.741  13.794  0.0293  0.0963  0.0622
18346W        W34820  18.239   1.132   3.977  0.1632 -0.0508  0.2539
18347W        W34821  15.796  10.273  12.087  0.2770  0.0294  0.1260
18348W        W34822  15.905   6.796   1.166  0.2140 -0.1046 -0.0146
18349W        W34823  16.423   9.329   4.478 -0.1370 -0.0694 -0.3823
18350W        W34824   6.559  15.161  14.081 -0.0616 -0.0495  0.1487
18351W        W34825   5.523  12.593  11.677 -0.1519 -0.0483 -0.0876
18352W        W34826   7.133   4.215  12.421 -0.1144  0.3112 -0.2659
18353W        W34827  10.345   7.737   3.469 -0.1912  0.1537 -0.0197
18354W        W34828  15.006   5.154   3.098 -0.2376 -0.1553  0.1279
18355W        W34829   6.439  18.749  11.561  0.1354 -0.3023  0.0832
18356W        W34830  12.881   0.378  13.518 -0.1119 -0.1274  0.2273
18357W        W34831  10.465  14.837  14.545  0.1262 -0.2981 -0.5822
18358W        W34832   2.601   4.440   1.436  0.1008  0.3830  0.2085
18359W        W34833  15.900   3.522  11.765  0.1285  0.1074  0.0275
18360W        W34834  13.713  11.752   0.521  0.0464 -0.0248  0.2998
18361W        W34835   8.388  15.473   0.288 -0.0327 -0.0264  0.0441
18362W        W34836   3.028   8.083  14.431  0.2966  0.2577  0.1297
18363W        W34837  12.285   6.480   3.032  0.1573  0.0044 -0.0514
18364W        W34838  10.257   6.745  15.075  0.2611 -0.2687 -0.2395
18365W        W34839   4.608  12.539   2.970  0.0330 -0.0379  0.0379
18366W        W34840   1.561   9.547   3.746  0.1667 -0.1589  0.2658
18367W        W34841   6.094  14.856   3.225  0.4140 -0.2991 -0.1830
18368W        W34842   3.854   1.404  12.669  0.1163 -0.3114  0.2645
18369W        W34843   9.934  11.271   1.581  0.2946 -0.2877 -0.0585
18370W        W34844   8.376  13.244   3.364 -0.1315  0.0629 -0.0513
18371W        W34845  11.496  13.442  11.478 -0.1672  0.1042 -0.2770
18372W        W34846  11.182   2.743   3.110  0.0619 -0.0863 -0.2962
18373W        W34847  11.575  12.636  11.964 -0.0637 -0.1837  0.0285
18374W        W34848  10.973  12.060   1.530 -0.1316  0.3224  0.2898
18375W        W34849  17.668   9.253   2.333  0.1538 -0.0749 -0.2570
18376W        W34850  15.840   7.223   4.939  0.2664  0.0075 -0.1957
18377W        W34851   1.434  15.277  12.329 -0.0032  0.1599  0.1212
18378W        W34852   0.497   0.013  13.331  0.0344 -0.0142  0.4611
18379W        W34853  16.662   3.590  10.634 -0.0368  0.2821  0.0692
18380W        W34854   7.110  11.070   4.471 -0.1117  0.1687  0.1828
18381W        W34855   7.555   8.837   0.703  0.0496 -0.0612  0.0396
18382W        W34856   2.923   8.834  10.570 -0.0293  0.1437 -0.3201
18383W        W34857   2.825   0.599  13.115  0.0104  0.1438  0.0426
18384W        W34858   0.760   5.572   2.675 -0.0807 -0.0515 -0.1061
18385W        W34859   6.275  10.205   3.031  0.2083 -0.2169 -0.1516
18386W        W34860   3.602   9.000   0.754  0.0807 -0.1038  0.0356
18387W        W34861  15.337  12.470   3.756 -0.0513 -0.0360  0.0717
18388W        W34862  17.017   8.625   1.338  0.0421  0.1365 -0.2519
18389W        W34863   9.800  12.909   1.503 -0.0360  0.2024  0.3316
18390W        W34864   9.470   0.283   1.402 -0.2874 -0.2361  0.0350
18391W        W34865  16.082   4.036  12.490  0.2457  0.2531  0.1549
18392W        W34866  10.175  14.355   0.480 -0.0062 -0.0942  0.0331
18393W        W34867  10.871  15.765  10.683 -0.1414  0.1475 -0.0569
18394W        W34868   8.977  12.487   3.057  0.0943  0.2120  0.1199
18395W        W34869  15.382   6.193  14.033  0.0026 -0.3120 -0.2366
18396W        W34870   0.647  12.038  12.255  0.1403  0.0290 -0.0926
18397W        W34871   1.926  18.392  14.440  0.0680  0.2168  0.0634
18398W        W34872  12.984   6.308   0.584 -0.0060  0.3349 -0.2201
18399W        W34873   8.911   8.955   1.192 -0.1032  0.2995  0.4301
18400W        W34874  11.211  13.589  11.826  0.0539  0.3847  0.1894
18401W        W34875   7.937  14.034  15.125  0.1755  0.3529 -0.1849
18402W        W34876  15.492  10.411  13.185 -0.0588  0.5092 -0.0741
18403W        W34877  13.484   7.219   9.881  0.0426 -0.1209  0.1736
18404W        W34878   1.467   6.285  14.472 -0.0351  0.0522  0.0082
18405W        W34879   5.023  19.065  11.515  0.1999  0.1263  0.0663
18406W        W34880   2.151  15.542   4.299  0.2254  0.1049  0.0996
18407W        W34881   6.991  16.153   0.075 -0.2257  0.0820  0.3163
18408W        W34882  13.295  13.733   3.536  0.2442  0.1649  0.0605
18409W        W34883   1.796  11.025   9.194 -0.1029 -0.2257  0.1363
18410W        W34884   7.663  11.905   0.075 -0.0841  0.1106  0.1525
18411W        W34885  13.762   8.933   1.739  0.3009  0.0180 -0.1764
18412W        W34886  14.973   8.283  13.197  0.3856  0.0668  0.3100
18413W        W34887  14.476  12.845   4.133  0.0524 -0.3910 -0.1126
18414W        W34888   6.527   6.752  14.793 -0.0324 -0.0510  0.0285
18415W        W34889  12.087   7.351   0.048 -0.3160 -0.1828  0.1805
18416W        W34890  14.022  12.470  14.470 -0.0737 -0.1367 -0.1895
18417W        W34891   8.176   2.831   3.192 -0.0972  0.0169  0.1475
18418W        W34892  18.800  11.872  13.612 -0.0205  0.3732  0.1965
18419W        W34893  10.298   1.081   4.292 -0.1879  0.1632  0.1147
18420W        W34894  11.974  15.889   4.429 -0.3489  0.2571  0.1317
18421W        W34895  15.134   0.120  14.967 -0.4620  0.1527  0.2461
18422W        W34896  11.974  15.187  13.887  0.1094  0.0233 -0.3503
18423W        W34897  18.899  10.645  11.877  0.1430 -0.0326 -0.3508
18424W        W34898   8.459  12.878   0.433 -0.1800  0.0862  0.3847
18425W        W34899  15.443   3.965   3.064 -0.0865 -0.1759 -0.1897
18426W        W34900   0.008   3.977  13.772  0.3370  0.3592  0.2975
18427W        W34901   5.993   8.477  11.345 -0.1046  0.0592 -0.1073
18428W        W34902   4.041  13.232   5.123  0.0721 -0.0856  0.2094
18429W        W34903  10.951  18.353  12.551  0.0391  0.0462  0.1520
18430W        W34904   4.956   5.013   0.688 -0.3251 -0.0829 -0.1163
18431W        W34905  18.305   2.183  12.753 -0.0949  0.2447 -0.1215
18432W        W34906  17.082  10.987   2.900  0.0839  0.0820  0.1761
18433W        W34907  17.721   9.943   0.206  0.2333  0.1939 -0.1917
18434W        W34908   4.493   0.482  14.320 -0.0658 -0.3645 -0.1594
18435W        W34909  15.622  18.727  13.395  0.0827 -0.1748 -0.0372
18436W        W34910   0.061   4.068  14.692 -0.1186 -0.1803  0.1094
18437W        W34911  10.264   0.135  12.253 -0.3454 -0.1198 -0.0630
18438W        W34912  13.648  17.130  11.878  0.1847  0.2237  0.3061
18439W        W34913   5.320   1.201   4.743 -0.3044 -0.0049  0.0340
18440W        W34914   1.230   5.538   4.905  0.0988 -0.1251 -0.2355
18441W        W34915  18.384   2.934   0.041  0.4656  0.0200  0.2024
18442W        W34916  15.151   5.179  13.826  0.1733  0.1215  0.3449
18443W        W34917  12.731  18.456  12.175 -0.1687  0.0400  0.2474
18444W        W34918  15.469  10.049  14.145  0.1043 -0.0323  0.0223
18445W        W34919  13.492   4.777  12.883 -0.0209 -0.1449 -0.2770
18446W        W34920  14.223  14.814  12.359  0.1982  0.0550 -0.2545
18447W        W34921  15.286   9.908   0.469  0.2455 -0.1796 -0.0534
18448W        W34922   1.613   2.270   0.589  0.0956 -0.0577 -0.2313
18449W        W34923  11.706   7.222   2.055 -0.1092 -0.0703  0.0106
18450W        W34924   4.080  13.896   0.683  0.2065 -0.2396 -0.1968
18451W        W34925   0.431   5.956  10.079  0.2791 -0.2362 -0.0680
18452W        W34926   6.515  15.295   1.035 -0.1625  0.2011 -0.0304
18453W        W34927   8.086  12.876   2.946  0.2453 -0.1413 -0.0833
18454W        W34928  10.798   1.432  12.848 -0.0807 -0.1573  0.3454
18455W        W34929   9.622  18.389   2.371 -0.2669 -0.0598  0.1876
18456W        W34930   2.530   3.258   2.109 -0.2803 -0.0347  0.1013
18457W        W34931  17.802  17.302  11.337 -0.2643  0.0831 -0.2068
18458W        W34932   7.258   3.593   9.445 -0.0772 -0.0909 -0.0252
18459W        W34933   7.387  11.737   4.005  0.2219  0.1723 -0.2029
18460W        W34934   0.213   9.884   1.180 -0.1918 -0.1926  0.1097
18461W        W34935   1.733   0.148   0.607  0.1264 -0.0903 -0.0786
18462W        W34936   3.915   1.990   4.495 -0.1284 -0.3145  0.1940
18463W        W34937   3.833   0.970   5.145  0.0009  0.2236  0.0728
18464W        W34938   5.737  17.784  13.394 -0.1991  0.0203  0.2765
18465W        W34939   4.487  15.445  15.055  0.4332  0.0544 -0.1145
18466W        W34940  19.158  12.361  11.220 -0.2534 -0.1524 -0.0060
18467W        W34941  18.404  10.892   2.646 -0.4884 -0.1730 -0.1528
18468W        W34942   0.326   5.255  14.432 -0.2215 -0.2554 -0.1606
18469W        W34943  18.135   5.976  11.386  0.0102 -0.1393 -0.2185
18470W        W34944   9.509  13.164   4.654 -0.0504 -0.0291 -0.1272
18471W        W34945   2.777  14.952   2.967  0.1676 -0.0877 -0.1626
18472W        W34946  14.835  17.563  14.376  0.1880  0.2451  0.0538
18473W        W34947   4.242   1.029   0.923  0.0691 -0.0397  0.0157
18474W        W34948  12.238   2.579  14.873  0.2210  0.0700  0.2017
18475W        W34949  18.183   8.981  14.635 -0.1287  0.1021 -0.0982
18476W        W34950   3.178   6.649   1.975 -0.2096  0.0767  0.1027
18477W        W34951   3.935  11.134  14.027 -0.0042 -0.1089 -0.0427
18478W        W34952  14.379   7.019  10.778  0.1771  0.0301 -0.1925
18479W        W34953  13.383   9.065   0.304 -0.0128 -0.3930 -0.1057
18480W        W34954  15.756   5.978  12.363 -0.0598 -0.2059 -0.1649
18481W        W34955  11.845   3.386   1.047  0.0118  0.0467 -0.1807
18482W        W34956   2.423   2.227   5.513  0.0365 -0.2416 -0.2368
18483W        W34957   7.916   1.904   5.015 -0.3414  0.0891  0.2460
18484W        W34958   9.069   9.037  14.498 -0.1900  0.1898  0.3856
18485W        W34959   4.557  14.291  12.174  0.0366 -0.2470  0.0491
18486W        W34960   1.784   1.892   5.215 -0.0006  0.0844 -0.0490
18487W        W34961   0.608   2.150  14.898 -0.1184 -0.3304  0.0218
18488W        W34962   8.023   7.803  13.728  0.3004  0.0377 -0.1389
18489W        W34963  10.255  12.229   5.571  0.1376  0.4093 -0.1401
18490W        W34964   9.135   0.782  14.356 -0.1762 -0.2185  0.1095
18491W        W34965   5.463  17.260   4.813  0.2502  0.0935  0.0426
18492W        W34966   1.585  14.407  11.650  0.1402  0.3645  0.1916
18493W        W34967   3.354   3.671   5.734  0.0456 -0.2418 -0.0138
18494W        W34968   8.757  13.619   0.257  0.1496  0.0575  0.1014
18495W        W34969  11.460  10.592   1.650 -0.1514  0.1154  0.0973
18496W        W34970  17.561  18.139  11.955  0.1839 -0.0302 -0.2156
18497W        W34971   8.368   1.728  12.348  0.1447 -0.1193  0.3781
18498W        W34972   3.731   8.432  12.317 -0.2869 -0.1130 -0.1247
18499W        W34973   8.248  18.364   4.716 -0.1622  0.1349  0.2971
18500W        W34974   4.911  13.887   0.375 -0.2939 -0.0346  0.3647
18501W        W34975  18.938  18.555  13.020  0.0914 -0.2969 -0.2739
18502W        W34976   7.632   0.434  10.839 -0.2063  0.2484 -0.0706
18503W        W34977  16.808   1.763   1.533  0.1168  0.0392  0.1000
18504W        W34978   2.378  19.006   1.479 -0.1582  0.1703 -0.0504
18505W        W34979   3.158   8.724  13.247 -0.4647  0.1268 -0.0106
18506W        W34980  16.003  18.815  10.370  0.2618  0.1694  0.1872
18507W        W34981  13.128  17.106   3.965  0.1753  0.2326 -0.1716
18508W        W34982   7.656   8.369   0.513  0.3950  0.0342  0.1169
18509W        W34983   2.360  13.587  11.268 -0.3421 -0.0802 -0.0398
18510W        W34984  17.409   5.782   3.888  0.0818  0.3302 -0.1483
18511W        W34985   3.951  10.545  11.354  0.3481  0.0249  0.2593
18512W        W34986   3.287   3.983  13.711  0.0851  0.0313 -0.5109
18513W        W34987  13.374  10.795  11.492 -0.1683 -0.1998 -0.1914
18514W        W34988   5.424  15.876   3.121  0.1592 -0.3169  0.0616
18515W        W34989  16.955  10.718   0.300 -0.1492  0.2397 -0.1809
18516W        W34990   4.073   6.096  10.848 -0.1364  0.3734  0.1583
18517W        W34991   4.097  15.327  11.001 -0.2086 -0.0772  0.0504
18518W        W34992  14.470   1.398   5.581  0.1682  0.2672  0.1320
18519W        W34993  16.177   5.543  14.628 -0.2002  0.1680 -0.0627
18520W        W34994   2.753  10.224  14.127 -0.1163  0.1779  0.0073
18521W        W34995  16.147   7.402   2.776 -0.0385 -0.2081  0.0392
18522W        W34996   5.380  12.837   3.932  0.2130  0.0213 -0.2521
18523W        W34997   2.759   2.841  13.180  0.0446 -0.0587 -0.1837
18524W        W34998  18.231  15.683  11.560  0.2584 -0.0157  0.1489
18525W        W34999  13.138   5.107  12.942 -0.0743 -0.2131  0.4815
18526W        W35000  12.174  15.925   5.559 -0.2618  0.1349  0.1603
18527W        W35001  14.640  11.418  14.736 -0.0756  0.1233 -0.3252
18528W        W35002   5.295  16.990   1.812 -0.0003 -0.1921 -0.2315
18529W        W35003   2.113  16.578   6.142 -0.2286 -0.3382 -0.1062
18530W        W35004   2.151   1.153   0.948  0.1630 -0.0707  0.1273
18531W        W35005   7.880  14.665  10.959 -0.3346  0.4621 -0.1264
18532W        W35006   2.896  10.231  12.273  0.0907  0.2239 -0.1689
18533W        W35007  10.372  18.713  14.438  0.2882  0.0404 -0.0837
18534W        W35008   4.068  14.653   1.397 -0.0703 -0.2111 -0.0997
18535W        W35009  18.777   3.289   2.730  0.4289  0.0848  0.1594
18536W        W35010  11.555   4.888  14.506 -0.1913  0.1687 -0.1852
18537W        W35011   8.154  10.978   3.011  0.1496 -0.1715  0.0853
18538W        W35012  11.651   5.374  15.093  0.2823  0.0430 -0.4440
18539W        W35013  12.831  14.629  13.890  0.0860  0.1749  0.1457
18540W        W35014  18.366  10.204  13.663 -0.0257  0.1336 -0.0998
18541W        W35015  11.971  13.249  11.371  0.0459 -0.1839  0.2365
18542W        W35016   8.204   7.439  10.669 -0.2874  0.0255  0.0727
18543W        W35017  15.070   6.520  15.119  0.1268 -0.0547  0.1450
18544W        W35018   2.427  14.637   1.153  0.1781 -0.0979 -0.3927
18545W        W35019  14.197   3.088   1.168  0.2202  0.1367 -0.2707
18546W        W35020   6.517  10.201  10.786  0.2412  0.0492 -0.3283
18547W        W35021  15.959  11.788   5.844 -0.0347 -0.0849 -0.3874
18548W        W35022   0.479   1.261   2.190 -0.0118  0.0058 -0.3371
18549W        W35023  10.597  19.009   3.709 -0.3852 -0.0279  0.1934
18550W        W35024  16.303   3.678   4.707 -0.1411 -0.0569 -0.0098
18551W        W35025   6.268  14.928  11.192 -0.0728 -0.0440 -0.3200
18552W        W35026  18.774  15.320   1.662  0.3090  0.0098  0.1175
18553W        W35027   6.302   5.815   1.308  0.0166 -0.3575  0.0051
18554W        W35028   4.585  15.147   0.346 -0.3571  0.0672 -0.3307
18555W        W35029   5.467  12.783   5.090 -0.1448 -0.2061  0.0304
18556W        W35030  17.916  13.732   3.455 -0.1715 -0.1606  0.1331
18557W        W35031   0.501   7.802  12.856 -0.0765 -0.0680 -0.0365
18558W        W35032   7.026   2.184   3.696 -0.0037 -0.2106 -0.2552
18559W        W35033  10.500   8.887  11.108 -0.2429  0.5394 -0.0731
18560W        W35034   6.628  19.114   4.441 -0.0977 -0.0626  0.0410
18561W        W35035   4.750  13.617  11.116  0.1332 -0.0310 -0.1044
18562W        W35036   0.089   9.411  13.545  0.1211  0.1205  0.2140
18563W        W35037   8.754  12.068   3.230  0.0631 -0.4426  0.1918
18564W        W35038   2.413   4.521  12.922 -0.0545  0.2217 -0.1331
18565W        W35039  11.801   3.795  13.696 -0.0090 -0.2481 -0.3270
18566W        W35040   8.058  13.230   1.679 -0.1579 -0.0642  0.0813
18567W        W35041   4.343   0.647   2.436 -0.0893  0.1150 -0.0963
18568W        W35042   6.614  12.894  12.911  0.2543 -0.5123  0.1832
18569W        W35043   9.869   3.139   1.878  0.1753  0.0726  0.0897
18570W        W35044   1.815   7.231  11.482  0.4864  0.1011 -0.1013
18571W        W35045   4.764   1.746   0.431 -0.2099 -0.2574  0.1429
18572W        W35046   2.760   4.809  11.176 -0.0770 -0.4095 -0.0377
18573W        W35047   4.308  17.394   1.973  0.0030  0.0096 -0.0572
18574W        W35048  10.653  11.490   2.211 -0.3182 -0.3267  0.2470
18575W        W35049   2.306   6.443  11.557  0.3289 -0.2490 -0.1174
18576W        W35050   3.836  17.568   5.362  0.0459 -0.0405  0.0250
18577W        W35051   5.641   3.774   0.513  0.0130 -0.0427  0.0155
18578W        W35052   4.490   3.593  11.614  0.2137  0.0826 -0.3641
18579W        W35053  11.174   4.687   4.778 -0.0056  0.3171 -0.2964
18580W        W35054   8.922  16.777  14.817  0.1837 -0.2861  0.0412
18581W        W35055   8.513  10.226   0.055 -0.2411 -0.0316  0.0500
18582W        W35056  15.666  11.270   2.906  0.0706 -0.2002 -0.1153
18583W        W35057   5.725   1.906  12.860 -0.0011 -0.2789  0.0399
18584W        W35058   4.112  14.438   3.532 -0.0859  0.0105 -0.0778
18585W        W35059  18.705  15.181   2.759 -0.1072 -0.1771  0.1387
18586W        W35060   8.232   4.011   2.368 -0.1297 -0.1291  0.1405
18587W        W35061   1.960  12.593  11.259  0.2409  0.0658  0.0220
18588W        W35062  15.200   4.307  11.449 -0.0696  0.1194 -0.3123
18589W        W35063   1.492  12.774   0.456  0.2210 -0.1019  0.0368
18590W        W35064   4.228   7.211   0.896 -0.0644  0.1250 -0.3072
18591W        W35065   4.529   3.101   3.851  0.0906 -0.2057  0.1732
18592W        W35066   1.250   2.704   5.087  0.1793  0.2375  0.0620
18593W        W35067   0.810   7.146   1.699 -0.1207 -0.3315 -0.1785
18594W        W35068  11.584  12.498   4.351 -0.0826 -0.0662 -0.0439
18595W        W35069  13.639   5.632   4.122  0.0666 -0.0342 -0.4958
18596W        W35070  15.394  13.257   0.825 -0.3605  0.0611  0.0990
18597W        W35071  12.949  17.446  12.542 -0.0456  0.1515  0.0377
18598W        W35072   2.733  13.660   0.305 -0.0143 -0.0304  0.0575
18599W        W35073   3.783  15.761   3.925 -0.1113 -0.0039  0.0462
18600W        W35074  10.759   3.891   4.587 -0.0536 -0.0399  0.1842
18601W        W35075   6.048  17.159   2.390 -0.0293  0.0812  0.2164
18602W        W35076  14.572   8.869   2.866  0.1827 -0.1052 -0.2401
18603W        W35077   9.676   0.671   1.804  0.2862 -0.2535  0.1498
18604W        W35078   2.577   5.620   5.145 -0.0826 -0.2079 -0.1087
18605W        W35079  10.732  11.047   0.396 -0.0950 -0.0258 -0.0835
18606W        W35080  17.762   2.470   3.988  0.0944 -0.1513  0.1604
18607W        W35081   1.947   2.013  13.035 -0.0631  0.0549  0.0922
18608W        W35082   9.909   4.036   2.259  0.0618  0.0885  0.3517
18609W        W35083  17.320  16.650   9.597  0.2138 -0.0828  0.0044
18610W        W35084  18.302   2.410  13.836 -0.2506 -0.0822 -0.1459
18611W        W35085  16.443  13.488   5.007 -0.2199 -0.0891  0.0471
18612W        W35086   7.103  10.663   1.145 -0.2196 -0.1564  0.0672
18613W        W35087   5.405  12.482   0.633  0.1561  0.2559  0.2847
18614W        W35088   0.265   4.456  12.928  0.2087  0.1459 -0.1645
18615W        W35089   6.071  15.784   0.605 -0.2491  0.0334 -0.1242
18616W        W35090  13.999   5.327   1.431  0.3293 -0.1532  0.0201
18617W        W35091  18.268   2.446  14.416 -0.0080  0.1776  0.0609
18618W        W35092   1.242   7.079   0.307  0.2708  0.0539 -0.1674
18619W        W35093  10.536   5.798  12.967  0.0763  0.0248  0.2862
18620W        W35094   5.739  17.003   3.749 -0.4154  0.2332 -0.2116
18621W        W35095  16.970   5.842  12.674 -0.0694 -0.1001 -0.1531
18622W        W35096  12.643  10.372   2.494  0.0226 -0.0966  0.1701
18623W        W35097  16.680  10.769   2.602  0.2635 -0.5289 -0.0262
18624W        W35098   4.220   4.548   5.783  0.0143  0.0623 -0.0639
18625W        W35099   9.260   5.645   0.821 -0.0300 -0.0309  0.2599
18626W        W35100  11.967  15.588   4.017 -0.0173 -0.0249  0.1811
18627W        W35101  14.629   1.934  13.811  0.1248  0.1183  0.0652
18628W        W35102   8.089  13.449   2.989  0.1734 -0.3265  0.1216
18629W        W35103   3.318  15.210   2.002 -0.4033 -0.1854 -0.0254
18630W        W35104   4.328  17.423  11.155 -0.3352 -0.1144  0.2188
18631W        W35105   7.259  19.111  13.427  0.3827 -0.0279  0.2483
18632W        W35106   2.264  11.211  10.499  0.2106 -0.0067 -0.2576
18633W        W35107  18.305  15.818   2.566  0.0294 -0.3449 -0.2667
18634W        W35108   3.076   3.578   0.784  0.1180 -0.0654 -0.2231
18635W        W35109   9.992  18.577   0.128  0.1189  0.1203 -0.3472
18636W        W35110  11.780   9.736  13.750 -0.0831 -0.3325  0.0160
18637W        W35111   4.664  13.231   1.222 -0.2741 -0.2897 -0.0958
18638W        W35112   9.154   9.883  13.335 -0.1263  0.1617 -0.0252
18639W        W35113   5.606  11.526  12.064  0.4481 -0.2942  0.0846
18640W        W35114   1.809   3.208  11.359 -0.1390 -0.0674 -0.0764
18641W        W35115   0.447   7.629   3.638 -0.0930  0.0960 -0.0443
18642W        W35116   6.763  12.494  11.987  0.0975  0.1613 -0.0230
18643W        W35117  13.726   0.243   2.040 -0.1536 -0.0212  0.1565
18644W        W35118   0.290   9.128  14.877  0.1307 -0.0937  0.1170
18645W        W35119   2.955  18.714   4.800 -0.1999  0.0354  0.0896
18646W        W35120  14.065   6.549  13.754 -0.2635  0.0133 -0.0399
18647W        W35121  10.709   9.308  11.878 -0.1152 -0.0569 -0.2205
18648W        W35122   9.537  10.817  11.871  0.1981 -0.1940 -0.0100
18649W        W35123  11.169   8.439   2.420 -0.0217 -0.0055  0.0769
18650W        W35124   8.509   0.368  11.366  0.1246 -0.1181 -0.2062
18651W        W35125   0.983   1.809   0.716  0.1251  0.2147 -0.0196
18652W        W35126  14.388  16.607   5.100  0.1286 -0.0395  0.1090
18653W        W35127  17.458  11.053   4.808 -0.0176  0.0277  0.3300
18654W        W35128   8.832   0.181  11.810  0.0385  0.0121 -0.0694
18655W        W35129   0.593   3.519   1.505 -0.0594 -0.0028  0.5427
18656W        W35130  13.385   6.984  10.784 -0.1426  0.3841 -0.1811
18657W        W35131   0.514   2.293   3.221  0.3371 -0.0086  0.1280
18658W        W35132  16.066   2.154   3.703 -0.0786  0.5366 -0.0037
18659W        W35133   9.846   4.277  14.601 -0.0254  0.1577  0.0534
18660W        W35134  10.133  11.635  12.780 -0.0131 -0.0762 -0.2563
18661W        W35135  17.244   9.910  12.800 -0.2199 -0.0524 -0.1780
18662W        W35136  10.452  10.764   1.435 -0.0695 -0.1585 -0.1911
18663W        W35137  10.792  10.848   4.223  0.4553  0.1420  0.2351
18664W        W35138  13.419   1.594   1.693 -0.1510  0.1295  0.0811
18665W        W35139   5.255   0.294  10.573  0.0836 -0.1514  0.0154
18666W        W35140  11.415   8.260   1.937  0.0044  0.2500 -0.0706
18667W        W35141  17.366  10.095  11.445 -0.0476 -0.1908  0.2040
18668W        W35142   0.453   6.371  14.703  0.2837  0.0154  0.0462
18669W        W35143  17.764  19.027  14.708 -0.1840 -0.0985  0.0064
18670W        W35144  12.703   9.011   4.437  0.0640  0.2683  0.1223
18671W        W35145   2.793  12.101   0.412 -0.0224 -0.1689 -0.3570
18672W        W35146   2.357  16.464   4.697 -0.1670 -0.0970  0.0963
18673W        W35147   0.963  16.929  12.025  0.0017  0.0626  0.0820
18674W        W35148  12.559   7.273   3.387 -0.0619 -0.0751 -0.0271
18675W        W35149   5.825  10.718  13.905 -0.0971 -0.0643  0.0437
18676W        W35150   0.589   8.696   4.638  0.0497 -0.0024  0.0370
18677W        W35151  12.684  15.158  10.930 -0.1799  0.0160 -0.3375
18678W        W35152   6.677   1.773  13.862  0.0861 -0.1305  0.0712
18679W        W35153   7.446  15.667   1.745  0.1583 -0.0288 -0.0481
18680W        W35154   5.214   2.708  13.631 -0.2319 -0.2240  0.2312
18681W        W35155  14.377  10.229  12.271  0.2762 -0.0551 -0.0822
18682W        W35156   3.049   4.867  12.092 -0.2759  0.0228 -0.0258
18683W        W35157   2.618  17.972   5.118 -0.1536  0.1239 -0.1476
18684W        W35158   1.031  18.426  14.964 -0.2096  0.2412  0.2835
18685W        W35159  13.381  13.698  11.526  0.2154  0.1902  0.0285
18686W        W35160  10.186   7.226  12.250  0.0917  0.1167  0.1346
18687W        W35161  10.678   2.469   3.814 -0.1841  0.1498 -0.0189
18688W        W35162   9.846   6.699   1.639  0.3028  0.0914  0.0049
18689W        W35163  12.737   1.913  14.714 -0.0835 -0.0131 -0.0082
18690W        W35164  17.183  18.369  13.638  0.2999  0.0897  0.2561
18691W        W35165   8.537   8.475  13.184 -0.0382  0.1298  0.0902
18692W        W35166   4.472  12.026  13.005 -0.2221  0.1874  0.2466
18693W        W35167   3.797   5.202   0.196  0.1171  0.0018 -0.0725
18694W        W35168  13.537  15.702  14.589  0.3479  0.0900 -0.1559
18695W        W35169  13.674   7.290   4.843  0.1381  0.1683 -0.1687
18696W        W35170  10.534   3.510   1.286  0.0007  0.1853 -0.2700
18697W        W35171   3.237  17.064   3.413  0.1218 -0.1354  0.1004
18698W        W35172  12.140   3.675  14.740 -0.2410  0.1570 -0.1181
18699W        W35173   9.471   7.498   3.754  0.0940 -0.0691 -0.0433
18700W        W35174   9.368   2.463   3.904 -0.2457 -0.0009  0.0194
18701W        W35175  16.630  16.422  11.253 -0.0061 -0.1237 -0.0387
18702W        W35176  12.415   8.368   1.943 -0.1354  0.0035  0.4552
18703W        W35177   5.263   8.888   0.706  0.1284 -0.0231  0.0569
18704W        W35178   2.150   0.276  10.503 -0.1151 -0.2197 -0.2959
18705W        W35179   5.683   9.637   1.566 -0.3869  0.0808  0.1653
18706W        W35180   7.617  17.065   4.145  0.2375  0.0726 -0.1339
18707W        W35181  18.195  11.836   5.174  0.0412 -0.0352  0.2183
18708W        W35182  18.570   9.064   2.644 -0.3553 -0.1441 -0.3317
18709W        W35183  15.326  12.702   2.589  0.0561 -0.0121  0.2336
18710W        W35184  10.093   2.814  12.895 -0.3282 -0.2260  0.0486
18711W        W35185   5.351   4.554  15.064  0.1228  0.2099  0.3510
18712W        W35186  14.417   2.716   0.553 -0.0009  0.3349  0.1354
18713W        W35187   1.804   6.748  11.598 -0.1432 -0.2183 -0.1753
18714W        W35188  13.747  17.683  12.751  0.3773 -0.1452 -0.0263
18715W        W35189   6.858   2.379  14.738 -0.1529 -0.3169  0.3979
18716W        W35190   9.455   5.279  14.677  0.0236  0.0869 -0.1138
18717W        W35191   0.030  17.095   5.189 -0.1347 -0.1371 -0.0036
18718W        W35192  10.924  12.204  14.093 -0.0382  0.2820  0.0233
18719W        W35193   3.997   6.347   3.521 -0.0282  0.0142  0.1202
18720W        W35194  10.850   2.598   5.185  0.4070  0.0219  0.2150
18721W        W35195   3.502  17.757   3.800 -0.2570 -0.1199 -0.0804
18722W        W35196  17.383   4.822   3.648  0.5115 -0.0125  0.0182
18723W        W35197  10.980  10.380   1.696 -0.0737  0.0599 -0.0508
18724W        W35198  16.223   5.331  15.100  0.1691  0.1069  0.0390
18725W        W35199   3.800   6.373  11.123 -0.0022  0.1037 -0.1632
18726W        W35200   1.525   6.199  12.521  0.1074 -0.2490  0.4451
18727W        W35201   6.364   7.818   0.078 -0.1128 -0.1432  0.0768
18728W        W35202   2.401   8.499   1.507 -0.3537  0.0641 -0.1230
18729W        W35203   3.537   2.764   2.896 -0.1160  0.0755 -0.1238
18730W        W35204  15.206   5.839   3.002 -0.0001  0.2844  0.0270
18731W        W35205   3.667   9.942   1.141 -0.1871  0.0497 -0.0005
18732W        W35206   3.963  18.994  10.095 -0.1302 -0.3219  0.0383
18733W        W35207  12.792   7.373   5.125 -0.3446  0.1735  0.1631
18734W        W35208   3.116  14.690  10.757 -0.0557 -0.0255  0.4309
18735W        W35209  11.019  18.798  10.602 -0.0299  0.0734  0.0749
18736W        W35210  10.758   4.997   1.600  0.1607  0.0629  0.1851
18737W        W35211  13.784   1.407   1.357 -0.0109 -0.2625  0.0191
18738W        W35212  17.596   1.471   2.168  0.0407 -0.1410 -0.1006
18739W        W35213   0.891   6.768  14.780 -0.0316  0.1716  0.1499
18740W        W35214   9.065  10.761   2.724 -0.2837 -0.1303 -0.2213
18741W        W35215   1.346   6.092   4.794 -0.3214  0.2095  0.1439
18742W        W35216   5.303   9.304   1.602  0.0141 -0.0021 -0.1214
18743W        W35217  10.552   2.919  13.197  0.0312 -0.2553  0.5326
18744W        W35218  15.884   7.610   4.017 -0.1985  0.2425  0.3091
18745W        W35219  18.284  11.073   1.755 -0.0101  0.1657  0.3032
18746W        W35220   8.488  11.780   0.402 -0.0031 -0.2011 -0.0084
18747W        W35221   4.006  16.165  13.296 -0.0372 -0.2815  0.0502
18748W        W35222  18.968   9.408  13.977 -0.0039  0.1119  0.3006
18749W        W35223  15.555  15.994  11.204  0.3065 -0.2528 -0.1715
18750W        W35224  10.591   6.502   2.732 -0.0576  0.0323 -0.0144
18751W        W35225  14.413  18.607   3.338 -0.2995 -0.0738 -0.1813
18752W        W35226  13.912  18.396  11.827 -0.2495 -0.0008  0.4359
18753W        W35227   6.492  15.376  10.530  0.4247  0.4305  0.1918
18754W        W35228  10.217   7.018  14.590 -0.2608 -0.1658 -0.1746
18755W        W35229   4.718  17.009  11.064 -0.1791 -0.0958 -0.0092
18756W        W35230  16.126   2.234  13.218 -0.1250 -0.0247  0.0593
18757W        W35231  17.543   8.392  12.002 -0.2901 -0.0597  0.0881
18758W        W35232  10.234   0.529  14.972  0.2041  0.0790  0.0541
18759W        W35233  15.859   7.632  10.793 -0.1640  0.2503 -0.1434
18760W        W35234  16.245  13.715  13.472  0.0024  0.1421 -0.0466
18761W        W35235   2.715   2.404   1.456  0.0840 -0.0419 -0.0814
18762W        W35236  13.694  11.990   4.192  0.0768  0.0869 -0.0454
18763W        W35237  15.519   6.462  12.509  0.1082 -0.0767 -0.1675
18764W        W35238   5.311   4.816   2.102  0.0354 -0.0223  0.0170
18765W        W35239   6.311  14.552   2.685  0.0170 -0.0941  0.0541
18766W        W35240  16.158   2.472  12.704 -0.2828  0.2124  0.0093
18767W        W35241   0.001  11.054   0.494  0.1237 -0.1241  0.0967
18768W        W35242   9.028  16.836   2.778  0.2606  0.1180 -0.2599
18769W        W35243  15.102  11.437  11.702  0.1235  0.0572  0.3261
18770W        W35244  10.632  18.592   0.661  0.2130 -0.2410  0.1918
18771W        W35245   3.346   5.013   1.741 -0.2998 -0.0349 -0.3315
18772W        W35246   9.508  11.200   4.049  0.2575 -0.0362  0.3196
18773W        W35247   9.306  10.082  14.016 -0.0088 -0.0305 -0.2768
18774W        W35248   6.572   0.385   3.304  0.1277  0.1287  0.2454
18775W        W35249   4.436  12.713   0.499  0.0492 -0.2220 -0.1115
18776W        W35250   0.399   2.205   5.027 -0.4520 -0.2497 -0.2811
18777W        W35251   4.590   5.607   1.772  0.0103 -0.6454 -0.0523
18778W        W35252   1.597   5.200   3.380  0.1233 -0.3162 -0.2585
18779W        W35253  12.151  11.500   4.481 -0.3326 -0.2918 -0.1112
18780W        W35254  10.526   1.421   1.816  0.1748  0.0258 -0.2812
18781W        W35255   7.594   1.945   3.225 -0.2304  0.1803 -0.0092
18782W        W35256   2.492  10.099   0.031  0.2117 -0.1325 -0.1098
18783W        W35257   7.830   7.325   0.361 -0.2091 -0.2147 -0.1500
18784W        W35258  16.539  11.200   3.586 -0.0608 -0.2100 -0.0404
18785W        W35259  16.899  13.286   9.859  0.0491  0.1229 -0.0444
18786W        W35260   2.539   0.261  10.899  0.1552 -0.1591 -0.1123
18787W        W35261  11.865  16.160  11.740 -0.1113  0.2826 -0.3287
18788W        W35262  12.327   8.654   2.959  0.0426  0.1479  0.2098
18789W        W35263  13.004  14.745   3.473  0.1657  0.1599  0.0081
18790W        W35264  10.782  16.513   0.197 -0.3243 -0.0918 -0.0337
18791W        W35265  12.194   2.164   1.281  0.0003  0.0477 -0.1258
18792W        W35266   0.737   9.235  10.131 -0.0236 -0.0515  0.1821
18793W        W35267  13.106  12.912  11.127 -0.1375  0.0944 -0.1130
18794W        W35268  14.870  13.305   0.764 -0.2921  0.1227 -0.0599
18795W        W35269   0.433  16.422   2.396 -0.0197 -0.2818  0.1971
18796W        W35270  16.908  16.544   1.139  0.0168 -0.0543  0.1456
18797W        W35271   2.728  14.777  12.007 -0.1337  0.1060 -0.0647
18798W        W35272  17.631   7.107   0.685 -0.2020 -0.1014  0.4193
18799W        W35273  18.057   2.824   2.352  0.0965  0.1026  0.2055
18800W        W35274  15.236   4.402  14.485  0.2027  0.0998 -0.2659
18801W        W35275  10.225   3.734  14.427  0.1065 -0.0235 -0.0764
18802W        W35276  10.801   3.793   0.278 -0.0541  0.1716  0.0638
18803W        W35277   8.230  16.090  14.694  0.1099  0.1543 -0.0436
18804W        W35278  12.609  17.695   3.283 -0.1127 -0.4414 -0.0197
18805W        W35279   6.742  14.920  13.152 -0.0378 -0.0612 -0.0510
18806W        W35280   0.145   0.316  13.130 -0.1730 -0.1946 -0.0854
18807W        W35281   7.424  14.059  10.272  0.6363  0.3663  0.1494
18808W        W35282   1.508   5.710  13.667  0.0566 -0.1682 -0.0541
18809W        W35283  17.000  13.928  13.277  0.2513 -0.5635  0.3077
18810W        W35284  16.703  14.689  12.742 -0.1950 -0.1053 -0.0080
18811W        W35285   4.234   7.666  13.743 -0.0008  0.3600 -0.0112
18812W        W35286   4.087   1.075   1.471  0.3785  0.1740  0.2848
18813W        W35287   8.317  15.548   2.095  0.0280  0.0833 -0.4282
18814W        W35288  12.676   4.188   1.663 -0.0834  0.0837 -0.0661
18815W        W35289   7.277   6.475  12.335  0.1801  0.0643  0.3889
18816W        W35290  11.219   6.674   4.614  0.0615  0.3157 -0.2208
18817W        W35291   9.670  17.881   1.080 -0.0872 -0.0963 -0.1497
18818W        W35292   2.059   2.534   4.536 -0.1711 -0.0144  0.0218
18819W        W35293  11.915  18.426  13.752  0.2228  0.1928 -0.1601
18820W        W35294  18.057   4.597  11.093 -0.1993 -0.0653 -0.2864
18821W        W35295  18.142  11.803   0.509  0.2830 -0.3826 -0.3585
18822W        W35296  11.221   5.751  11.546 -0.0036  0.0759 -0.0357
18823W        W35297  16.710   6.305  11.377 -0.1325 -0.2721  0.0568
18824W        W35298   6.366  13.912  12.851  0.2700 -0.0432  0.2583
18825W        W35299  10.433  18.216   0.882 -0.0200  0.0122 -0.0977
18826W        W35300  16.501   4.224   9.795  0.4608  0.2221 -0.0682
18827W        W35301  17.440  14.089  13.225  0.0478 -0.1489 -0.1950
18828W        W35302   9.963   1.918   0.476  0.0755 -0.2792  0.2220
18829W        W35303  18.852   1.859   1.895  0.0358 -0.2006  0.0278
18830W        W35304   9.197   0.927  11.568  0.0277 -0.3063  0.2558
18831W        W35305   5.791   6.786  10.175  0.0457  0.2201  0.0676
18832W        W35306  14.624  14.438   3.918 -0.2163 -0.3287  0.1732
18833W        W35307   9.349   6.098  14.131 -0.2285  0.1917  0.2662
18834W        W35308  11.371   9.121  13.121 -0.0837 -0.1129 -0.1093
18835W        W35309  15.483   9.615   3.453 -0.0373 -0.1965  0.0810
18836W        W35310  17.042   6.933  12.643  0.2190  0.1110 -0.2486
18837W        W35311  13.559   0.919   2.065  0.2430 -0.0728 -0.2070
18838W        W35312  11.002  18.895  13.166  0.1390  0.3966  0.1251
18839W        W35313   5.425   3.338  14.631  0.1579  0.0928 -0.0529
18840W        W35314  12.600   2.052  13.717  0.0962 -0.1004  0.0801
18841W        W35315   7.658  14.466  14.755  0.1025  0.1560 -0.1399
18842W        W35316   9.699  15.933  10.018 -0.1292 -0.0744  0.0698
18843W        W35317   1.575   6.998   0.717  0.1028 -0.0198 -0.0880
18844W        W35318   8.617   6.424  11.333 -0.0182  0.1555 -0.1486
18845W        W35319   1.817  18.687   1.514  0.1128  0.0389 -0.1918
18846W        W35320  17.393   9.595  11.659  0.2027 -0.2242  0.0620
18847W        W35321  16.914  18.711  13.868  0.0678  0.2937 -0.0562
18848W        W35322  17.470  16.984  13.841 -0.1693  0.3599 -0.0621
18849W        W35323  16.168   5.851   3.379  0.2039 -0.1274 -0.1295
18850W        W35324  16.517  12.561  15.143 -0.0713 -0.2982 -0.0769
18851W        W35325   4.322  10.499  15.043  0.1787  0.0654 -0.1649
18852W        W35326  16.332  17.823  15.082 -0.2329 -0.1214  0.0841
18853W        W35327   2.999   9.049  15.070 -0.3464 -0.0158  0.0007
18854W        W35328   3.307  12.457   0.624 -0.1071  0.1311  0.0550
18855W        W35329   9.942   7.367   9.855 -0.3521  0.2745 -0.0803
18856W        W35330   9.422  19.057   0.716 -0.0581 -0.1054 -0.2739
18857W        W35331  10.507   8.281  12.943  0.1462  0.0806  0.0823
18858W        W35332  13.775   7.922  13.506 -0.1687  0.1943  0.0443
18859W        W35333   3.837  16.926   1.950  0.3776  0.2897  0.1205
18860W        W35334   6.420   5.773   1.800  0.0616  0.2054 -0.0208
18861W        W35335   5.866  16.397   4.474  0.2260 -0.0806 -0.2456
18862W        W35336  16.009   9.808   4.136 -0.0888 -0.3437 -0.4692
18863W        W35337   3.695  15.374   3.469  0.2447  0.4459 -0.0239
18864W        W35338  11.984   2.351   4.409 -0.1417 -0.1507 -0.2306
18865W        W35339  17.017   3.609   5.809  0.0890 -0.2133  0.2473
18866W        W35340   9.786  16.801  13.357 -0.3273 -0.0376 -0.0759
18867W        W35341  16.208  14.236  14.245  0.0005  0.1399 -0.4462
18868W        W35342  14.577   8.913   4.345 -0.0199 -0.1548 -0.2994
18869W        W35343   5.078  11.607   4.388  0.0271 -0.1375 -0.1736
18870W        W35344   2.691   2.748  13.658 -0.1162 -0.0835 -0.0670
18871W        W35345  16.087   5.193   3.770  0.2090 -0.1367  0.1168
18872W        W35346   6.148   6.666   1.937 -0.0892 -0.2079 -0.2304
18873W        W35347   4.442   5.439  12.880  0.2490 -0.1130 -0.4141
18874W        W35348   5.479  14.921   3.966  0.5068 -0.0079  0.0934
18875W        W35349   5.792   8.220   4.893  0.2275  0.1575 -0.0279
18876W        W35350   2.614   2.356  13.362  0.0291  0.1337  0.0347
18877W        W35351   2.940   2.765  14.997  0.2642  0.2351  0.1047
18878W        W35352  18.018   2.548   0.231  0.1707  0.0746 -0.1918
18879W        W35353   0.406   1.961   0.572 -0.3269  0.1254  0.0652
18880W        W35354   3.496   1.279  11.441  0.2475 -0.5844 -0.1323
18881W        W35355  10.704   2.803  10.320  0.1017 -0.3829 -0.2104
18882W        W35356  15.999   4.244   2.128  0.0016  0.3474  0.1166
18883W        W35357   6.743   0.669  13.214 -0.1038 -0.0131  0.1025
18884W        W35358  13.985   3.612   2.860 -0.3179 -0.0909 -0.1027
18885W        W35359  16.128  17.990   0.973 -0.1363  0.1444  0.3228
18886W        W35360  12.998  10.071  11.186 -0.1584 -0.4452 -0.0387
18887W        W35361  17.901   7.254  11.523 -0.3642 -0.1500 -0.0963
18888W        W35362  18.449  18.321   3.198 -0.0702 -0.1454  0.0648
18889W        W35363  12.769  16.978  11.577 -0.1652  0.0506  0.0369
18890W        W35364  13.638   6.915   0.839  0.2227  0.3650 -0.1360
18891W        W35365   2.511  11.515  14.064  0.0055  0.2752  0.1752
18892W        W35366   5.713   8.720   0.987 -0.2682 -0.0178 -0.1999
18893W        W35367   9.739   8.580   1.975 -0.0494  0.1385  0.2970
18894W        W35368  14.030  13.789   2.500 -0.3042 -0.3083 -0.0883
18895W        W35369   9.617  15.439   0.320 -0.0719  0.0794  0.0581
18896W        W35370   3.471   6.311   4.930  0.3102 -0.0648  0.1620
18897W        W35371   2.248   2.484  13.720  0.0061  0.0361 -0.2352
18898W        W35372  11.587   5.339   1.446  0.0227  0.0499  0.2388
18899W        W35373  11.493   3.101  10.865  0.0643 -0.4480 -0.0162
18900W        W35374   6.683  17.972   0.919 -0.3246  0.0870  0.0446
18901W        W35375   8.769   7.766   4.261  0.3787  0.1731 -0.3397
18902W        W35376   3.053  11.698   3.123 -0.2299 -0.0288 -0.3044
18903W        W35377  18.903   7.734  10.239 -0.3224 -0.2189  0.0528
18904W        W35378   3.077   1.755  13.798  0.0187 -0.1122 -0.1343
18905W        W35379  11.517  10.563   4.646  0.0030  0.1307  0.1140
18906W        W35380   0.644  12.138   3.160 -0.2397 -0.1451  0.1017
18907W        W35381  17.748   9.673   1.652  0.1211 -0.0763 -0.5767
18908W        W35382  13.782   3.518   0.382  0.2928 -0.0359  0.2735
18909W        W35383  16.001   2.809  14.127 -0.0938 -0.0566 -0.1040
18910W        W35384   3.497  13.221   4.963  0.0878  0.3363  0.0938
18911W        W35385   4.360   3.113   2.319  0.2186 -0.0562  0.0197
18912W        W35386  15.875   9.712   3.098  0.0952  0.2521 -0.1071
18913W        W35387  11.495  11.861  14.949 -0.0788  0.0520  0.0094
18914W        W35388   1.232   9.539  14.652  0.1716 -0.2101  0.0664
18915W        W35389  15.941   6.262  11.959 -0.1019  0.1519  0.2942
18916W        W35390   4.809   5.580   0.992 -0.3086  0.0406 -0.1185
18917W        W35391   0.857  18.894  12.998 -0.1658  0.0208 -0.1148
18918W        W35392  16.757   2.596   1.916  0.0149  0.1794  0.0830
18919W        W35393  12.890   2.273   3.884  0.2356 -0.0125 -0.2089
18920W        W35394  18.379   1.458   4.890  0.1908  0.0167  0.0401
18921W        W35395  14.819  13.659  11.922  0.0776  0.0264 -0.0906
18922W        W35396   5.106   4.562   5.159 -0.1788  0.1305  0.2685
18923W        W35397   1.068   7.302   2.110 -0.1919  0.1924  0.3064
18924W        W35398   9.390   1.261  11.212 -0.2500 -0.1548  0.1098
18925W        W35399   4.430  16.616  12.763  0.3095 -0.0083 -0.1238
18926W        W35400  15.046   7.047   0.807 -0.3587  0.1217 -0.0915
18927W        W35401  19.109   2.295  12.734  0.1492  0.0184 -0.0618
18928W        W35402   8.389  14.475  12.264 -0.2258 -0.0609 -0.0357
18929W        W35403  14.666   0.371  15.098  0.3613 -0.0683  0.0177
18930W        W35404   5.354   6.672  10.892 -0.0607 -0.0979 -0.0128
18931W        W35405  12.193  16.392   2.560 -0.2277 -0.1883 -0.2897
18932W        W35406   7.446  13.090   2.193  0.2451 -0.2528  0.2992
18933W        W35407   0.075   7.494   2.061  0.4450  0.0083  0.1037
18934W        W35408   4.249   5.798   0.827  0.3399 -0.0183  0.1318
18935W        W35409   2.591   4.891  10.505 -0.0539  0.4683 -0.0764
18936W        W35410  11.853  11.246   4.175  0.1082 -0.1973 -0.0495
18937W        W35411  13.604  15.635   1.581 -0.1317 -0.1019  0.0862
18938W        W35412  14.436   1.741  14.269 -0.2059 -0.0143  0.3088
18939W        W35413  11.231   5.418   4.404  0.1693 -0.0465  0.1825
18940W        W35414   8.634  16.324   9.428  0.1266 -0.1529 -0.1028
18941W        W35415   9.933  14.380  13.664 -0.3101 -0.0374  0.0734
18942W        W35416  15.241  12.335   2.215  0.0710 -0.2552  0.2125
18943W        W35417  10.990  14.803  12.006 -0.1088  0.0063 -0.2877
18944W        W35418  12.444  15.421   0.991 -0.0321 -0.0564 -0.1687
18945W        W35419   3.144   8.556   0.008  0.1614  0.0226  0.0679
18946W        W35420   5.289  18.106   4.256 -0.1447  0.0278  0.2005
18947W        W35421   8.178  18.814  13.781 -0.1519  0.0364 -0.2749
18948W        W35422   0.788  12.560   3.842 -0.0494  0.2620 -0.1700
18949W        W35423   0.912   0.062   0.492 -0.0118  0.0414 -0.0184
18950W        W35424  12.161  12.340   2.826 -0.2150 -0.0941  0.2319
18951W        W35425   5.736  15.477   1.831  0.1610 -0.0490 -0.1355
18952W        W35426  16.799  11.712   0.390  0.0011 -0.0728  0.0497
18953W        W35427  17.012  15.235   0.882  0.1862  0.2808 -0.1118
18954W        W35428  13.716   8.632   3.142  0.0647 -0.2980  0.3695
18955W        W35429   8.237   1.620   1.826 -0.2875  0.0819 -0.0450
18956W        W35430   9.469   7.187   1.831  0.0046  0.1413  0.2084
18957W        W35431  13.732   5.651   0.389  0.2281 -0.2435 -0.1154
18958W        W35432  10.584  11.186   2.963  0.0692  0.1699  0.0901
18959W        W35433  10.710   9.746   0.832  0.0798 -0.2797 -0.1707
18960W        W35434  16.145  16.253   1.216 -0.0820  0.1277  0.0318
18961W        W35435  18.991   2.134   3.788 -0.4588  0.0579  0.0439
18962W        W35436   1.337   1.234   5.872 -0.2611 -0.0806  0.3455
18963W        W35437  12.265   7.817  11.696 -0.1073  0.0015  0.0546
18964W        W35438   4.487   0.810  13.224  0.0092  0.0377 -0.0184
18965W        W35439  16.465   9.207  13.906  0.0637 -0.0009  0.0005
18966W        W35440   6.767  17.992   1.439 -0.1948  0.0049 -0.1346
18967W        W35441   7.262   2.260  10.794  0.2339  0.0351  0.0309
18968W        W35442  16.409   6.605  12.201  0.1376  0.2044  0.1264
18969W        W35443   1.437   7.583   0.543 -0.0404  0.1363  0.0043
18970W        W35444   0.814   7.664  14.309  0.2677  0.1254 -0.4280
18971W        W35445   1.637  18.886   1.950  0.2586  0.0051 -0.0589
18972W        W35446  17.747  16.938   1.007  0.0692 -0.1818  0.0407
18973W        W35447   3.345  14.136  11.532 -0.1191 -0.0194  0.1434
18974W        W35448   8.686   6.842   0.009 -0.1673 -0.2845  0.1795
18975W        W35449   9.694  14.756  12.415  0.0093  0.1563  0.2043
18976W        W35450  14.302   4.148  11.656  0.1882  0.3183  0.0520
18977W        W35451   4.342   9.055   2.128  0.2131  0.1027  0.4433
18978W        W35452   4.201  18.628  11.799  0.0373 -0.0709 -0.2111
18979W        W35453   1.745  15.431   1.018 -0.3900 -0.1049  0.3034
18980W        W35454  14.232   1.798  12.816  0.1070  0.1350 -0.0859
18981W        W35455   4.443  17.467  14.511 -0.0860  0.0855  0.1570
18982W        W35456   0.092   8.329   1.949 -0.1501  0.1027 -0.0911
18983W        W35457  14.803  13.571   3.342  0.1388 -0.2491 -0.0877
18984W        W35458   7.929  18.286  13.683  0.4551 -0.1451  0.0138
18985W        W35459   0.083   4.376  11.013 -0.3472 -0.2315 -0.1435
18986W        W35460  18.500   3.738  10.861  0.2864  0.2932 -0.0292
18987W        W35461  16.156   1.484   0.764  0.2046  0.0314  0.0494
18988W        W35462  10.058  10.692   2.693 -0.1595 -0.2691 -0.1572
18989W        W35463  18.154   1.811   2.773  0.3393 -0.0427  0.2671
18990W        W35464  12.745   2.483  11.804 -0.0876  0.0186  0.1844
18991W        W35465  18.992  10.078   3.243 -0.0510 -0.1003 -0.0137
18992W        W35466   1.725   8.583  14.123  0.2033  0.1264  0.2959
18993W        W35467  10.380   5.176  11.535  0.0378  0.1711  0.2222
18994W        W35468   4.999   3.191   0.808  0.0740  0.0210 -0.1510
18995W        W35469  11.532  15.795  13.631  0.1512 -0.0390  0.2074
18996W        W35470  17.110  15.080  12.524  0.2071 -0.6400  0.2925
18997W        W35471   7.306  15.474  10.829 -0.1052  0.1153  0.1282
18998W        W35472  16.845  11.449   0.814 -0.4099 -0.1904  0.0298
18999W        W35473  15.085   5.721  13.855  0.0971 -0.3692  0.0658
19000W        W35474   1.804   7.066  11.999 -0.0422  0.1257  0.0004
19001W        W35475  17.998   3.548   3.310 -0.1480 -0.2453  0.0089
19002W        W35476  16.039   6.248   4.038  0.0174  0.2044 -0.0042
19003W        W35477   9.340  12.765   1.267  0.0254 -0.0498  0.2465
19004W        W35478   8.445   1.117  10.998  0.0784  0.2208 -0.1958
19005W        W35479   6.694   5.490  11.490  0.2484  0.4168  0.1823
19006W        W35480   6.656  11.572   1.909 -0.2155  0.2232  0.2734
19007W        W35481   6.741  13.496   2.768 -0.1515 -0.1713 -0.0168
19008W        W35482   2.865  10.441   2.279 -0.2362  0.1309 -0.1358
19009W        W35483  11.533   3.113   2.025 -0.2442  0.1661  0.2165
19010W        W35484   1.298   1.145  13.160  0.0492 -0.0444  0.0166
19011W        W35485  11.845  17.633   5.038  0.1460  0.2811 -0.0119
19012W        W35486   5.278  13.890   1.612  0.1487 -0.1280 -0.0761
19013W        W35487  14.969  10.203   4.088 -0.0925 -0.0530  0.1504
19014W        W35488   1.899  11.767   4.317 -0.5901  0.3564  0.3141
19015W        W35489   7.390  13.121   4.527  0.0527 -0.0505  0.2631
19016W        W35490  10.413  13.304   0.341  0.3248 -0.2454 -0.2415
19017W        W35491   1.862   4.035  11.997 -0.1057 -0.1583 -0.3261
19018W        W35492  15.190   3.346  12.661 -0.2709  0.2191 -0.3392
19019W        W35493  17.573  16.710  14.994  0.0306 -0.1374 -0.0064
19020W        W35494   9.277  10.617  14.363  0.1487 -0.0719  0.2087
19021W        W35495  10.353  18.977   2.705  0.0583  0.0926 -0.1070
19022W        W35496  11.825   5.147  11.072  0.1080 -0.1422  0.1122
19023W        W35497   9.059  17.148  12.466  0.3349 -0.2269  0.0845
19024W        W35498   3.242   3.475  11.917  0.0814  0.0743 -0.0530
19025W        W35499  15.376   7.681   0.191  0.0176 -0.1589 -0.1678
19026W        W35500  13.688  10.092  14.127  0.2288  0.1776  0.0124
19027W        W35501   2.927  11.309  11.818  0.0979  0.2052 -0.1454
19028W        W35502  10.189   6.146   3.596 -0.3310 -0.3292 -0.0860
19029W        W35503  16.963  10.459   5.219 -0.0707 -0.0740  0.0201
19030W        W35504   9.194  11.874   0.136 -0.0046 -0.1651  0.0309
19031W        W35505   6.924   3.946  11.553 -0.0464 -0.1575  0.1768
19032W        W35506  18.918  12.649   3.068  0.1651  0.1262 -0.2836
19033W        W35507  12.730   1.784  10.317  0.5169 -0.0842  0.1649
19034W        W35508   9.516  14.147   4.740  0.1307  0.1467  0.1113
19035W        W35509   8.666   6.194   2.046  0.0336  0.0471  0.3364
19036W        W35510  10.678   7.891   1.638 -0.1941  0.0792 -0.0461
19037W        W35511  12.273  12.611  14.842  0.1033 -0.1524 -0.0119
19038W        W35512   4.980   7.609  11.462 -0.3447 -0.0721  0.1517
19039W        W35513   8.228  17.270  12.220 -0.0140  0.0314 -0.0757
19040W        W35514  10.045  14.743   0.111  0.1548  0.5859 -0.0496
19041W        W35515   4.137  12.829  14.737 -0.2067  0.0475 -0.1690
19042W        W35516   3.987  15.409   1.737 -0.1032  0.0384  0.0365
19043W        W35517  14.813  18.287   4.325  0.1566 -0.1674 -0.0862
19044W        W35518  12.598  17.712  13.461 -0.0974  0.2245 -0.0321
19045W        W35519  13.674  10.458   0.564  0.1135 -0.0406  0.2110
19046W        W35520  17.442   7.450   3.126 -0.0373 -0.2599 -0.1691
19047W        W35521  16.867  15.837   2.988 -0.1110  0.2507  0.0147
19048W        W35522   9.230   0.162   9.194  0.2880 -0.0569  0.0150
19049W        W35523   9.133  13.464   2.736  0.1340 -0.3958 -0.2781
19050W        W35524  15.165   0.167   0.835  0.0225  0.1412  0.2089
19051W        W35525   5.717  15.605  13.319  0.2905  0.1037  0.0956
19052W        W35526   4.113  16.554   5.689  0.0203 -0.1303  0.0050
19053W        W35527   3.979   8.882   5.002 -0.1174 -0.0319  0.0143
19054W        W35528  15.709   6.424   1.334  0.0516  0.1103 -0.1514
19055W        W35529   3.991  13.673   0.241 -0.2390  0.0271  0.1693
19056W        W35530   4.389   5.189   1.937 -0.0576 -0.3345  0.0256
19057W        W35531  12.594  18.950   3.411 -0.0900  0.1098 -0.2671
19058W        W35532  13.274   9.196  12.995  0.2225 -0.0022  0.0859
19059W        W35533  17.034  18.831   4.192 -0.0504 -0.0119 -0.0145
19060W        W35534  18.005  18.467  12.393  0.1921 -0.2019  0.1525
19061W        W35535  15.312  10.247  13.698 -0.1282 -0.0935  0.3577
19062W        W35536   0.939   0.086   2.962  0.0696 -0.1170 -0.1101
19063W        W35537   3.205  18.652   3.445 -0.1043 -0.3093  0.0065
19064W        W35538   8.145  17.953   2.098 -0.0001 -0.3621  0.1840
19065W        W35539  17.498  10.479   1.610 -0.1011  0.0070 -0.2483
19066W        W35540  14.096  17.376  11.747  0.2366 -0.2331 -0.1091
19067W        W35541   0.796  11.175  11.222  0.3064 -0.1486 -0.1849
19068W        W35542   6.478  12.955   1.057  0.1651  0.0330  0.2245
19069W        W35543  10.010  16.702   1.047  0.1488  0.0978 -0.3020
19070W        W35544  16.627  12.846   5.423  0.1624 -0.1192  0.2019
19071W        W35545   0.031   5.490   3.675  0.0745 -0.0338  0.3938
19072W        W35546  15.371  13.475   4.240  0.1264 -0.3558  0.4126
19073W        W35547  17.984   2.328  11.773 -0.1286  0.0021 -0.1470
19074W        W35548  16.668   8.379  13.093 -0.0305 -0.0254  0.1506
19075W        W35549   5.235   8.984  10.502 -0.2289  0.2936  0.2714
19076W        W35550  14.814   6.463   1.589 -0.1647 -0.1960 -0.0844
19077W        W35551  11.027   7.859   5.041  0.0948 -0.2239 -0.1803
19078W        W35552  18.590  15.419   3.554  0.0446 -0.2993 -0.1679
19079W        W35553   0.513  13.846  11.780 -0.1236  0.2267 -0.2487
19080W        W35554   8.788   9.633   2.985  0.0004 -0.5033 -0.0934
19081W        W35555  13.060   7.029   5.798 -0.0462 -0.0106  0.1726
19082W        W35556   8.328   9.577  15.069  0.3460 -0.1312  0.1282
19083W        W35557  16.791   6.708   0.135  0.1015 -0.0568 -0.4901
19084W        W35558   4.407   4.419  15.053  0.0275 -0.1800 -0.0753
19085W        W35559  12.416   1.295  10.365  0.2014  0.4115 -0.2174
19086W        W35560   8.564   1.319   2.572  0.0663  0.0276 -0.0598
19087W        W35561   0.664   1.855   5.341 -0.3324 -0.1891 -0.0184
19088W        W35562  17.466  13.786   0.552  0.0466 -0.1569  0.1588
19089W        W35563   9.902  16.698   4.870  0.3941 -0.0423 -0.2236
19090W        W35564  15.113   8.250  11.393  0.2299  0.2338  0.2471
19091W        W35565   5.001  17.385   1.597  0.2655  0.0076  0.1522
19092W        W35566  14.403  17.918  11.578  0.4178 -0.1406 -0.0068
19093W        W35567   4.124  18.325   1.387 -0.1082  0.2149 -0.0894
19094W        W35568   3.984   3.026  15.018 -0.4543 -0.1113  0.0271
19095W        W35569  17.967  13.057   4.177  0.2788  0.2787  0.2500
19096W        W35570   8.219   0.597  14.182  0.3248  0.0214  0.1713
19097W        W35571   1.961   0.043   0.169 -0.3303 -0.0693 -0.3975
19098W        W35572   5.816  11.448  10.672  0.0453  0.0812  0.0471
19099W        W35573   4.951  15.215   5.796  0.2006  0.3665 -0.2375
19100W        W35574  12.830   5.198   2.756 -0.3461  0.2476  0.0637
19101W        W35575   7.577   3.031  12.973  0.1707 -0.1622 -0.2850
19102W        W35576  16.814   7.562   1.374 -0.0238 -0.1209  0.1620
19103W        W35577   7.482  11.053  14.992 -0.0764 -0.0673  0.3257
19104W        W35578  12.745   3.672  10.328 -0.2429  0.5060  0.0454
19105W        W35579   7.223  18.455   0.197  0.2204 -0.2693 -0.3109
19106W        W35580  11.222   8.673  10.767  0.0675 -0.0005  0.1325
19107W        W35581  16.560  10.172   4.245  0.2241  0.0313  0.1664
19108W        W35582  18.545  17.446  12.367 -0.0868  0.2325  0.0656
19109W        W35583   7.313  16.568  13.503  0.0787 -0.1558 -0.2655
19110W        W35584   4.838   4.505   2.869 -0.0494  0.0544  0.2427
19111W        W35585  17.992   7.896  14.628 -0.1073  0.0889  0.0184
19112W        W35586  12.214  15.658  12.383  0.1891 -0.1138 -0.1713
19113W        W35587  16.448  18.351   2.394 -0.0213  0.2705  0.0156
19114W        W35588  14.266   5.619   4.221  0.0542 -0.1498 -0.0611
19115W        W35589   0.154  14.714  14.623  0.0648 -0.1862  0.0369
19116W        W35590  12.328   5.556   1.627 -0.0405 -0.1116  0.1216
19117W        W35591   9.704  15.765  12.453 -0.2130 -0.0212 -0.2668
19118W        W35592   7.318   7.445  15.126 -0.1251 -0.0886  0.1488
19119W        W35593   9.970   6.383   0.098  0.2185 -0.0440  0.0748
19120W        W35594  14.987   6.567   0.789  0.1925  0.0502 -0.0500
19121W        W35595  13.490  16.485   0.051  0.0980  0.0702 -0.0183
19122W        W35596   1.753  13.302   2.377 -0.1105 -0.1370  0.3237
19123W        W35597  15.962   9.436   2.102 -0.1160  0.2409  0.0851
19124W        W35598   9.873  15.074   3.846 -0.0362  0.1637 -0.4287
19125W        W35599   6.737   7.608   2.829 -0.4639  0.0408 -0.2274
19126W        W35600  10.652   2.684  11.868  0.0133 -0.0177 -0.0108
19127W        W35601  10.213   1.984   3.599 -0.1491  0.0012 -0.0472
19128W        W35602   9.974  17.928  14.042  0.1042  0.1445 -0.0449
19129W        W35603   8.449  15.613   3.152 -0.1241 -0.1390  0.1493
19130W        W35604   1.283  17.581  14.983 -0.2823  0.2450 -0.1905
19131W        W35605   8.281  12.577  13.434 -0.2439  0.2547  0.0864
19132W        W35606  11.067  17.332  12.907  0.0840 -0.0995 -0.0483
19133W        W35607   9.629  16.264  10.835  0.2616  0.3617  0.0039
19134W        W35608  12.521   1.412  10.831  0.0642  0.3257  0.1740
19135W        W35609  14.967  14.461   2.841  0.0464  0.1791  0.0600
19136W        W35610  16.149  12.005   2.463 -0.2803  0.1246 -0.2684
19137W        W35611   6.009   0.896  13.025 -0.0843 -0.2342 -0.1168
19138W        W35612  18.755  12.127  15.066 -0.1815  0.4182 -0.3569
19139W        W35613  10.001   6.579  13.295 -0.2362 -0.0003 -0.1935
19140W        W35614   5.923  10.392   2.495 -0.1777  0.1134 -0.2054
19141W        W35615  14.310   3.567   0.105  0.4923 -0.1734 -0.0035
19142W        W35616   2.077   6.663  15.144  0.0942 -0.1089 -0.2093
19143W        W35617   4.758   0.730   4.086  0.1346 -0.1560  0.0944
19144W        W35618   0.530  16.944  13.244  0.0132  0.2064  0.0269
19145W        W35619  18.044   6.959   0.153  0.0941  0.0986  0.1908
19146W        W35620   6.389   5.687   5.807 -0.3226  0.1863  0.0476
19147W        W35621   1.907   2.197   4.228  0.0229  0.0069  0.1420
19148W        W35622   6.045   5.112   2.920 -0.2699 -0.0597 -0.2951
19149W        W35623  12.791   7.254   0.309  0.0988  0.0875  0.2912
19150W        W35624   0.780  15.405  14.843  0.0041 -0.0070 -0.2247
19151W        W35625   2.105   8.164  12.419 -0.0218  0.0178  0.1115
19152W        W35626  18.189  12.093   4.302  0.0144  0.0911  0.3142
19153W        W35627   7.160  17.028   2.889 -0.0319 -0.2968  0.0295
19154W        W35628   2.004   6.878   2.628  0.1699 -0.0442 -0.2777
19155W        W35629  18.315  11.089  11.260  0.3123  0.0358  0.1790
19156W        W35630   1.473   0.212  14.507  0.2625 -0.3828  0.1379
19157W        W35631  19.106  18.153  13.990  0.2822  0.0941 -0.0618
19158W        W35632  16.028   7.278  11.103  0.0928 -0.0714 -0.0467
19159W        W35633   9.175  11.128   5.485 -0.0936  0.0999  0.0765
19160W        W35634   5.891   8.471  14.331 -0.1727  0.0712 -0.0291
19161W        W35635   5.347   7.315   3.267 -0.1121  0.1163 -0.3266
19162W        W35636   2.706  17.591   4.045  0.4649 -0.0187 -0.0369
19163W        W35637   5.413   4.458  14.043  0.0740 -0.0548 -0.1120
19164W        W35638   2.535  17.733  11.035  0.0999  0.1459 -0.1470
19165W        W35639  11.631   8.812   3.529  0.1603 -0.3049  0.4063
19166W        W35640  14.561  11.414   0.060 -0.2293 -0.0533 -0.4993
19167W        W35641   4.821  11.251   3.776 -0.1071 -0.2233  0.1004
19168W        W35642  10.122   5.322  13.578 -0.2577  0.1423 -0.1683
19169W        W35643  19.089  15.068   2.019 -0.1396 -0.2622  0.0396
19170W        W35644   3.244  11.913   4.309  0.1445 -0.0117 -0.0008
19171W        W35645   6.398   9.400  15.066 -0.1151  0.1307 -0.1544
19172W        W35646   1.391   5.149  11.190  0.0793 -0.1114 -0.2475
19173W        W35647  13.404  10.150  12.544 -0.0636  0.3429 -0.0838
19174W        W35648  15.045   9.387   3.299 -0.2177  0.0850  0.0737
19175W        W35649   7.659  10.950   4.617  0.0731 -0.1944 -0.2201
19176W        W35650  14.704   7.387   0.484  0.0642 -0.2654 -0.0089
19177W        W35651   7.534   5.675   0.974 -0.0866 -0.0221  0.0478
19178W        W35652   6.957  13.223   2.025 -0.0450 -0.2307 -0.2670
19179W        W35653   7.210   5.223  12.413 -0.0392  0.0680 -0.0560
19180W        W35654  13.787   1.595   3.906 -0.1740  0.3415 -0.1089
19181W        W35655  16.073  17.990   0.501 -0.1365  0.1363 -0.1299
19182W        W35656   1.329  17.945   2.273  0.2003 -0.4648  0.4158
19183W        W35657   2.503  11.537  14.935 -0.2755  0.3951  0.3455
19184W        W35658   9.880   7.265  11.321  0.1397  0.0347 -0.1166
19185W        W35659   3.085   3.545  13.777 -0.1760  0.1739  0.3162
19186W        W35660  16.320   4.699   2.942  0.0670  0.2599  0.1625
19187W        W35661   6.428   8.657  11.742  0.2173 -0.1524  0.0793
19188W        W35662  14.498   3.473  13.801 -0.4599 -0.0147 -0.0570
19189W        W35663   6.961  12.481   2.750  0.4813  0.0536  0.1823
19190W        W35664   5.983   6.159  10.799  0.0968  0.1080  0.2403
19191W        W35665  17.022   0.167  13.300 -0.0378  0.0252 -0.0514
19192W        W35666   4.013  10.453   2.677  0.1663  0.0276 -0.0002
19193W        W35667  13.151  18.479  11.492 -0.1263 -0.0945  0.1249
19194W        W35668   0.551   1.945   2.062 -0.0197  0.0658 -0.1516
19195W        W35669  16.730   6.577  12.648  0.2351  0.1429  0.2417
19196W        W35670  14.481   7.813  10.968  0.0363 -0.0056  0.0248
19197W        W35671  15.588  12.713   4.634  0.1181 -0.0102 -0.2212
19198W        W35672  11.529  18.976  13.195  0.1113  0.0099 -0.0754
19199W        W35673  13.728   2.697  10.751  0.1060 -0.1592  0.0557
19200W        W35674  11.790  18.620  14.243  0.0838 -0.1371 -0.6428
19201W        W35675   9.284  16.458  12.944  0.2148 -0.1509  0.0379
19202W        W35676   6.066  17.001  13.582 -0.2409 -0.0008 -0.3054
19203W        W35677   2.205  18.318   1.454 -0.0829 -0.2499  0.0608
19204W        W35678   1.642  17.135   3.207 -0.0140 -0.1957  0.0654
19205W        W35679  12.818   7.020  10.114 -0.0866  0.0385  0.3915
19206W        W35680   2.020   3.253   2.116 -0.3804  0.1407  0.2285
19207W        W35681  18.556   6.591  11.072 -0.0864 -0.2078  0.0059
19208W        W35682   3.140  13.192   4.636 -0.3078  0.2218  0.2656
19209W        W35683   0.274   5.067   0.105  0.2519 -0.1451  0.0519
19210W        W35684  16.628  14.585   5.045  0.1216 -0.1221 -0.1949
19211W        W35685   8.466   8.357  11.629  0.0647  0.1037 -0.0732
19212W        W35686  11.351  10.195   0.126 -0.2940 -0.1152 -0.3655
19213W        W35687  14.079   3.961  12.085  0.0560  0.3744  0.0139
19214W        W35688  11.383  18.130   4.631  0.2254 -0.3575  0.0695
19215W        W35689   3.799   3.174   3.193 -0.0527 -0.2237  0.0817
19216W        W35690   8.636  13.271  14.685  0.1456 -0.0887  0.1875
19217W        W35691  15.756   4.340  13.799 -0.1911  0.0446  0.0870
19218W        W35692   4.756  17.072   0.848 -0.0714 -0.2329  0.1057
19219W        W35693   8.891   4.862  10.482  0.2859  0.0089  0.1614
19220W        W35694   8.653   0.995   3.306  0.0050  0.2338  0.2132
19221W        W35695   2.992   1.501  12.288 -0.2671  0.1395 -0.1342
19222W        W35696  15.892  15.983  10.812 -0.2544  0.1075 -0.1514
19223W        W35697  11.238  10.946   3.335 -0.0787 -0.0534 -0.0795
19224W        W35698   8.835  14.489  10.814  0.0511 -0.1783  0.0453
19225W        W35699   1.987  15.981   3.426 -0.0323  0.1053 -0.1996
19226W        W35700  13.529  16.198  10.839 -0.0133  0.2184 -0.0338
19227W        W35701  11.996  11.827  11.754  0.3852  0.0232  0.1937
19228W        W35702  18.021   3.969   9.600  0.0244  0.1124 -0.0457
19229W        W35703   9.894   2.256  13.619 -0.1867  0.1600  0.2276
19230W        W35704   8.688   1.470   1.494 -0.3243  0.1787  0.2075
19231W        W35705  15.708   1.314   3.661  0.4483 -0.2695  0.2002
19232W        W35706  18.725  13.381   2.636  0.0130 -0.0943  0.0662
19233W        W35707   1.645  16.515  14.621 -0.1601  0.0541  0.0805
19234W        W35708  15.783  19.139  12.804  0.0879  0.1576 -0.3371
19235W        W35709   3.297   6.512   0.569 -0.0661  0.1434 -0.1061
19236W        W35710  10.972  10.864   3.754  0.2173  0.0135 -0.0385
19237W        W35711  14.261   0.798  10.448  0.2978 -0.1189  0.2893
19238W        W35712  16.595   1.137  11.646 -0.1500  0.1717 -0.3550
19239W        W35713  12.796   6.659  11.258 -0.0082 -0.0254 -0.1830
19240W        W35714  16.279  11.900   4.547  0.1386  0.0421  0.1149
19241W        W35715   7.385  17.891   4.875 -0.0492  0.1093  0.1753
19242W        W35716  17.372  11.966  14.633  0.1898 -0.0621  0.0338
19243W        W35717   0.001   2.319   0.316 -0.2524 -0.3801 -0.1223
19244W        W35718   2.455   4.071   4.817  0.2548  0.0616  0.3010
19245W        W35719   2.356   3.703   3.978  0.0623 -0.1111  0.0699
19246W        W35720  14.803  17.980   3.863 -0.0755 -0.1891 -0.0553
19247W        W35721  13.744  10.662  13.345  0.1213  0.1565 -0.0173
19248W        W35722   1.624   1.025   2.144 -0.0919  0.0063 -0.3556
19249W        W35723  16.269   2.910  11.718 -0.5258 -0.1494  0.1992
19250W        W35724  12.691   1.186  14.416  0.1642  0.6672 -0.0547
19251W        W35725   5.143  11.303  10.814  0.1891  0.1178  0.4323
19252W        W35726   7.344   8.735  13.320 -0.0553  0.0621  0.2753
19253W        W35727  18.618   9.097  13.865 -0.2139 -0.4161 -0.1018
19254W        W35728   4.579  17.023  12.345  0.0804 -0.0438  0.1780
19255W        W35729  14.868   8.794   2.370 -0.0642 -0.2259 -0.0462
19256W        W35730  13.330   1.180  12.035  0.0292  0.1330 -0.1226
19257W        W35731   9.833   6.818   2.117 -0.2945 -0.0662  0.2593
19258W        W35732   9.812   9.013   2.291  0.1103  0.0336 -0.0940
19259W        W35733  15.082   4.754   1.095 -0.2258 -0.2266 -0.1612
19260W        W35734   7.892  19.133   5.278  0.1309 -0.1058 -0.0927
19261W        W35735  14.949  15.701  13.774  0.1093  0.4453  0.2063
19262W        W35736   2.584  16.777   4.005  0.1805  0.2821 -0.1188
19263W        W35737  10.670  14.456  13.188 -0.1488 -0.0674  0.0983
19264W        W35738   4.808  12.441   0.306  0.0371  0.2748 -0.0510
19265W        W35739   6.950  16.109   1.465 -0.0043 -0.2046 -0.4996
19266W        W35740   2.890   7.025  14.686  0.1014  0.3178 -0.1184
19267W        W35741  18.820   7.476   2.930  0.0144  0.1965 -0.1881
19268W        W35742  14.470  13.265  14.974 -0.1303  0.1712  0.3059
19269W        W35743  12.304   4.040  13.819 -0.0471 -0.1071 -0.2365
19270W        W35744  12.201   6.663   1.749 -0.2529  0.0486 -0.1045
19271W        W35745   6.650  15.466   1.768 -0.0694 -0.2768  0.1464
19272W        W35746   6.693  13.152  13.324  0.3558 -0.4809 -0.0290
19273W        W35747   9.261  17.773   0.784  0.0517  0.1220  0.3297
19274W        W35748   7.876   1.461   3.207  0.0164  0.0402 -0.1675
19275W        W35749  13.996  17.961  10.185  0.2902  0.1975  0.0347
19276W        W35750  10.450   3.163  12.715 -0.1589 -0.0415  0.2276
19277W        W35751   9.146   9.941  14.824 -0.1389  0.1032 -0.0490
19278W        W35752   7.813   6.935  13.169 -0.1106  0.0096 -0.1161
19279W        W35753  16.860  10.753  13.657 -0.1288 -0.1533  0.0421
19280W        W35754   2.310   5.575  13.383 -0.1890  0.0246 -0.2678
19281W        W35755   3.025   1.633   0.681  0.5019  0.0523 -0.0351
19282W        W35756   4.351   0.926   3.765 -0.0272 -0.0937  0.1202
19283W        W35757   1.543   4.440   2.925  0.0036 -0.2462  0.0577
19284W        W35758   2.169   0.394  13.998 -0.1173  0.2493  0.1713
19285W        W35759   9.598   5.357   1.330 -0.0829 -0.0167 -0.0608
19286W        W35760   7.673  17.177   2.486  0.2356  0.0836  0.0621
19287W        W35761  10.391   5.799  11.124 -0.2278 -0.0884 -0.2530
19288W        W35762   1.912  10.170  11.944 -0.0979 -0.3388  0.1170
19289W        W35763  11.228  12.478  11.441  0.2344  0.0396 -0.0387
19290W        W35764   6.546  15.222  12.368  0.1217  0.0340 -0.0210
19291W        W35765   3.853   0.724   2.221  0.0053 -0.1032 -0.0510
19292W        W35766   0.999   2.277   4.409 -0.1108 -0.2523 -0.1596
19293W        W35767   5.589  18.100  11.168  0.0518  0.0677 -0.2254
19294W        W35768  19.058   8.581   2.473 -0.0658  0.2189  0.0168
19295W        W35769  11.431   2.735  14.475  0.0094 -0.4029  0.0581
19296W        W35770  14.517  16.725   1.859  0.0021  0.3746 -0.1878
19297W        W35771  10.508   6.585  14.686 -0.0491 -0.0961 -0.2648
19298W        W35772  17.865  17.886  13.716 -0.1802 -0.1982 -0.0807
19299W        W35773   2.528   2.627  11.852  0.0744  0.1842  0.1441
19300W        W35774   9.851  17.873  11.422  0.0480 -0.2500  0.0861
19301W        W35775   9.398  15.990   0.108 -0.0742 -0.1134 -0.3410
19302W        W35776  17.303   8.193  12.407 -0.0329  0.0419  0.0685
19303W        W35777  17.348  11.107   1.957 -0.1014 -0.0109  0.2065
19304W        W35778  13.692   8.409  13.617 -0.1107 -0.1842  0.2818
19305W        W35779   1.614   3.591  14.263  0.1038 -0.0492 -0.0068
19306W        W35780  16.101  14.196  10.577  0.1048  0.2838 -0.1565
19307W        W35781   6.294   8.822   1.229  0.2333 -0.0056  0.2352
19308W        W35782   1.313  16.861  15.057  0.0728  0.0632 -0.2553
19309W        W35783   3.403   7.752   2.589  0.2570 -0.0407  0.1627
19310W        W35784   0.412  15.015   1.922 -0.2558  0.0631 -0.1437
19311W        W35785  10.978  17.153  11.963 -0.0909  0.3049 -0.0333
19312W        W35786  10.603  10.565   0.418  0.1582 -0.0276  0.2113
19313W        W35787  15.530  16.467   5.575  0.0774  0.0195 -0.1678
19314W        W35788  15.722   3.043   3.419 -0.1232 -0.0602  0.0419
19315W        W35789  17.296  10.114   9.740  0.0521  0.2316  0.1789
19316W        W35790   5.438  11.971  10.192 -0.0712  0.1713  0.1700
19317W        W35791  11.051   0.028   0.693 -0.0968 -0.0375 -0.1815
19318W        W35792   7.186  13.109  13.535  0.0732  0.2122  0.0314
19319W        W35793   8.867  11.683   2.806 -0.4282 -0.0714 -0.0393
19320W        W35794  12.037   3.067  10.937  0.2865  0.0350 -0.0845
19321W        W35795   2.392  15.128  10.410 -0.1429 -0.2946 -0.0852
19322W        W35796  15.906   3.677  11.245  0.1104  0.1921 -0.3708
19323W        W35797  14.379   7.095   1.488  0.2157 -0.0581 -0.0582
19324W        W35798   6.121  15.635   1.059  0.1020 -0.1589 -0.1099
19325W        W35799  10.505  13.707  13.825  0.0135 -0.0030  0.2083
19326W        W35800   9.042  10.964  12.038 -0.1831  0.2459  0.1125
19327W        W35801   1.804  13.477  11.444  0.0088  0.2561  0.0760
19328W        W35802  10.764  12.079  14.600  0.2537 -0.0812 -0.1750
19329W        W35803  13.565   8.013  10.558 -0.2002  0.0147  0.2534
19330W        W35804   9.160   7.977  10.341  0.0077 -0.0750 -0.0743
19331W        W35805   2.497   2.287   0.514  0.3146 -0.0438  0.0085
19332W        W35806   0.128   6.596  13.577  0.0025 -0.0299  0.0380
19333W        W35807  16.121   4.805  11.451  0.1457 -0.5328  0.2850
19334W        W35808  15.109  14.417   1.699  0.3976  0.1686 -0.0394
19335W        W35809   3.081   3.427  11.416  0.0520  0.1146 -0.2893
19336W        W35810   5.299   1.267  15.051  0.1515 -0.0454 -0.1973
19337W        W35811   2.074  12.744  13.478 -0.2664 -0.1757 -0.1837
19338W        W35812   4.079  16.854  15.109 -0.0101 -0.0756 -0.0345
19339W        W35813  12.497  15.563   3.661  0.0493 -0.0385 -0.1607
19340W        W35814  18.395   6.488   2.962 -0.1572 -0.2722 -0.0418
19341W        W35815   5.813   3.533  12.617  0.3872 -0.3277 -0.4473
19342W        W35816   2.745   3.219   4.644 -0.0459 -0.0607  0.2732
19343W        W35817   6.311  16.714  12.721  0.0461 -0.0283 -0.0521
19344W        W35818   8.201   4.262   0.244  0.4983  0.2136  0.1503
19345W        W35819  12.067  18.424  15.051 -0.1191  0.1120  0.0226
19346W        W35820   0.869   1.208  15.108 -0.0382  0.1210 -0.0757
19347W        W35821   4.406   5.954   3.360  0.0683  0.0384 -0.1194
19348W        W35822   2.509  16.850  15.080 -0.0072  0.0862  0.1643
19349W        W35823   1.174  11.964  15.034 -0.2161 -0.0790  0.1904
19350W        W35824   5.267  13.535  14.297  0.1365 -0.1090  0.1515
19351W        W35825   1.680  17.370  11.431  0.0770  0.0544  0.0181
19352W        W35826   7.331   6.294  10.423 -0.0151  0.2298 -0.1551
19353W        W35827   5.009  14.612   4.613 -0.0871 -0.0849  0.1469
19354W        W35828  13.834   4.713  14.695  0.0599  0.0787  0.0327
19355W        W35829  15.916  10.436   5.328  0.4285  0.0958 -0.0273
19356W        W35830   3.972   0.733  14.478 -0.1518  0.1374 -0.1481
19357W        W35831  14.118   2.306   0.459  0.4632  0.1494 -0.1506
19358W        W35832   3.939  15.685   2.437  0.0799 -0.0721 -0.1518
19359W        W35833  11.491  16.869   5.439  0.0591 -0.3253  0.3477
19360W        W35834   0.525   7.171   3.885 -0.4564 -0.1883  0.1860
19361W        W35835  18.076  12.488  12.457 -0.1650  0.0431 -0.0496
19362W        W35836   5.754   1.221  13.356 -0.2255  0.0246  0.3022
19363W        W35837  15.961   6.255   4.532  0.0094  0.0886 -0.1695
19364W        W35838  12.258   0.090  13.537  0.1644  0.1767  0.1068
19365W        W35839   1.401  14.195  13.806 -0.2744  0.1450 -0.3782
19366W        W35840  11.761   1.861   4.614 -0.1635  0.0668 -0.2074
19367W        W35841  19.057   8.899  12.130 -0.0930 -0.0441  0.0692
19368W        W35842  17.979  18.406  11.231 -0.1876 -0.2104  0.1636
19369W        W35843  10.249   6.126   9.914  0.1261 -0.3098 -0.2251
19370W        W35844   2.952   1.461   4.370  0.0401 -0.0211  0.0925
19371W        W35845  14.084  10.002  13.211 -0.2465  0.3180  0.0256
19372W        W35846   4.095   3.473  14.281 -0.2537  0.2085  0.2854
19373W        W35847  12.999   0.770   1.920  0.3292  0.2566 -0.2826
19374W        W35848   7.095   2.440   1.588 -0.0244 -0.5454  0.1505
19375W        W35849  14.268  18.794   4.282 -0.2036 -0.0409 -0.0350
19376W        W35850   7.587   6.580   1.062 -0.2412  0.1455  0.0416
19377W        W35851   9.336  17.809   3.124  0.1711 -0.3626 -0.1268
19378W        W35852   2.121   0.406   3.006 -0.3221  0.1407 -0.0329
19379W        W35853   5.708  15.399   5.345  0.2112  0.0537 -0.1772
19380W        W35854  11.924   3.313  12.790 -0.1157  0.1650  0.0682
19381W        W35855  14.781  15.811   4.719 -0.0000  0.0909 -0.0117
19382W        W35856   4.984  12.927  15.052 -0.2503 -0.0836 -0.0734
19383W        W35857   7.836  16.882   3.531 -0.1350  0.0401  0.3736
19384W        W35858   4.590  16.513  11.299  0.1612 -0.3042  0.1948
19385W        W35859   8.806   2.399  12.298 -0.2121  0.3480 -0.1525
19386W        W35860   4.774   7.381  12.435 -0.0931  0.0233 -0.3375
19387W        W35861   9.205   3.150  11.571  0.1984  0.0392  0.1311
19388W        W35862   1.419  14.851   9.924 -0.0303 -0.4881  0.1646
19389W        W35863   6.832   4.013  14.996  0.0738 -0.1471  0.2249
19390W        W35864  10.585   8.731   1.918 -0.1545  0.2964 -0.2239
19391W        W35865   3.387  10.002  13.240 -0.0324 -0.0745  0.1762
19392W        W35866   4.647   8.285  12.036 -0.0010 -0.2313 -0.1215
19393W        W35867  15.031  12.795  11.493  0.1762 -0.2840 -0.1426
19394W        W35868   8.153  10.831  12.784  0.1094  0.0491 -0.1953
19395W        W35869  17.153   3.491  11.190  0.2572 -0.0765 -0.2893
19396W        W35870   2.940  12.152   2.958 -0.0778 -0.0530 -0.0908
19397W        W35871  13.146   7.349  13.159 -0.3792 -0.2763 -0.2050
19398W        W35872   0.805  11.831   2.682  0.2639  0.0188  0.0997
19399W        W35873  11.951   9.524   1.215 -0.1557 -0.2040 -0.2354
19400W        W35874  14.967   1.087  12.476 -0.0091 -0.0452 -0.2250
19401W        W35875  18.396  14.304   2.127 -0.0965  0.3403  0.0098
19402W        W35876   3.194  16.118   1.392  0.1066  0.0036  0.4514
19403W        W35877   5.931   2.638  14.386 -0.6456  0.0428 -0.4823
19404W        W35878  13.887  18.683   4.688 -0.3278 -0.1007 -0.0787
19405W        W35879  12.191  13.211  12.774 -0.0984 -0.1789 -0.1658
19406W        W35880  11.842  16.375   0.138 -0.1900  0.1562 -0.3642
19407W        W35881  12.902  17.533  14.501 -0.3072 -0.2886 -0.1881
19408W        W35882  18.836   7.193  14.094 -0.0219 -0.1505 -0.2336
19409W        W35883  14.739  18.560  12.001 -0.0742  0.0559 -0.0809
19410W        W35884  18.824  15.420  13.656  0.0367 -0.1646  0.2434
19411W        W35885   7.623   3.197   2.048 -0.0282 -0.1348 -0.0843
19412W        W35886   5.991   1.796   5.187  0.1827  0.1263  0.0462
19413W        W35887   8.544  17.910  13.572 -0.0903  0.0034  0.0698
19414W        W35888   6.295   6.913   1.502  0.1838 -0.0167 -0.3312
19415W        W35889   9.611   9.980  15.153  0.2711 -0.0280  0.1662
19416W        W35890   0.530  15.740   1.247  0.0963  0.1008  0.1516
19417W        W35891   9.153  16.446   2.028 -0.0082 -0.0055 -0.2709
19418W        W35892   1.984   3.933   5.281 -0.0019 -0.0222 -0.0960
19419W        W35893  12.052   4.831   0.836 -0.0154  0.0205 -0.1190
19420W        W35894  13.154  13.560   0.560 -0.2416 -0.3950 -0.1125
19421W        W35895  14.609  18.620  10.556  0.0475 -0.0419 -0.1948
19422W        W35896  18.436   6.884  12.864  0.2394  0.0142 -0.1125
19423W        W35897   0.375   9.489   0.907 -0.2457 -0.1027 -0.0612
19424W        W35898  17.586  18.712   1.295  0.2261 -0.2647  0.0114
19425W        W35899  17.612   7.914  11.669  0.0654 -0.3017 -0.3500
19426W        W35900  15.512   7.008   4.599  0.1156  0.0131  0.0367
19427W        W35901  12.814  15.096  15.085  0.1793 -0.0181  0.1369
19428W        W35902   3.389   6.268   2.503  0.0485 -0.0158  0.2849
19429W        W35903  13.874   6.018   2.375  0.1024 -0.0832  0.0188
19430W        W35904   8.579   9.934  10.029 -0.2913 -0.0051 -0.1229
19431W        W35905   0.999  13.848  11.973  0.2549 -0.0958 -0.1844
19432W        W35906  14.946   0.955  10.374 -0.3640  0.0588  0.2535
19433W        W35907  14.544  12.833   2.425  0.0687 -0.0491 -0.4204
19434W        W35908  15.353   7.258   0.407 -0.0942 -0.2186 -0.4039
19435W        W35909   9.410   5.105  12.425 -0.1217  0.1500  0.2056
19436W        W35910   6.123   8.545   4.621  0.0860  0.4301 -0.0989
19437W        W35911   6.725   5.955  11.190  0.3095  0.1628  0.2830
19438W        W35912  12.770   0.428  14.821 -0.1792  0.0708  0.0585
19439W        W35913   9.117  12.855  13.222 -0.1065  0.2186  0.0079
19440W        W35914  10.443  13.412  12.773 -0.1114 -0.1188  0.2101
19441W        W35915  10.721  13.255   3.629  0.2979 -0.0999 -0.0921
19442W        W35916  15.784   3.170   9.692  0.1606  0.0328 -0.1194
19443W        W35917   8.803  18.283  14.115  0.1135  0.0208 -0.0794
19444W        W35918  11.889  15.003  14.444  0.1245 -0.1147  0.1285
19445W        W35919   9.553   1.718   1.502 -0.0093  0.1984  0.0178
19446W        W35920   3.890  18.712  15.118  0.0532  0.1527 -0.2988
19447W        W35921  11.931   8.899  14.306  0.0064 -0.3984 -0.1262
19448W        W35922  15.142   3.768   1.055 -0.1296  0.0611  0.0548
19449W        W35923  17.374   0.312  11.505 -0.1193 -0.0242 -0.0094
19450W        W35924   1.231  18.885  14.857 -0.1987  0.0385  0.0355
19451W        W35925  12.428  15.565   4.655  0.3020 -0.1651 -0.1614
19452W        W35926   9.049   9.825   2.189 -0.1119 -0.1761  0.3088
19453W        W35927   4.758   0.877   5.491  0.1542  0.2364  0.0007
19454W        W35928   9.571  14.634   2.635 -0.0182  0.0923  0.2670
19455W        W35929   8.493   5.688   1.727  0.2134 -0.3973  0.2486
19456W        W35930  14.979   5.119   2.234  0.1715 -0.1037 -0.0750
19457W        W35931  10.632   4.007   1.120 -0.1214  0.1337  0.1090
19458W        W35932   7.124  16.392  12.353 -0.0599  0.0977  0.0308
19459W        W35933   1.309   8.518   4.494 -0.3382 -0.2321 -0.0338
19460W        W35934   4.082   9.757   0.917 -0.1504 -0.1979 -0.0727
19461W        W35935  10.240   9.349   1.572  0.2187 -0.1526 -0.0673
19462W        W35936  13.950   1.104  10.114  0.1119 -0.1711 -0.0595
19463W        W35937  11.605   4.773  10.769 -0.0034 -0.2996 -0.3219
19464W        W35938   4.999  14.586   1.392  0.1959  0.2376 -0.3031
19465W        W35939  10.411  12.779   1.121  0.2043 -0.1321  0.4433
19466W        W35940   9.191   0.102   4.446 -0.2137 -0.1763 -0.2954
19467W        W35941  18.888   6.161  13.167 -0.5396 -0.0545  0.1204
19468W        W35942   6.150  11.065  13.731 -0.0584 -0.1994  0.0115
19469W        W35943   6.021   5.589  12.758  0.0224 -0.0633  0.0716
19470W        W35944  12.637   4.125  12.152 -0.3407 -0.0233  0.0462
19471W        W35945  12.207   9.354  14.336 -0.1669 -0.2823  0.1847
19472W        W35946  11.607  14.365  14.744 -0.0666  0.1944  0.0563
19473W        W35947  12.747  11.194   5.222  0.4285 -0.0548 -0.1472
19474W        W35948   2.824   6.375   2.388  0.0564  0.1255  0.3410
19475W        W35949   2.259   1.663  12.556  0.2823  0.2277  0.2454
19476W        W35950  11.355  15.724  12.314 -0.3005 -0.2359  0.0882
19477W        W35951  10.921   7.441   1.656  0.1187 -0.0075  0.3589
19478W        W35952   4.412   0.522  11.077  0.0329  0.0908  0.0026
19479W        W35953   7.481   3.729   4.349  0.3514 -0.1219 -0.0444
19480W        W35954   7.748   9.591  14.715 -0.3983  0.1626 -0.1721
19481W        W35955   7.889   4.319  11.161 -0.1192  0.2115 -0.2281
19482W        W35956  18.617  12.701  11.383 -0.2578 -0.0797 -0.1178
19483W        W35957  15.813  15.261   2.654 -0.0174 -0.1971 -0.1667
19484W        W35958  16.501   6.498   2.807 -0.0586  0.0085  0.3826
19485W        W35959   6.593   4.969   1.514  0.1066  0.0804  0.0197
19486W        W35960   7.777   1.704   4.077 -0.0296  0.0109 -0.5102
19487W        W35961   0.139   6.012  10.752 -0.2961 -0.0989  0.1372
19488W        W35962  16.199   9.233  13.454 -0.0822  0.1096 -0.0639
19489W        W35963   9.908  15.001  11.363  0.2841 -0.0063  0.2036
19490W        W35964  11.113  11.889   1.017 -0.0037 -0.4346 -0.1645
19491W        W35965  17.179   8.453  14.750 -0.0360  0.2188  0.0629
19492W        W35966   2.447   5.094  13.121  0.0787 -0.0089  0.2359
19493W        W35967   1.273  16.823  14.502 -0.0476  0.0103 -0.0879
19494W        W35968   7.746  12.278   2.070  0.2144 -0.0114  0.0401
19495W        W35969  10.734   0.625   2.350  0.1168 -0.4485  0.1339
19496W        W35970   2.378   5.460   2.123 -0.4023 -0.1227  0.0591
19497W        W35971   7.656  17.415  14.964  0.0053  0.0683  0.1717
19498W        W35972   0.329  16.042  14.182  0.1571 -0.5133  0.1507
19499W        W35973   5.539  12.388   1.101 -0.0764  0.0672 -0.0383
19500W        W35974  16.610   3.573   0.785  0.1962  0.0290  0.0751
19501W        W35975   4.634   0.747  11.799  0.1250 -0.3610 -0.1045
19502W        W35976  11.146   8.391  11.766 -0.0131  0.0115  0.0734
19503W        W35977   6.997  16.671  14.003  0.1141 -0.2355 -0.0606
19504W        W35978   5.553   8.787  11.341 -0.0764  0.2463  0.2941
19505W        W35979   5.959   6.305   4.265 -0.0751  0.1940 -0.2699
19506W        W35980   4.847   2.159  13.029 -0.1634  0.1087  0.2118
19507W        W35981   6.954  16.215  12.776 -0.0617  0.3828  0.0241
19508W        W35982   1.205   3.186  14.128 -0.1336 -0.1936 -0.0359
19509W        W35983  12.226   9.679   5.839  0.2143  0.0844  0.2178
19510W        W35984  10.458   3.843   2.472 -0.0122  0.1332 -0.1694
19511W        W35985  17.619  18.149   3.787 -0.1280 -0.0950 -0.5818
19512W        W35986   0.773  17.399  12.187  0.3382 -0.2961  0.1471
19513W        W35987   5.440  14.590   2.352 -0.0304 -0.3077 -0.0629
19514W        W35988  12.607  18.947   2.923 -0.2399 -0.0537  0.2319
19515W        W35989  10.599   0.880  15.017  0.2612  0.2559  0.0999
19516W        W35990  16.306   0.282  11.054  0.0535  0.2608 -0.1069
19517W        W35991   1.263   6.160   2.758 -0.1801  0.3881  0.1928
19518W        W35992  16.625  12.410  12.704 -0.3290 -0.0167 -0.0287
19519W        W35993  18.639   1.613  14.769  0.3253 -0.0004  0.4376
19520W        W35994   1.063  16.465   5.252  0.0803  0.0403  0.0135
19521W        W35995  11.681  11.188  12.516 -0.0765 -0.2305  0.2799
19522W        W35996  18.873   1.005  12.137  0.2084  0.2350  0.2280
19523W        W35997  18.745   6.973   2.863 -0.1554 -0.1253 -0.0844
19524W        W35998   8.847   8.378   2.698 -0.0743  0.1167 -0.0466
19525W        W35999  13.136  14.918  13.419  0.0870 -0.1326  0.0689
19526W        W36000   1.413   0.192  12.456 -0.4272  0.1836 -0.4138
19527W        W36001   3.137  16.628  11.093 -0.0347  0.0725 -0.1508
19528W        W36002   0.632   7.022  11.641 -0.5129  0.3056  0.0694
19529W        W36003  17.763   7.309   1.579 -0.1809  0.1938 -0.0295
19530W        W36004   4.622  10.212   0.203 -0.2308  0.0734  0.2690
19531W        W36005   8.342  11.331  11.323 -0.1262  0.1547  0.3801
19532W        W36006   4.944  16.474   5.071  0.0235 -0.1892  0.1823
19533W        W36007   9.719   8.527   2.468  0.2571  0.0269 -0.3108
19534W        W36008   8.726   9.828  11.464  0.1189 -0.0393  0.0338
19535W        W36009   8.248  17.019   1.127 -0.0139  0.0339  0.0017
19536W        W36010   5.829   3.861  12.222 -0.1117 -0.3981 -0.2088
19537W        W36011  13.579   8.437  14.229  0.0058 -0.4522 -0.0908
19538W        W36012   0.319  11.137  11.381  0.0299  0.2559  0.1266
19539W        W36013  12.437   3.810   0.386  0.1371 -0.0415 -0.1187
19540W        W36014  13.583   0.576  12.774 -0.1472 -0.3888 -0.2087
19541W        W36015  15.254  16.095   2.308  0.0951  0.0681 -0.0399
19542W        W36016  10.713   2.956   0.900  0.0249 -0.0035 -0.1071
19543W        W36017  14.769   9.596   2.896  0.1502 -0.2554 -0.0289
19544W        W36018  13.425   5.024   9.395 -0.2611 -0.1172  0.1334
19545W        W36019  13.764   7.767  12.972 -0.0652  0.0799 -0.0464
19546W        W36020   4.034  13.815  12.101 -0.1128  0.2102  0.1941
19547W        W36021   8.697  14.310  13.838 -0.3044  0.0292  0.1022
19548W        W36022  17.405  11.803   5.527  0.2647 -0.2228 -0.1997
19549W        W36023  12.839  12.163   1.011  0.0072  0.1339  0.1799
19550W        W36024  13.282   7.766   0.890 -0.2445 -0.3009 -0.1381
19551W        W36025  14.647   3.825   2.875  0.0443 -0.0575 -0.1220
19552W        W36026   9.802  13.175  11.371  0.2226  0.0322  0.4150
19553W        W36027  14.939   6.971   0.286 -0.2046 -0.1737  0.0910
19554W        W36028  12.965  10.003   5.422 -0.1167  0.4309 -0.0129
19555W        W36029  18.504   6.578   5.246  0.0920 -0.1680 -0.0003
19556W        W36030   9.210  11.699  11.598  0.0871 -0.3122 -0.2447
19557W        W36031   1.202   1.109   4.449  0.0511  0.1099 -0.4441
19558W        W36032   4.161   4.055   3.369 -0.1477  0.1133 -0.1154
19559W        W36033  11.728  16.406   1.378 -0.2153  0.0338  0.2641
19560W        W36034  12.360  10.113   2.986  0.1550 -0.0068  0.0110
19561W        W36035  18.605  18.398   1.175 -0.1573  0.2630  0.2978
19562W        W36036  16.310   1.186   1.142 -0.1647  0.2841  0.0171
19563W        W36037   7.487   8.132   1.878  0.0418 -0.1352  0.2344
19564W        W36038  16.946  10.812   4.745 -0.0559 -0.0371 -0.0464
19565W        W36039  11.725  16.175  11.051 -0.0268 -0.0107 -0.3955
19566W        W36040  17.313  17.980   2.905  0.2441  0.1455 -0.4723
19567W        W36041  13.400   2.400  10.961  0.0885 -0.0562 -0.0842
19568W        W36042  16.028  14.680   4.195  0.3806  0.1053  0.0117
19569W        W36043   0.722  18.385  11.101  0.2445 -0.0072 -0.4715
19570W        W36044   2.016   1.799   2.335 -0.3628  0.1361 -0.2304
19571W        W36045  17.122  10.146   1.644  0.2223 -0.4104 -0.4736
19572W        W36046  18.458   8.804  15.007 -0.0631 -0.0296 -0.4749
19573W        W36047   1.679   2.834   1.883  0.0623 -0.1623  0.0474
19574W        W36048   4.472   2.191   5.127  0.4149 -0.0394 -0.1001
19575W        W36049  16.584   1.164   2.189  0.2187  0.0042  0.3148
19576W        W36050   8.200  15.057   1.921  0.0331 -0.2632  0.0021
19577W        W36051   0.237   1.680   3.831  0.2917  0.0837  0.0297
19578W        W36052  14.978  15.059  13.256 -0.1238  0.0683  0.0268
19579W        W36053  15.315   1.293   2.806 -0.0397  0.2458  0.2178
19580W        W36054  11.005   4.553   3.572 -0.1650  0.2197 -0.0915
19581W        W36055   9.997  13.918   3.120 -0.0801 -0.0630 -0.0932
19582W        W36056   3.221  10.056  10.716  0.1231 -0.1215 -0.0230
19583W        W36057  13.895  17.804  15.116  0.2607 -0.3346 -0.1530
19584W        W36058  18.044   7.488   4.665  0.2290 -0.0512 -0.4215
19585W        W36059   1.428  14.749   1.155 -0.1031  0.1126  0.2246
19586W        W36060  10.058   4.560   5.042  0.1414 -0.0646 -0.2981
19587W        W36061   4.768   3.218   5.673  0.0615  0.2614  0.0499
19588W        W36062   8.570   8.345  13.650  0.1655 -0.1271  0.0011
19589W        W36063  13.514  11.214  14.561  0.0504  0.1226  0.3362
19590W        W36064   8.075  16.967  14.977 -0.3109  0.0581  0.2309
19591W        W36065   0.891   6.496  13.653 -0.0265  0.1023  0.5778
19592W        W36066   8.529  11.409  14.280 -0.0659 -0.0204  0.0607
19593W        W36067  15.827  17.113   2.335  0.1215  0.1018  0.1815
19594W        W36068   4.282  13.911  11.277 -0.1018 -0.2288 -0.0934
19595W        W36069   9.273  11.217  13.001  0.2034  0.0040 -0.4233
19596W        W36070  17.707  11.663   1.312 -0.0433  0.2145 -0.0450
19597W        W36071   0.396   3.010  11.519 -0.1696  0.0475 -0.0821
19598W        W36072   8.183   5.359  14.591 -0.3519  0.3855 -0.1141
19599W        W36073  18.043   7.959   2.000  0.0292 -0.0666 -0.2988
19600W        W36074   6.497   7.714  12.415 -0.0546 -0.2103  0.0952
19601W        W36075   3.439  16.595   2.142  0.2095 -0.0529 -0.5129
19602W        W36076  14.757   7.510   3.881 -0.2653  0.2865  0.1252
19603W        W36077   3.147   0.633  14.802 -0.2184 -0.0542  0.3097
19604W        W36078  15.930  14.065   3.255 -0.4771 -0.2825  0.1271
19605W        W36079  18.746   5.856  12.809 -0.2987  0.4681 -0.0791
19606W        W36080   4.408   4.782  13.102 -0.5971 -0.1336 -0.1080
19607W        W36081  13.811  16.851   3.219 -0.0559  0.2264  0.0931
19608W        W36082  10.807   8.646   0.600  0.4409 -0.0302  0.2675
19609W        W36083   7.081  12.725   2.295 -0.2512  0.1505  0.4306
19610W        W36084  10.598  11.618   2.712  0.0674 -0.1871 -0.2566
19611W        W36085   1.184  14.723  11.557  0.3088  0.0529  0.1354
19612W        W36086  15.312   7.286  13.057 -0.0746 -0.2040 -0.1249
19613W        W36087   4.824   0.542   2.308  0.1263 -0.0875 -0.2137
19614W        W36088  13.014   2.287   4.374  0.1771  0.1632 -0.1960
19615W        W36089  14.026   2.656  12.828  0.1372 -0.1935  0.0245
19616W        W36090  10.844  15.699   3.251  0.0527  0.0763  0.1640
19617W        W36091  12.053  10.980   3.743 -0.0338  0.1518  0.1029
19618W        W36092  10.047   2.291  10.814  0.1039  0.0742  0.1355
19619W        W36093  12.463  18.332  11.735 -0.0854 -0.3077  0.1591
19620W        W36094   8.401   0.264   9.826 -0.0177 -0.2030 -0.4352
19621W        W36095   5.016   4.052  11.171  0.0412 -0.1239 -0.0477
19622W        W36096  14.907   7.760  11.580 -0.2302  0.0419  0.0378
19623W        W36097   0.537   3.047  14.610  0.0783  0.3994 -0.0557
19624W        W36098   8.443   7.938   4.647  0.1570  0.0953  0.1891
19625W        W36099  14.205   7.403  14.753  0.1018 -0.3340 -0.1328
19626W        W36100   2.678   1.803   4.807  0.0466  0.0123 -0.0805
19627W        W36101  16.628   8.811  12.661  0.1054  0.3112 -0.0204
19628W        W36102   6.686   9.949   3.745 -0.0864 -0.2034  0.2154
19629W        W36103  17.579   9.436  14.995 -0.2399  0.0009 -0.0377
19630W        W36104   2.189   0.395   3.480  0.3770  0.1865  0.0027
19631W        W36105  11.494  15.065  13.984 -0.0440 -0.1179 -0.1493
19632W        W36106  15.511   9.219   4.477  0.2503 -0.0235 -0.0065
19633W        W36107   0.045   4.621   1.941 -0.0970 -0.1539 -0.0105
19634W        W36108  14.769   6.742  10.045  0.2355  0.0546  0.1593
19635W        W36109  15.535  11.751  14.768  0.3739  0.4195  0.4968
19636W        W36110   8.455  17.469  10.714 -0.1929 -0.0604 -0.1637
19637W        W36111  18.621  16.106   3.472 -0.0740  0.3655  0.2515
19638W        W36112  18.512  16.869   0.400  0.1145  0.0660  0.2662
19639W        W36113   8.421   0.879  11.915  0.0263  0.0331  0.3478
19640W        W36114   1.209  10.570   2.070  0.1390  0.4426 -0.0039
19641W        W36115  18.545  12.018   3.522  0.2711  0.1206 -0.1726
19642W        W36116   2.701  11.451   1.492 -0.0722  0.0062  0.0887
19643W        W36117  19.039   9.914  14.647 -0.1241  0.0603  0.2011
19644W        W36118  16.830   6.256   0.319  0.0251  0.0299  0.0358
19645W        W36119   0.318  17.279  12.517 -0.1286 -0.3031  0.0146
19646W        W36120   3.487  13.176  11.067 -0.1627 -0.3831 -0.3216
19647W        W36121  15.913   3.360   3.737 -0.0517  0.1974  0.2732
19648W        W36122   5.278  18.358   2.610 -0.1776 -0.1415 -0.1867
19649W        W36123  15.284  17.231   2.036  0.1418  0.0828 -0.1229
19650W        W36124   0.726   5.729  11.484 -0.1389  0.0642 -0.1207
19651W        W36125   0.885   6.191   4.547 -0.2080 -0.0476 -0.0190
19652W        W36126   1.656   4.960   5.396  0.0238 -0.0361 -0.0371
19653W        W36127   7.230  17.032   3.418 -0.1369  0.0573 -0.1549
19654W        W36128   6.940  16.164   0.639  0.0594  0.1465 -0.1250
19655W        W36129  17.657  13.052  13.198 -0.1826 -0.0717 -0.1407
19656W        W36130  16.545  11.748   2.728 -0.0231 -0.0455  0.1863
19657W        W36131  13.907   0.898   0.522  0.1563  0.1328  0.1811
19658W        W36132   4.097  15.765   3.517  0.0169  0.0715  0.0519
19659W        W36133   6.582   4.481  13.666  0.1604 -0.1761  0.1018
19660W        W36134   8.366   4.901   2.946 -0.0031  0.0017  0.0027
19661W        W36135   4.455   1.934  13.277  0.0654  0.2660  0.1763
19662W        W36136  13.078  14.079   0.497 -0.1777 -0.1809 -0.1868
19663W        W36137  17.216   6.978  14.196 -0.2771  0.0648 -0.2555
19664W        W36138   2.270   1.963  13.441  0.0943 -0.1747  0.0319
19665W        W36139   6.993  18.509   3.145  0.3019 -0.0465  0.0931
19666W        W36140   0.637   4.099   2.530  0.0267 -0.1509  0.0006
19667W        W36141  10.026  12.166  13.571 -0.0697  0.1504  0.1572
19668W        W36142   5.413   1.603   1.880 -0.0052 -0.1681  0.0652
19669W        W36143  17.646   1.747   1.162 -0.1349  0.0018 -0.2679
19670W        W36144   7.579  12.336  12.533  0.1152 -0.0651  0.0998
19671W        W36145  17.441  17.595   2.622  0.2299 -0.1763  0.0090
19672W        W36146   9.423   7.030   5.321  0.0507 -0.0584 -0.3273
19673W        W36147   8.845   3.464   2.638 -0.0119 -0.1418 -0.2470
19674W        W36148   5.560   2.004  10.176 -0.1070 -0.1195 -0.0174
19675W        W36149   8.586  14.802   2.933 -0.1509  0.0123  0.0836
19676W        W36150   8.344  15.188   4.433  0.0231  0.2389 -0.0324
19677W        W36151   5.387   8.396  13.699 -0.2310  0.2561  0.0078
19678W        W36152  10.519  15.134  14.114 -0.1628 -0.1280  0.0159
19679W        W36153   7.556  15.027   1.889  0.2230 -0.0373  0.0654
19680W        W36154  16.560  13.671   3.645 -0.0279  0.3303 -0.1102
19681W        W36155   8.354   0.407   0.306 -0.3022 -0.0608  0.0383
19682W        W36156   2.487   8.144  12.731 -0.1735  0.2412 -0.2055
19683W        W36157  10.437  10.196   5.321  0.3570  0.0329 -0.1949
19684W        W36158  10.006  18.520  13.012 -0.2882 -0.0701 -0.1034
19685W        W36159   0.587   3.936  13.709  0.3802  0.1608  0.1947
19686W        W36160   6.355   7.336  12.776  0.1048 -0.3318 -0.0260
19687W        W36161  11.660  12.407  10.545 -0.0711 -0.1226 -0.3692
19688W        W36162   1.580  13.640   0.942  0.2723  0.2957  0.0269
19689W        W36163   4.502   1.297  11.494  0.1067  0.1026  0.0097
19690W        W36164   7.064  13.113   0.438 -0.0899  0.0174  0.1494
19691W        W36165  15.583  11.570  10.157 -0.2097  0.1913 -0.1589
19692W        W36166  17.343  14.982  10.818  0.1453  0.1800 -0.2397
19693W        W36167   3.794   2.349  11.857 -0.1910 -0.0562 -0.0374
19694W        W36168   2.771  14.213   0.593  0.3739 -0.2799  0.1753
19695W        W36169  13.563  12.770  11.311  0.4589 -0.1764  0.1827
19696W        W36170   5.028   5.596  13.029  0.1452  0.2072 -0.2121
19697W        W36171  18.615   2.899   1.789  0.0321  0.0060  0.0915
19698W        W36172  10.401  13.592   2.857 -0.0307  0.1301 -0.0285
19699W        W36173   7.746   9.514   4.130  0.1908 -0.3269  0.1375
19700W        W36174   2.940  11.782   4.698  0.1129 -0.1452  0.0536
19701W        W36175  18.341  14.262   2.718 -0.2152 -0.2094  0.0437
19702W        W36176   6.721  12.277   3.991 -0.3983 -0.1706  0.2446
19703W        W36177   2.982   0.638   5.802  0.1696 -0.0247 -0.0898
19704W        W36178  13.747  14.558   0.184 -0.1556 -0.2152  0.0511
19705W        W36179  12.951   0.091  15.129 -0.0576 -0.1163 -0.3637
19706W        W36180  18.191  10.217  14.885  0.1789  0.3031 -0.0515
19707W        W36181  11.034  10.863   1.837 -0.2245  0.1838  0.0952
19708W        W36182  16.567  19.019   3.130  0.0280  0.0141  0.0786
19709W        W36183  15.631   9.486  12.350 -0.0184  0.2021 -0.2253
19710W        W36184   5.674  13.130   0.185  0.1568  0.3356 -0.1643
19711W        W36185   2.110  10.506  12.285  0.2208  0.2189  0.0280
19712W        W36186  10.052   4.673   3.683 -0.2998  0.0526 -0.2095
19713W        W36187  10.604   9.660   5.462  0.0102 -0.3790  0.0479
19714W        W36188  10.843  17.556  10.131 -0.0853 -0.0015 -0.1238
19715W        W36189   3.820  13.236  13.404 -0.3258 -0.2721  0.3020
19716W        W36190   9.509   4.482  11.318  0.3279  0.1067  0.0422
19717W        W36191   5.838  18.649   1.544  0.1024  0.0142 -0.3452
19718W        W36192   4.580   3.328   2.707 -0.0259  0.0004  0.2455
19719W        W36193  18.788   5.718  14.514  0.3412 -0.0336  0.0648
19720W        W36194   1.968  13.530  10.899  0.2455  0.2914 -0.0028
19721W        W36195  15.987   2.113   4.591  0.3105 -0.0080  0.0782
19722W        W36196   2.459  15.429  14.667  0.2630 -0.0713  0.0441
19723W        W36197   2.986   9.290   4.230  0.0908 -0.1106 -0.3446
19724W        W36198  10.777   7.146  13.914  0.0809  0.2624 -0.1441
19725W        W36199  15.445   0.567   2.973 -0.2118 -0.1202  0.0350
19726W        W36200  18.098   5.059  14.693  0.0848 -0.0230 -0.2889
19727W        W36201  11.691  17.449  12.153  0.2728  0.0451 -0.0148
19728W        W36202   9.420   7.135   9.961  0.1039 -0.1880 -0.1401
19729W        W36203   8.366  15.461  12.060  0.0433  0.1769 -0.2022
19730W        W36204   1.872   9.314  11.507  0.1179  0.1187 -0.1621
19731W        W36205   9.789  14.004   5.125 -0.0546 -0.3889 -0.0958
19732W        W36206   2.657  17.218   5.251  0.0713  0.3476 -0.0969
19733W        W36207   9.038   9.622   4.752 -0.2553  0.1307 -0.0342
19734W        W36208  14.747  16.677  12.721 -0.1356 -0.2101 -0.1475
19735W        W36209   8.360  17.424   0.829  0.0768  0.0109 -0.0331
19736W        W36210   6.555  10.125  13.232  0.1804 -0.0550 -0.0243
19737W        W36211   2.166   1.781  11.626 -0.1286  0.1820  0.1196
19738W        W36212  19.049  15.495   6.011  0.1686 -0.0634  0.0411
19739W        W36213   2.115  12.844  10.808  0.1308 -0.1118  0.2443
19740W        W36214  11.937  15.218   0.920 -0.2210  0.1534  0.0142
19741W        W36215  11.593   4.010  13.312  0.1925 -0.2897  0.0182
19742W        W36216   4.142  11.372  12.410  0.0173  0.0700  0.1931
19743W        W36217   6.524   4.954  10.754  0.3759  0.1365  0.3194
19744W        W36218   6.288  15.740  10.272  0.1425  0.0398  0.1789
19745W        W36219   6.370   8.759  14.053 -0.0177 -0.0394 -0.1078
19746W        W36220  10.139  17.253   1.887 -0.0115  0.3443  0.3769
19747W        W36221  18.078   1.609   0.396  0.1195 -0.0738  0.0403
19748W        W36222   7.012  17.412  11.511  0.2116 -0.1263 -0.1860
19749W        W36223   1.209   4.386  13.181  0.0318  0.4762 -0.0584
19750W        W36224  18.708  13.488  11.867  0.2213  0.1062  0.0328
19751W        W36225  11.357   7.185  13.685  0.0196  0.3688  0.1134
19752W        W36226   0.490   4.529   1.195  0.3549 -0.1582 -0.0738
19753W        W36227   0.467  18.259   5.778  0.3028  0.3667  0.1466
19754W        W36228   7.979   6.429   0.054  0.0883  0.2823 -0.0001
19755W        W36229  17.044   7.876   1.868 -0.0566  0.1218 -0.0989
19756W        W36230  10.245  18.218  10.355  0.3704 -0.2270  0.0878
19757W        W36231   7.666  12.192   4.484 -0.1353  0.0358 -0.1550
19758W        W36232   9.848  12.788   2.529  0.2512 -0.1125 -0.2392
19759W        W36233   7.199   4.247   1.555 -0.0686  0.3860  0.1176
19760W        W36234   1.357   3.502   2.653 -0.0098 -0.2859 -0.0428
19761W        W36235   3.485   6.133  10.757  0.1412  0.2890  0.0970
19762W        W36236   4.139   1.196  12.369  0.1369 -0.0094 -0.0779
19763W        W36237   2.542  16.580   5.141 -0.0302  0.3342 -0.2259
19764W        W36238   7.736   2.157  14.175 -0.0143  0.2436 -0.1696
19765W        W36239   0.734   0.707  14.955  0.3033  0.0492 -0.0628
19766W        W36240   8.214  10.095   1.454 -0.2608 -0.1300 -0.0760
19767W        W36241   8.985   5.859   0.135 -0.2606  0.1235 -0.1599
19768W        W36242   3.540   4.529  13.216  0.0764 -0.2989  0.1069
19769W        W36243   2.082   8.525  15.035  0.0395  0.0245  0.0863
19770W        W36244   3.605  11.557  10.500 -0.0531 -0.0788  0.1345
19771W        W36245   1.883   6.572   0.576  0.1748 -0.1162  0.3953
19772W        W36246  18.663  13.173  12.681 -0.1942 -0.1505  0.3026
19773W        W36247   2.411   9.670   2.028  0.0200 -0.0516  0.2605
19774W        W36248   9.052   6.583  12.141 -0.0379  0.0576  0.1067
19775W        W36249   1.230  16.337   2.942  0.1232 -0.2879  0.0206
19776W        W36250   5.466  12.657   3.378  0.1045 -0.1180  0.0473
19777W        W36251   2.639  18.994  14.704  0.0873  0.2092  0.1105
19778W        W36252  17.667   4.876  11.841  0.1542  0.1312  0.2883
19779W        W36253  13.641  19.069   0.619  0.0460  0.2472  0.0313
19780W        W36254   0.705  13.644   5.679  0.1987  0.0974  0.1190
19781W        W36255   7.828  15.452   2.430 -0.0349 -0.2282  0.0788
19782W        W36256   5.890   8.838   2.853  0.0996  0.2261  0.2088
19783W        W36257   0.909   2.821  11.021  0.1217  0.0187  0.0889
19784W        W36258   1.913   8.268   4.637 -0.0161  0.1661 -0.1640
19785W        W36259   1.231   1.125   3.991  0.3293  0.0240  0.1268
19786W        W36260  15.011   4.290  14.947 -0.0443  0.1999  0.0233
19787W        W36261   1.686   7.090   3.436  0.1652  0.1943  0.0474
19788W        W36262  12.241   1.718  10.502  0.1132  0.1005 -0.1920
19789W        W36263   8.727  18.325  10.710 -0.0555  0.5423  0.2846
19790W        W36264  10.914   4.942   0.297  0.3000  0.3250  0.0495
19791W        W36265   0.797  16.755  11.597 -0.0731  0.2417 -0.0606
19792W        W36266   3.792   1.533   2.707 -0.2036  0.2751  0.0952
19793W        W36267   6.673  12.977   0.059  0.0187 -0.1213 -0.0829
19794W        W36268   0.645  13.317  12.420  0.2888  0.1344 -0.1551
19795W        W36269   9.960  14.373   4.781  0.0338  0.0802  0.0512
19796W        W36270   4.104  17.978  11.160 -0.2721 -0.3435 -0.1508
19797W        W36271   9.208  14.987   4.014  0.3423  0.0909 -0.1255
19798W        W36272   0.603  16.752   2.991  0.0457 -0.0459 -0.1306
19799W        W36273   3.267  12.521  12.457 -0.1406  0.1997 -0.0334
19800W        W36274  12.664  18.739  12.608  0.1718  0.2024  0.1366
19801W        W36275   9.581   7.688   1.679 -0.5862  0.0150 -0.0020
19802W        W36276   7.885  17.466  12.535  0.2114 -0.1389  0.1808
19803W        W36277  15.293  16.615   0.322 -0.0523 -0.0529 -0.0703
19804W        W36278   4.652   4.354   2.428  0.1243  0.2866 -0.1548
19805W        W36279   9.092  18.667  14.915 -0.1936 -0.3559 -0.1655
19806W        W36280  12.765  13.870  14.508 -0.0269  0.1347  0.1781
19807W        W36281   2.789  13.705   3.891  0.1135  0.1668  0.0492
19808W        W36282   8.991  17.739   3.551  0.2724  0.0019 -0.0874
19809W        W36283   8.083   8.464   1.461 -0.0172  0.1220  0.2049
19810W        W36284   5.487   9.178   3.079 -0.2975 -0.2266 -0.1808
19811W        W36285   2.721   3.106   0.216 -0.2090 -0.1060  0.5023
19812W        W36286  13.222   8.444  10.584  0.2596  0.0157 -0.0150
19813W        W36287  12.795  10.804   4.897 -0.0323  0.0605 -0.3329
19814W        W36288   3.901  17.619  14.257  0.0364 -0.2751  0.0310
19815W        W36289  18.968  12.462   0.972  0.0535 -0.1281 -0.1907
19816W        W36290  18.961  13.396   0.401  0.0353 -0.3167 -0.1000
19817W        W36291   0.766   3.890   1.037 -0.4573 -0.1134  0.0751
19818W        W36292  10.064   1.890   4.114 -0.3865 -0.4932  0.3506
19819W        W36293  15.050  12.853   2.171 -0.1384 -0.0836 -0.2114
19820W        W36294   4.602   3.895   4.179  0.0583  0.1787 -0.1142
19821W        W36295  14.772  17.776  12.652 -0.1965  0.1059  0.2205
19822W        W36296   3.862   6.495   2.648  0.0282  0.4982  0.0437
19823W        W36297  12.423   3.308   4.482  0.0533 -0.0675 -0.1146
19824W        W36298   0.716   6.053   0.931 -0.0954 -0.3324 -0.1707
19825W        W36299   2.101  12.557  10.395 -0.1992  0.1732 -0.1517
19826W        W36300   4.019   1.647   3.541  0.2346  0.1765 -0.3608
19827W        W36301   5.135   1.767   5.636 -0.2854  0.2133 -0.0753
19828W        W36302   9.540   0.621   2.319  0.1545  0.0217 -0.0504
19829W        W36303   7.892   0.615   0.581  0.1208 -0.1923 -0.0321
19830W        W36304   3.532   9.661  10.711  0.0685  0.0396 -0.1857
19831W        W36305  17.199  15.722   3.403 -0.1812 -0.0263 -0.0296
19832W        W36306  11.387  13.521   3.372  0.0444 -0.0134  0.2911
19833W        W36307   1.530  13.110   4.670  0.1733  0.0567  0.2324
19834W        W36308  16.050  14.705  10.402 -0.1078 -0.2524  0.2308
19835W        W36309  13.731  10.588   1.501 -0.0700  0.1217  0.1822
19836W        W36310   8.463   7.572   2.821  0.0884  0.0328  0.1908
19837W        W36311  14.542  12.918  13.618 -0.0961 -0.2548 -0.0249
19838W        W36312  18.203   9.314   1.100 -0.0481  0.1051  0.1552
19839W        W36313   1.557  10.866  14.782  0.3628 -0.0999  0.1006
19840W        W36314   1.803   0.111   5.138  0.1631 -0.1622 -0.0315
19841W        W36315   4.330   7.727   1.110  0.0872  0.1292  0.0977
19842W        W36316  14.744   2.319  10.721 -0.1003  0.1545 -0.1897
19843W        W36317   0.511  12.969  13.851 -0.1007  0.2155 -0.0794
19844W        W36318  12.954   8.186   1.250 -0.1363  0.1715 -0.1349
19845W        W36319   5.332   5.009   4.389  0.1115 -0.1845 -0.1292
19846W        W36320  13.954  15.809   3.535 -0.1930 -0.0919 -0.4145
19847W        W36321   1.106  16.985   1.615 -0.2423  0.0337  0.0379
19848W        W36322   5.170  10.759  12.335 -0.1150 -0.0309 -0.1454
19849W        W36323   6.143   7.432  12.253  0.0786  0.1650  0.0274
19850W        W36324  14.448   8.509   0.357 -0.0147 -0.2091 -0.0243
19851W        W36325   1.158  13.503  12.302 -0.0469 -0.1625 -0.3182
19852W        W36326  16.277   9.784   1.888 -0.2053 -0.2185  0.0588
19853W        W36327   4.921   9.209  11.500  0.0103 -0.0703 -0.2808
19854W        W36328  16.902   8.392   2.956  0.0539 -0.0651  0.0572
19855W        W36329  11.684  15.556   2.245 -0.0945 -0.0667  0.0779
19856W        W36330  13.774   8.182  10.992  0.1609  0.1966 -0.0508
19857W        W36331  15.698  18.514  14.973  0.2128  0.1491 -0.1092
19858W        W36332  10.735  14.718   0.770 -0.0160 -0.1954  0.3474
19859W        W36333   8.922  11.979  11.900 -0.1097  0.1856  0.1105
19860W        W36334   9.518  16.203  14.242 -0.0424 -0.0920  0.0596
19861W        W36335   2.543   6.319  10.625  0.1239 -0.3313  0.1591
19862W        W36336  17.750  19.021  11.520  0.1246  0.0832 -0.3747
19863W        W36337  14.897   2.756  13.283 -0.0632  0.0798 -0.0544
19864W        W36338  13.004  13.216  13.889  0.1033 -0.0498  0.1165
19865W        W36339   1.903  18.777   4.889 -0.0261 -0.0176 -0.0837
19866W        W36340  13.174   8.332  13.322  0.3031  0.0560  0.1330
19867W        W36341   9.523   2.976  14.879 -0.3731  0.1506  0.0548
19868W        W36342  12.752  10.368  12.518  0.1082 -0.0450 -0.1478
19869W        W36343   7.257   6.370   3.037  0.0217  0.0162  0.1811
19870W        W36344   0.260   8.121  13.876 -0.3340 -0.1713  0.0591
19871W        W36345   7.184   9.070  12.001 -0.1050  0.0364  0.2240
19872W        W36346  16.990  14.605   2.540  0.0373 -0.0118 -0.0555
19873W        W36347  11.798  15.968   5.800  0.2330 -0.0479 -0.0317
19874W        W36348  11.060   9.458   3.868  0.0493 -0.0619 -0.1291
19875W        W36349  14.644   9.443   0.259 -0.4152  0.0530  0.1739
19876W        W36350   1.148   3.944   4.553  0.1428 -0.1757  0.0840
19877W        W36351  13.086   3.438  12.247 -0.2177  0.2787  0.3031
19878W        W36352   9.156  16.156   3.832 -0.0078  0.0010  0.1646
19879W        W36353   4.074  16.294  13.800 -0.1107 -0.1333  0.1665
19880W        W36354  14.093  12.890   1.177 -0.1066  0.2555  0.0537
19881W        W36355   2.391  13.281  15.135  0.0008  0.3481 -0.0261
19882W        W36356   3.680  10.104  11.485 -0.0019 -0.3358  0.1558
19883W        W36357  17.432  11.520   5.158 -0.2137  0.1544 -0.1004
19884W        W36358  10.758   9.679  12.938  0.2042  0.0832 -0.3348
19885W        W36359   1.842  12.318  10.780  0.0031  0.3660  0.1976
19886W        W36360  16.173   2.555  13.611 -0.0276 -0.2144  0.1424
19887W        W36361  13.534   2.877  15.117  0.3199 -0.1416 -0.0453
19888W        W36362   9.395  11.379  13.523 -0.0577 -0.2506  0.0281
19889W        W36363  13.845  10.183   2.026 -0.1292  0.2079  0.0507
19890W        W36364   8.332  14.677   1.590 -0.1255  0.0803  0.2129
19891W        W36365   8.898  18.360  10.253 -0.5034 -0.0812 -0.0045
19892W        W36366  17.031   4.481  13.486 -0.1249 -0.1823  0.3800
19893W        W36367  13.673   1.043  12.649  0.3142  0.0810 -0.4155
19894W        W36368   7.441  12.087   5.185  0.0099 -0.1162 -0.1016
19895W        W36369   7.899   8.288  11.525  0.0509 -0.4377 -0.1715
19896W        W36370  12.687   9.239   3.142 -0.0738  0.1242  0.1951
19897W        W36371  14.873  14.907  14.174 -0.0369  0.1443  0.1779
19898W        W36372  14.587   1.833  12.211 -0.0729 -0.0444 -0.0840
19899W        W36373  16.971  17.379  11.684 -0.0157  0.1736  0.1693
19900W        W36374  13.312  16.268  11.839  0.3168  0.0065  0.2737
19901W        W36375   6.387   4.096   0.060  0.0497 -0.0031 -0.1923
19902W        W36376  10.595   0.960   3.882  0.1787  0.0426 -0.1767
19903W        W36377  11.773  16.072   5.264  0.1600  0.0503  0.0058
19904W        W36378  16.170   2.552   2.713  0.0453  0.1109  0.0538
19905W        W36379  10.903  12.427  13.665  0.4531 -0.1370 -0.0685
19906W        W36380  15.347  17.499  14.129 -0.1129  0.1441  0.0591
19907W        W36381   9.755  14.371  12.769  0.1472 -0.0841  0.2227
19908W        W36382  12.538  11.676   4.141 -0.2562 -0.1626 -0.3659
19909W        W36383   1.158  12.428   3.516  0.2642 -0.3141  0.3449
19910W        W36384   0.008   7.441  13.313  0.0329  0.0069 -0.0208
19911W        W36385  18.649  10.848  11.044  0.0621  0.1716 -0.1203
19912W        W36386   5.256   0.745   5.098  0.0308  0.0366 -0.0409
19913W        W36387  16.469   2.337   4.627 -0.2742  0.0154  0.0929
19914W        W36388   8.709   9.248   4.231  0.1023  0.1116 -0.0878
19915W        W36389  16.732   0.754   2.485  0.2601 -0.1066 -0.0397
19916W        W36390  11.800  17.965   3.286  0.3521 -0.0510  0.0175
19917W        W36391   4.721  14.130  11.077  0.5220  0.0768  0.2009
19918W        W36392   5.863   4.087  10.571 -0.1526  0.3596  0.1118
19919W        W36393  15.584  16.684  12.522 -0.0614  0.0616 -0.2788
19920W        W36394   5.748  10.820   5.671 -0.1258  0.0366 -0.0328
19921W        W36395   9.813  14.922  11.948 -0.3161 -0.0484 -0.0393
19922W        W36396  14.707   6.234  14.487  0.2197  0.1265  0.0139
19923W        W36397  16.820  15.422   2.608 -0.1490 -0.3473 -0.0673
19924W        W36398   2.087   4.759  13.875  0.3679 -0.1329  0.1604
19925W        W36399   1.449   4.604  14.876  0.1054  0.0001 -0.2278
19926W        W36400   6.493  15.425   2.679  0.0507  0.1773 -0.0873
19927W        W36401   0.720  11.438  12.833 -0.3385  0.5948  0.0334
19928W        W36402   1.638  11.829  13.582  0.1026 -0.4739  0.0979
19929W        W36403   2.972   7.669   3.687 -0.1982 -0.0034  0.0245
19930W        W36404   4.088  10.305  10.316 -0.0605  0.2674 -0.1584
19931W        W36405   6.059   5.801   3.542 -0.1073  0.1224 -0.1666
19932W        W36406  11.450   0.599   4.355  0.0884  0.5378  0.4770
19933W        W36407  12.580  17.089  13.318 -0.1077 -0.2365 -0.2050
19934W        W36408  18.171  18.105  12.118  0.1729  0.4406  0.3125
19935W        W36409  16.758   6.276   5.123  0.0411  0.3254  0.0547
19936W        W36410   8.872   3.191   3.876  0.1159  0.0699  0.2497
19937W        W36411  13.199  10.635  12.403  0.0327 -0.1727 -0.0544
19938W        W36412  18.025  18.859  10.489  0.0655  0.1711 -0.1158
19939W        W36413   6.678   2.930   3.457  0.2051  0.0689  0.4710
19940W        W36414  14.815   2.310  11.481  0.2154 -0.1667 -0.1766
19941W        W36415   5.022  11.799   9.962  0.0305  0.2365 -0.2545
19942W        W36416   4.698   4.555  11.391  0.1652  0.2219 -0.2550
19943W        W36417   2.169   7.112  12.332 -0.0409 -0.0718 -0.2214
19944W        W36418   6.593   4.095  12.429 -0.2119 -0.4213 -0.1284
19945W        W36419   6.202   7.690   0.543 -0.4753 -0.0634  0.0165
19946W        W36420  15.647  18.031   4.505  0.0608  0.0704  0.2125
19947W        W36421   0.118  18.848  13.410 -0.0039  0.2509 -0.2388
19948W        W36422  10.424   2.057   0.307 -0.0684 -0.0099 -0.0779
19949W        W36423   0.428  16.745  14.192 -0.1146 -0.2450  0.2658
19950W        W36424  14.228   3.101  14.129 -0.1053  0.0255 -0.1324
19951W        W36425   9.509  12.593   4.378  0.1708  0.0288 -0.2256
19952W        W36426  10.842   4.925   3.831 -0.0271 -0.0973  0.1697
19953W        W36427   2.840  15.506   3.822  0.0790 -0.2395  0.0001
19954W        W36428   9.001   9.494   1.286  0.0499 -0.1912  0.2510
19955W        W36429   2.047   0.399   4.032 -0.1633  0.0918  0.0124
19956W        W36430  13.681  12.343   3.828 -0.3107 -0.3102  0.0716
19957W        W36431  11.987   8.033   2.207  0.4167 -0.2167 -0.2122
19958W        W36432  17.537  10.896  12.762 -0.1187  0.3492 -0.3642
19959W        W36433  12.059  17.120   9.738  0.1272 -0.1249 -0.1099
19960W        W36434   8.089   1.097   0.762 -0.0293  0.1011  0.1692
19961W        W36435  12.669  13.603  13.966 -0.2582  0.0697  0.2366
19962W        W36436  16.817  10.788  14.161  0.0378 -0.1325 -0.2377
19963W        W36437  18.579   3.962  12.947 -0.2731 -0.1447  0.1843
19964W        W36438   7.187   0.546   1.797  0.1038 -0.2137 -0.1348
19965W        W36439   9.857  12.828   3.130 -0.1411 -0.0215 -0.0625
19966W        W36440  12.769  13.271   1.206  0.3995 -0.0801 -0.1695
19967W        W36441   5.897   4.185   0.333 -0.3629 -0.0739  0.0453
19968W        W36442  11.557   4.206   4.303  0.3010 -0.0458 -0.1847
19969W        W36443  14.128  10.350  13.987 -0.2292  0.2236  0.0894
19970W        W36444  12.747   7.501   4.668 -0.0689  0.2818 -0.1551
19971W        W36445   6.399  12.888   3.501  0.2319 -0.2485 -0.0005
19972W        W36446  12.914   7.938   1.745  0.0761  0.3636  0.1872
19973W        W36447  15.726  12.558  14.041  0.0548  0.0597 -0.1556
19974W        W36448  14.720  13.973  14.153  0.2599 -0.0827 -0.0842
19975W        W36449  12.221   4.947   3.045  0.1955 -0.1971 -0.0404
19976W        W36450  13.701   3.269  10.761 -0.0284  0.0802  0.0588
19977W        W36451  12.340   1.650  11.530  0.0294 -0.0788  0.2963
19978W        W36452  15.967   7.707  11.283 -0.2981 -0.1358  0.1444
19979W        W36453  15.127   2.838  14.436  0.4803  0.1032 -0.0638
19980W        W36454  16.152   5.161  12.773  0.4049 -0.0517  0.2498
19981W        W36455   6.190  18.817   1.182  0.2082  0.0091  0.1008
19982W        W36456   0.112   5.931  11.268  0.4189  0.0079  0.0900
19983W        W36457  12.665  17.364  11.258 -0.1099 -0.0600 -0.1827
19984W        W36458  18.396   3.080   4.724  0.1573 -0.2050  0.0530
19985W        W36459   6.640   3.677  14.045 -0.2943  0.3017  0.0159
19986W        W36460   3.928  18.856   2.413 -0.1377 -0.1260 -0.0351
19987W        W36461  10.991  15.090  11.514 -0.3247 -0.0768 -0.1465
19988W        W36462  11.866   7.745   0.268  0.0759 -0.1845 -0.0987
19989W        W36463   2.337  16.441  11.040 -0.3827 -0.0605 -0.0849
19990W        W36464  10.474  17.834   9.912 -0.0923  0.0609 -0.3340
19991W        W36465   8.392  14.020   4.034  0.4267  0.1889 -0.0157
19992W        W36466  17.429  16.858  14.315 -0.0512 -0.2126 -0.1796
19993W        W36467   4.496  11.435  12.046  0.1437 -0.1639  0.2431
19994W        W36468   1.062  12.482   1.602  0.3149  0.1386 -0.0876
19995W        W36469  16.293  11.891   0.395 -0.2020  0.0111 -0.0812
19996W        W36470  18.714   7.608   3.986  0.0507  0.1489 -0.3729
19997W        W36471   5.110  14.997   2.295 -0.2613  0.3186  0.1529
19998W        W36472   5.222   2.319   0.889  0.1417 -0.0031 -0.0574
19999W        W36473   6.517   8.132   4.120  0.5187  0.0432  0.0945
20000W        W36474  13.702   7.104  14.612 -0.1361 -0.0608 -0.2179
20001W        W36475  14.056   1.324  12.799 -0.2082 -0.0266  0.0265
20002W        W36476   5.975  12.949  14.757  0.1651 -0.0097 -0.1712
20003W        W36477   5.322   9.559  11.557 -0.1342  0.0513 -0.1112
20004W        W36478   1.427  14.359  13.338 -0.0046  0.1865  0.2316
20005W        W36479   3.730  16.304  11.405  0.0439  0.0102  0.0762
20006W        W36480   1.568  18.827  14.496  0.0111  0.0211 -0.2164
20007W        W36481   6.281   3.738  14.881 -0.0239  0.1930 -0.4347
20008W        W36482   2.425   2.178  11.494  0.1381  0.1485  0.0112
20009W        W36483   0.817  13.175  11.355  0.0003  0.1282 -0.0981
20010W        W36484  15.163   7.460   2.280  0.0580  0.4453 -0.1812
20011W        W36485  13.806   5.034   0.527  0.2800 -0.1937 -0.0942
20012W        W36486  12.018   0.781   1.428 -0.0153 -0.0443 -0.2576
20013W        W36487  16.031  17.074   9.803 -0.1163  0.0505  0.2000
20014W        W36488  12.658  17.526   1.294  0.1347  0.0029 -0.3072
20015W        W36489  16.752   8.471   4.654 -0.0534 -0.0951 -0.1047
20016W        W36490   0.662  17.752  12.539  0.1052 -0.1897 -0.3632
20017W        W36491  11.828   0.430  11.584 -0.0159 -0.1485  0.0354
20018W        W36492   1.365  15.828   0.702 -0.1170  0.1760  0.3009
20019W        W36493   8.805   4.134   5.270  0.2177 -0.0493 -0.2000
20020W        W36494   3.348   3.093  13.726  0.2892 -0.1850  0.1927
20021W        W36495   1.516  16.190  13.870 -0.1147 -0.1046  0.0475
20022W        W36496  16.961  17.300  10.741 -0.1447  0.0759  0.1188
20023W        W36497  13.082   6.336  11.496 -0.6255 -0.1553 -0.1747
20024W        W36498   7.266   2.287  12.748 -0.0139  0.3842  0.3885
20025W        W36499   7.181  16.940  10.659 -0.1548 -0.1112  0.0263
20026W        W36500   0.929   3.669   2.420  0.2223  0.0253 -0.1839
20027W        W36501   9.437   4.117  13.306  0.0039 -0.3022  0.0717
20028W        W36502   0.253   9.150   9.994 -0.1875  0.0657  0.0667
20029W        W36503  11.502   5.258   2.045  0.2598 -0.2038 -0.0739
20030W        W36504  14.386   7.813   2.666 -0.1435 -0.2236 -0.2074
20031W        W36505  14.267   0.491  11.443 -0.1755 -0.0075 -0.3426
20032W        W36506  16.606   1.101  13.466  0.0435  0.1538  0.1783
20033W        W36507  17.565  16.028  15.049 -0.0554  0.1858  0.1590
20034W        W36508  18.199   5.923   3.538  0.0479 -0.2224  0.3780
20035W        W36509  10.579   9.657   3.801 -0.0283  0.1212  0.3041
20036W        W36510  10.461   2.025  14.904  0.1346 -0.1398 -0.1124
20037W        W36511   6.473  15.205  11.896  0.3536 -0.1805  0.1006
20038W        W36512   8.654   5.584   2.927  0.0718  0.2987 -0.2621
20039W        W36513  18.406   8.923   1.836 -0.0840  0.2007  0.2814
20040W        W36514  12.823   4.971  13.628  0.1554 -0.0884 -0.1021
20041W        W36515   6.590  16.834   1.177  0.3667  0.1407 -0.1201
20042W        W36516   8.538   6.214  12.498 -0.0612 -0.2214  0.3188
20043W        W36517  11.220   1.816  10.245 -0.1125 -0.0840  0.0898
20044W        W36518   5.701  12.096  13.890 -0.0396 -0.0098  0.0700
20045W        W36519   8.130   8.364  12.943 -0.0907  0.2240 -0.1962
20046W        W36520   5.723  10.488  12.552  0.0301 -0.0103 -0.2505
20047W        W36521  17.549   7.999  13.873  0.2662 -0.4885 -0.1232
20048W        W36522   1.237  10.080  14.760  0.2442 -0.0742  0.1836
20049W        W36523   5.951  17.766   0.519 -0.1062  0.0817  0.0646
20050W        W36524  10.418   2.600   2.543  0.0975  0.0191 -0.0755
20051W        W36525   5.863  17.173   3.079  0.0203  0.3561 -0.0716
20052W        W36526   7.412  12.680   0.570  0.1571  0.3129 -0.0022
20053W        W36527   9.880  14.775  10.852  0.1037  0.2573 -0.1287
20054W        W36528   4.495  18.782  14.966  0.1687  0.0337 -0.2297
20055W        W36529  14.488  14.194   0.105  0.1980  0.0559 -0.2618
20056W        W36530  17.707  18.334  13.778  0.1228  0.0876  0.1687
20057W        W36531   4.319  15.325  12.358  0.0699  0.5156 -0.0267
20058W        W36532  17.035  15.678  13.366  0.1689 -0.1905 -0.0226
20059W        W36533  18.842   1.238  14.561 -0.2901 -0.4803  0.1154
20060W        W36534  16.264  11.900   1.938  0.0305  0.1501  0.4519
20061W        W36535   4.362   3.437  15.114  0.0541  0.0002  0.1251
20062W        W36536   4.953  12.457  14.977 -0.3800 -0.0807  0.0489
20063W        W36537  15.796   0.821  13.272 -0.0326 -0.0070 -0.3294
20064W        W36538   4.333   1.504  12.722  0.1618  0.1512  0.0732
20065W        W36539  11.104   2.437   1.716 -0.1522 -0.0261 -0.0171
20066W        W36540  15.937   2.588   3.145 -0.0311  0.0871 -0.2399
20067W        W36541  12.758   8.395   2.813 -0.0378 -0.3184 -0.1444
20068W        W36542  18.245  17.538  13.796 -0.2563  0.0098 -0.0122
20069W        W36543   9.695   7.065   3.605  0.0711  0.1412  0.2595
20070W        W36544   1.743   5.938   3.926  0.0231 -0.2104  0.0420
20071W        W36545  11.992  12.231   0.634  0.1309 -0.2296 -0.2587
20072W        W36546   7.277   9.735   4.199 -0.2992 -0.5678 -0.1866
20073W        W36547  16.852  10.044   3.279 -0.0239 -0.1791 -0.0098
20074W        W36548  10.601  13.957   3.141 -0.2362 -0.2727 -0.4253
20075W        W36549  14.772  18.821   4.453  0.2426  0.0600 -0.1006
20076W        W36550  12.518   7.322   3.864 -0.0602  0.1262  0.0757
20077W        W36551   6.667   1.519  14.450 -0.0276 -0.2129 -0.2117
20078W        W36552  16.026   1.635   3.864 -0.0931 -0.1954  0.0710
20079W        W36553   7.553   1.597  11.468  0.1070  0.2119 -0.1317
20080W        W36554   8.436  10.583   4.844  0.1012  0.2613  0.4690
20081W        W36555   3.642   4.573  13.758 -0.1091 -0.0432  0.2198
20082W        W36556  17.851   2.370  10.923  0.0863 -0.1680 -0.1166
20083W        W36557  18.578  10.496   9.951 -0.1164  0.2472 -0.0942
20084W        W36558  14.235  18.664  10.889 -0.2297 -0.1986 -0.0284
20085W        W36559   1.373  17.578   4.618 -0.0989 -0.1148 -0.1049
20086W        W36560   1.968   8.191   1.383  0.2521  0.2211  0.2022
20087W        W36561   6.273   3.886   1.804 -0.0051  0.0334  0.0050
20088W        W36562   7.682   0.153   2.811 -0.1632 -0.1140  0.1469
20089W        W36563   9.424   6.054   1.109 -0.3244  0.1283 -0.1865
20090W        W36564   8.858   6.876  13.900 -0.1960  0.0363 -0.4566
20091W        W36565  15.014  10.784   1.453 -0.2706 -0.0412  0.2049
20092W        W36566   4.700  10.257   1.163 -0.0784 -0.1723 -0.5081
20093W        W36567   6.065  18.860  14.351  0.0215 -0.1439 -0.1839
20094W        W36568  18.732  14.599  11.173  0.0239 -0.0009  0.0390
20095W        W36569  11.804   3.583   9.784 -0.1986  0.1041 -0.1528
20096W        W36570  11.564   0.390  10.691  0.2473  0.0787 -0.0795
20097W        W36571  17.666   4.280  14.775 -0.0711  0.1328  0.1585
20098W        W36572   3.245  10.367  14.630 -0.1949  0.0608 -0.2461
20099W        W36573   0.227  18.298  10.233 -0.0924 -0.0255  0.1438
20100W        W36574  12.569   7.163  14.919 -0.4274  0.0950  0.2147
20101W        W36575   0.052   3.994   0.049  0.1923  0.2068 -0.0520
20102W        W36576   7.110  11.798   0.229  0.3039 -0.2368  0.0149
20103W        W36577   3.420   1.764  11.347  0.0651 -0.0134 -0.1370
20104W        W36578   5.240  13.612   3.188 -0.2311 -0.1116  0.0711
20105W        W36579  18.795   3.297  14.081  0.0810  0.0512  0.2394
20106W        W36580   0.490   3.156  12.514  0.0385  0.0808 -0.1682
20107W        W36581  11.128   5.144  13.828 -0.1146  0.1279 -0.2219
20108W        W36582  13.425  18.606   1.449 -0.0198 -0.0479 -0.1728
20109W        W36583   2.131   4.789  11.425 -0.0435 -0.0481  0.1674
20110W        W36584  12.325   5.919  13.370  0.0679  0.2414 -0.0085
20111W        W36585   5.791   4.277  11.981  0.0890  0.1053 -0.0938
20112W        W36586  15.915   8.966   4.456  0.3727  0.0697 -0.1337
20113W        W36587  12.140  12.081   1.509  0.1359 -0.2920 -0.0169
20114W        W36588   4.728  11.204  11.026  0.0920  0.0521  0.0592
20115W        W36589   4.223   9.260  12.116 -0.3193  0.0723  0.3302
20116W        W36590  10.650   3.823  14.918  0.0784 -0.2398 -0.2505
20117W        W36591  14.699   2.129   2.405  0.0896 -0.0932  0.1998
20118W        W36592   9.779   9.624   3.021  0.2029  0.1690 -0.1189
20119W        W36593  15.548  12.775   1.043  0.1361 -0.0108  0.1492
20120W        W36594  18.985   8.391  13.701  0.0075 -0.3277  0.0939
20121W        W36595   6.594   3.607  11.652 -0.1432  0.0992  0.2203
20122W        W36596  12.794   5.503  14.289  0.1575  0.3855  0.2930
20123W        W36597   9.232   6.084  13.645  0.2561  0.1936  0.0797
20124W        W36598   7.318   1.455   4.122  0.0667 -0.0867 -0.0385
20125W        W36599  12.131   1.350   4.518  0.2289  0.1528  0.2237
20126W        W36600  10.484  16.727  10.971  0.0872 -0.0823  0.2340
20127W        W36601  18.691  16.195  13.808 -0.1573 -0.0430  0.0650
20128W        W36602   9.373   1.586  10.623 -0.2895  0.3062  0.4931
20129W        W36603  15.880   3.002   4.525  0.2756 -0.1029 -0.1472
20130W        W36604   9.311  17.086   2.354  0.0980 -0.0961  0.0184
20131W        W36605  10.722   4.614   0.887 -0.0743  0.1354  0.0878
20132W        W36606  10.047  10.606   0.438 -0.0359  0.0023  0.0405
20133W        W36607   4.462  16.313   1.590 -0.1211 -0.3343 -0.3325
20134W        W36608   5.961  13.111   3.217  0.0967  0.2037  0.0210
20135W        W36609  10.869  12.027   2.756  0.2115  0.1725 -0.2662
20136W        W36610   4.759  11.785   1.860  0.0569 -0.0147 -0.3149
20137W        W36611  16.861  17.407  12.270 -0.1747 -0.0079 -0.0319
20138W        W36612   2.600   8.445  13.140  0.0159  0.0578 -0.1766
20139W        W36613  13.078  17.327  14.051  0.3596 -0.0781 -0.2425
20140W        W36614  13.580   9.024  11.253  0.1198  0.1556 -0.1945
20141W        W36615   9.596  18.265  11.773  0.1534 -0.0481 -0.0450
20142W        W36616   0.387  18.842  11.996  0.0555  0.2304 -0.0130
20143W        W36617   2.149   8.566  13.251  0.4677  0.1373 -0.0416
20144W        W36618  13.656  10.060  11.171 -0.1591  0.0063  0.0385
20145W        W36619  13.747   1.739  12.634 -0.1361 -0.1101  0.1903
20146W        W36620  15.977  10.044  11.175  0.0393 -0.1758  0.1742
20147W        W36621  16.768  15.590  11.443 -0.0188 -0.3424 -0.3925
20148W        W36622  13.818  16.831  15.034  0.1706 -0.0688 -0.5733
20149W        W36623   3.974   5.482  10.603 -0.0765  0.0763 -0.3266
20150W        W36624  10.206   2.931   0.548 -0.1000  0.2735  0.1379
20151W        W36625  15.927  16.785   5.826  0.0468  0.0444 -0.1279
20152W        W36626   1.064  13.427   1.541 -0.3008  0.1188  0.2016
20153W        W36627   6.041   9.334   2.912  0.1514 -0.3267  0.1255
20154W        W36628  13.402   0.218   0.261  0.2087 -0.0112  0.1294
20155W        W36629   6.617  19.092   3.740 -0.0022 -0.1158 -0.0283
20156W        W36630   8.315  16.460   5.080 -0.5619  0.2099 -0.1825
20157W        W36631  13.196  12.314   3.797 -0.0898  0.2704 -0.2313
20158W        W36632  14.576  13.780   2.227  0.0426 -0.0578  0.1080
20159W        W36633  19.080  16.248  12.883  0.0728 -0.0474  0.1495
20160W        W36634  17.278   2.312  11.994  0.0884 -0.0754 -0.2076
20161W        W36635   3.904   9.718  14.547  0.2928  0.1457  0.2504
20162W        W36636  11.509  11.368   6.023  0.1084 -0.1086 -0.2958
20163W        W36637  18.779   2.112  10.173  0.1828 -0.0899 -0.2251
20164W        W36638  14.720  17.394   3.431 -0.1675  0.0880 -0.1071
20165W        W36639  16.995  14.586  10.676 -0.1795  0.1122 -0.1332
20166W        W36640  11.021  16.691   1.843 -0.0397 -0.1060 -0.0505
20167W        W36641  17.774  15.580  14.156  0.2408  0.4067 -0.2104
20168W        W36642   5.241  13.800   4.226 -0.0577 -0.1057  0.3091
20169W        W36643  17.997   0.617   5.153  0.1139  0.2975  0.0742
20170W        W36644  15.055  18.664  10.932  0.0643  0.2423 -0.0174
20171W        W36645   1.994   8.798  10.917 -0.1696  0.2929 -0.0031
20172W        W36646  14.199  15.787  10.781  0.0433 -0.0708 -0.1547
20173W        W36647  17.010  11.489   4.868 -0.0793 -0.0032 -0.0097
20174W        W36648  10.794  18.913   2.947 -0.1116 -0.1074 -0.1202
20175W        W36649   5.550   2.206   3.221  0.1815  0.2035 -0.2643
20176W        W36650   0.404   3.423  10.590 -0.0508  0.2510 -0.0807
20177W        W36651  14.952   3.882  12.572  0.0753  0.0976 -0.1787
20178W        W36652   0.332   0.802  12.201  0.1941  0.0887  0.2447
20179W        W36653  17.321   5.863   4.764 -0.4810 -0.2055  0.0144
20180W        W36654  11.567   9.797   2.325  0.2586  0.1416  0.0891
20181W        W36655   8.833  10.915   4.630  0.2380  0.0899 -0.0664
20182W        W36656   0.876   4.762  13.102 -0.3526  0.2500 -0.0403
20183W        W36657  12.358  15.974  14.241  0.2379  0.2931  0.2690
20184W        W36658  19.105  16.130   2.397  0.0331 -0.4279 -0.1391
20185W        W36659   9.485  11.218  12.217  0.1422  0.3593  0.0876
20186W        W36660  13.031  16.799   2.584  0.0404 -0.3703 -0.0683
20187W        W36661  14.526   0.417   3.908 -0.2267 -0.0144 -0.0230
20188W        W36662   8.709   3.543   4.214 -0.1091  0.1886  0.1921
20189W        W36663  18.951  12.020   1.280  0.0700  0.1125  0.1786
20190W        W36664  11.387  12.329   1.682 -0.2429  0.1169 -0.1682
20191W        W36665   9.183  18.152  11.348  0.0676 -0.0968 -0.2594
20192W        W36666   3.827  12.690  11.326 -0.1470 -0.4034 -0.0314
20193W        W36667  15.939  13.965   2.741  0.1810  0.1728  0.0064
20194W        W36668   4.124   2.739  13.428 -0.0068  0.4354  0.0330
20195W        W36669   7.887  11.061   2.453  0.2158  0.1153  0.0035
20196W        W36670  11.574   8.374  10.472 -0.3128  0.0953  0.1023
20197W        W36671   0.643  11.725   1.564 -0.0250  0.0348 -0.1499
20198W        W36672  14.383   3.625   4.048  0.0226  0.0555  0.0359
20199W        W36673   4.448   2.584   2.308 -0.2569 -0.1473  0.1647
20200W        W36674   8.987  11.384  11.279  0.0929  0.1243 -0.1784
20201W        W36675  16.361   2.881  10.110  0.0228 -0.2578 -0.0035
20202W        W36676  11.806  17.088   0.407  0.1591  0.2253 -0.1033
20203W        W36677  12.919  12.521  12.178 -0.2080 -0.2105 -0.0107
20204W        W36678   7.436   5.094  15.029 -0.1878 -0.0332  0.2059
20205W        W36679  17.480   2.586   4.954  0.2180  0.2336  0.2160
20206W        W36680   0.718  16.480   4.911 -0.3375 -0.1447 -0.1525
20207W        W36681   2.019  10.629   2.108  0.0249 -0.5490 -0.0043
20208W        W36682   6.196   3.589  12.026  0.3489  0.4552  0.0379
20209W        W36683   1.807  17.566  15.116 -0.3268 -0.1810  0.1973
20210W        W36684   6.500  13.065  14.611 -0.0717  0.3981 -0.2652
20211W        W36685  16.094  15.592   2.045 -0.0930  0.0032  0.3112
20212W        W36686   8.721   3.624  13.240  0.3058  0.2221 -0.0124
20213W        W36687  10.328   8.046  11.041  0.0028 -0.0940  0.5668
20214W        W36688   4.480   2.157   1.514 -0.0777 -0.1438  0.2906
20215W        W36689   6.566  13.992  11.031  0.2130 -0.0090  0.1065
20216W        W36690  16.599  12.431   0.507  0.1651  0.2971  0.2792
20217W        W36691   6.923  16.178  14.735 -0.3568 -0.2041  0.0214
20218W        W36692  16.029   6.337   2.971  0.0484  0.0278 -0.3529
20219W        W36693  12.143  17.842  13.864  0.0778 -0.0097 -0.3320
20220W        W36694  15.514   3.243  11.462 -0.1694  0.0029  0.0978
20221W        W36695  10.948  18.259  10.799 -0.0831 -0.0052  0.0101
20222W        W36696   6.077  13.478  13.707  0.0335  0.3002 -0.1556
20223W        W36697  17.443   8.747   2.944 -0.0441  0.4113 -0.0542
20224W        W36698   9.145   2.999  12.837  0.3108 -0.1592 -0.3198
20225W        W36699   1.146   0.692  13.051 -0.1733  0.3057  0.0165
20226W        W36700  14.550  13.909  12.725  0.2179  0.0276  0.0760
20227W        W36701  11.626  11.214   2.398 -0.2183 -0.3005 -0.0533
20228W        W36702   7.637  15.935   3.792  0.4444  0.1233  0.1227
20229W        W36703  19.061  15.238   3.099  0.0202  0.1419  0.0052
20230W        W36704   0.910   3.554  13.716  0.1125  0.2700  0.0680
20231W        W36705  17.033   5.988  14.613  0.2913 -0.3239  0.4174
20232W        W36706  17.484  12.369  11.929 -0.2181  0.1026 -0.1040
20233W        W36707  15.031  14.025   3.181 -0.1192 -0.3755 -0.0806
20234W        W36708  16.625  15.571  10.693 -0.0401 -0.0892  0.3995
20235W        W36709  10.781   3.436   2.696 -0.4450 -0.2478  0.0388
20236W        W36710   4.924   9.042   1.863  0.1317  0.0035  0.4521
20237W        W36711  18.468   0.531  12.041 -0.0595 -0.0052  0.0632
20238W        W36712   0.181  17.137  13.575  0.0226 -0.4015  0.1877
20239W        W36713  10.689  16.677   3.547 -0.4332 -0.1426  0.1544
20240W        W36714   7.885   7.520   2.317 -0.1258 -0.0033  0.0672
20241W        W36715   7.298  14.353   2.980  0.1558  0.0778 -0.0726
20242W        W36716   8.840   1.842  12.551 -0.0146  0.1071  0.2128
20243W        W36717  17.910   8.882   4.547  0.1314 -0.1842  0.0703
20244W        W36718   2.054   9.740  14.251 -0.0443 -0.1635  0.0335
20245W        W36719   0.327  14.099  10.773 -0.0388  0.0987 -0.0421
20246W        W36720  12.976  17.329  13.450  0.0117 -0.1041 -0.0268
20247W        W36721  18.892  17.367  14.294 -0.4335 -0.0229 -0.1550
20248W        W36722  13.886  17.807   3.760 -0.0068 -0.0959  0.5464
20249W        W36723  10.382  11.919   5.154 -0.0399  0.1313 -0.2581
20250W        W36724  10.533   6.130   4.365 -0.1532  0.0949 -0.3029
20251W        W36725   3.779   4.533  12.512 -0.1836  0.2237 -0.3015
20252W        W36726   5.680   4.197  13.733  0.0125  0.0405  0.0243
20253W        W36727  19.117  17.613  14.970  0.1732  0.5070 -0.0362
20254W        W36728  18.935  11.740  13.186 -0.2828 -0.2196  0.3010
20255W        W36729  16.592  12.385  14.663  0.1729  0.0032 -0.0610
20256W        W36730  12.213   6.642  14.529 -0.2875  0.2434 -0.1697
20257W        W36731  17.729  15.926   4.693  0.0205  0.0612 -0.1317
20258W        W36732   8.251   3.741  11.793  0.0550  0.2421  0.0526
20259W        W36733  12.418   2.438   1.875 -0.1197 -0.0398  0.1646
20260W        W36734  13.881  16.644   1.079  0.1107 -0.0354  0.0538
20261W        W36735  17.484  17.510   9.695 -0.3920  0.0259  0.0545
20262W        W36736  15.347  17.276  10.997  0.0599  0.3550 -0.0127
20263W        W36737   1.915   7.470  14.093 -0.0331  0.1366 -0.0606
20264W        W36738  16.477  11.559  11.352  0.2873  0.1944 -0.0295
20265W        W36739   2.124  13.859   1.748 -0.1431 -0.0596 -0.4487
20266W        W36740  15.186  11.465   1.910  0.0387 -0.0910  0.0806
20267W        W36741   3.413   7.148  12.712  0.2502 -0.0845 -0.0193
20268W        W36742   2.065   4.533   1.345  0.4530 -0.2985  0.0561
20269W        W36743  14.665   0.144  14.659 -0.1582  0.2535 -0.1497
20270W        W36744   0.919   9.161   5.156  0.0392 -0.2918  0.2992
20271W        W36745  11.447   2.011   9.833  0.1932  0.0457 -0.3418
20272W        W36746  18.089   7.387  10.931 -0.2240 -0.2894 -0.1127
20273W        W36747  18.545   5.640   0.238  0.2296  0.2998 -0.2012
20274W        W36748   6.156  10.574  10.340  0.0989  0.1418 -0.1915
20275W        W36749  15.351   5.119  12.384 -0.0484  0.0783 -0.2777
20276W        W36750  17.183  13.584   5.432 -0.0990  0.2509  0.2815
20277W        W36751   8.185  13.907   5.214 -0.1323 -0.2682 -0.1699
20278W        W36752  17.909  14.589  12.164 -0.1833 -0.2369  0.0158
20279W        W36753  13.462  10.490   3.697 -0.1483 -0.2593 -0.0826
20280W        W36754  14.368   0.209  13.310  0.1279  0.1062  0.2983
20281W        W36755   8.259  10.449  14.603 -0.1072 -0.2214  0.0100
20282W        W36756   0.498   2.156  14.031 -0.2368  0.1423  0.0279
20283W        W36757   9.771   9.619   5.371 -0.3166 -0.1449 -0.2552
20284W        W36758   3.714   9.855  12.455  0.1771 -0.3162 -0.0172
20285W        W36759   4.619  13.910  11.615  0.0905 -0.5370 -0.0892
20286W        W36760  12.353  15.179   0.551 -0.1031  0.4129  0.0959
20287W        W36761   4.069   2.621   4.452 -0.2273 -0.0876  0.1192
20288W        W36762   0.954  10.159   0.420 -0.3036 -0.1262 -0.0979
20289W        W36763   5.774  15.064   4.437  0.0736  0.1845  0.1553
20290W        W36764  15.611   4.986  11.913  0.1235  0.1030 -0.0216
20291W        W36765   9.943   5.422  10.624 -0.1756 -0.0506  0.3172
20292W        W36766  16.267  10.578   2.490 -0.1825  0.2265 -0.2163
20293W        W36767  19.000   6.728   1.607 -0.0518  0.0084 -0.0696
20294W        W36768   6.582   9.989  12.363 -0.4023  0.0445  0.0220
20295W        W36769  16.979   2.630   3.190 -0.1847  0.1036 -0.0875
20296W        W36770   1.327  12.430   2.101  0.0645 -0.3906  0.1360
20297W        W36771   8.846   1.526   2.199 -0.1128 -0.0629 -0.2126
20298W        W36772   2.318  13.749  15.005 -0.2152  0.0960 -0.0509
20299W        W36773   2.535   7.652  12.627  0.1199  0.1853 -0.1891
20300W        W36774   4.124   3.204  10.440  0.3101  0.2731  0.1955
20301W        W36775  16.439   0.420   4.735 -0.2181  0.1000  0.0931
20302W        W36776  17.925   5.854   2.518 -0.3295  0.1135 -0.1089
20303W        W36777  17.856  15.725   2.804  0.1100 -0.2511 -0.1276
20304W        W36778   3.917   9.484  11.628  0.2773 -0.0762  0.3190
20305W        W36779  12.428  17.351  11.751 -0.0439 -0.2488 -0.1508
20306W        W36780   0.110   4.480  13.489 -0.1049  0.0171  0.2166
20307W        W36781   4.609  17.677  10.322  0.0447  0.0609 -0.3678
20308W        W36782  10.029   9.166   4.213  0.1099 -0.1886 -0.1187
20309W        W36783  14.714   8.810  13.890  0.1871 -0.2117  0.2275
20310W        W36784   2.080  15.089   0.290 -0.0166  0.0484 -0.0576
20311W        W36785   9.149  10.469   1.452 -0.1186  0.1013  0.0772
20312W        W36786   2.826   5.866   2.236  0.0038 -0.0225 -0.0193
20313W        W36787   3.767  13.412  13.979 -0.2630 -0.0626 -0.1594
20314W        W36788   5.648  13.272   1.285 -0.0048  0.1734  0.0944
20315W        W36789  18.106  10.580   1.843  0.0895 -0.0900 -0.3484
20316W        W36790   9.541   0.612  12.161  0.2804  0.0000  0.0956
20317W        W36791   4.040   5.002   4.473 -0.1692 -0.2289  0.1591
20318W        W36792   3.904   7.178  12.600 -0.0373  0.0402  0.0557
20319W        W36793  12.840   9.153  11.075  0.0626 -0.1701  0.1773
20320W        W36794  13.685  16.882   5.791  0.0535 -0.0365 -0.1613
20321W        W36795  15.909   9.571   1.600  0.0408  0.0809  0.1175
20322W        W36796  17.927  12.661   1.114 -0.3217  0.0925  0.1354
20323W        W36797  10.725   0.620  10.587  0.1106  0.1603 -0.2865
20324W        W36798   2.315  16.326   3.693  0.0083  0.0860  0.0892
20325W        W36799  13.799  14.709   0.656  0.1731  0.1340 -0.0304
20326W        W36800   8.947   6.907  12.549 -0.1943  0.0467  0.1294
20327W        W36801   9.368   8.729  14.071 -0.1316  0.1875 -0.0148
20328W        W36802   3.802   4.820   5.626  0.3134  0.0350 -0.0155
20329W        W36803   4.787   6.431  13.200 -0.0896 -0.0603 -0.1522
20330W        W36804  11.875   1.925  11.546 -0.0150 -0.2682 -0.3714
20331W        W36805   4.826  17.572  11.015 -0.0510 -0.2303  0.3842
20332W        W36806   7.662   6.434  11.949 -0.0325  0.0220  0.0704
20333W        W36807  11.267   1.415  11.267 -0.0754  0.0463  0.0654
20334W        W36808   9.496  19.146   2.938  0.3592 -0.0555  0.0535
20335W        W36809   3.008  14.586   3.609  0.0475  0.2136  0.0855
20336W        W36810   5.660  11.625   1.610 -0.1308 -0.0303  0.1677
20337W        W36811  16.168   3.128   0.828 -0.0657 -0.0388  0.3521
20338W        W36812   8.374   1.404   0.029 -0.0518  0.0939  0.1938
20339W        W36813  10.384   8.460  11.382  0.2395  0.0657  0.1600
20340W        W36814  12.639   6.255  12.318  0.1672 -0.1588 -0.2303
20341W        W36815   4.715  13.968   1.378  0.1937 -0.2799 -0.0538
20342W        W36816  11.811  17.405   3.350  0.4986  0.1268 -0.0753
20343W        W36817  14.059   9.820   1.580 -0.0307 -0.0416 -0.1641
20344W        W36818   9.996   2.277   4.917 -0.1207  0.1979 -0.0187
20345W        W36819   5.232  12.450   4.240 -0.0279  0.3927 -0.1601
20346W        W36820  17.426   4.388   2.403 -0.2079 -0.1990  0.2708
20347W        W36821  10.778   7.973   2.615  0.1345 -0.0921  0.2627
20348W        W36822  16.812   3.616   1.724  0.2368 -0.2115  0.1340
20349W        W36823  14.622   3.930  11.381 -0.3599 -0.0134 -0.1542
20350W        W36824   7.418   8.455  11.498 -0.2216 -0.2306 -0.0944
20351W        W36825   7.740   2.613  12.742  0.1894 -0.1715  0.0577
20352W        W36826  16.111  11.468   4.333 -0.0332 -0.1801  0.0918
20353W        W36827  13.583  12.929   9.865 -0.1776 -0.2476  0.1649
20354W        W36828   5.877   3.894  10.012  0.0094 -0.0013 -0.4444
20355W        W36829   9.274   9.612   0.069 -0.1462  0.3033  0.1078
20356W        W36830   3.473  17.336   2.962 -0.0317  0.3240 -0.2645
20357W        W36831  16.512   6.290   0.704 -0.2605 -0.0645 -0.1471
20358W        W36832   6.277   3.207   2.691 -0.0186  0.2525  0.4460
20359W        W36833   1.682   0.737  14.733  0.0138 -0.0231  0.1165
20360W        W36834   2.709   9.894   1.590  0.0787 -0.0421 -0.1412
20361W        W36835  18.034   3.864   2.232 -0.1188  0.1087 -0.1832
20362W        W36836  16.984   2.920   1.296 -0.0688  0.1417 -0.0444
20363W        W36837   0.017  18.350   3.287 -0.3940  0.2306 -0.2266
20364W        W36838   7.329  17.561   2.546  0.0190 -0.2777 -0.2025
20365W        W36839  14.711  13.372  13.379  0.1907  0.1591  0.0653
20366W        W36840  13.323   4.837   4.897 -0.2813  0.2120 -0.0275
20367W        W36841  15.797  10.393   4.791  0.0674  0.0473  0.2354
20368W        W36842  11.765  14.390  12.324  0.1334 -0.0951 -0.1336
20369W        W36843  16.326  15.128  10.153 -0.0290 -0.1235  0.4173
20370W        W36844  17.063   7.749   4.015  0.1045  0.2233  0.1337
20371W        W36845   1.467   9.744   0.007  0.0462 -0.0363 -0.3387
20372W        W36846  10.724   8.250   1.065 -0.0470  0.1599 -0.3224
20373W        W36847  14.321   5.622  12.254  0.1006 -0.2105  0.0668
20374W        W36848  18.596  13.565   0.059 -0.0497  0.2671  0.2090
20375W        W36849  18.589   2.301   2.531 -0.1815  0.2711 -0.0012
20376W        W36850   9.425  18.042   2.683 -0.2171  0.4057  0.0243
20377W        W36851  15.010   2.010   4.613 -0.2643  0.4558 -0.3260
20378W        W36852  12.109   7.023   4.102 -0.0129 -0.1409  0.1227
20379W        W36853   5.385  10.153  10.041 -0.2584  0.1326  0.0429
20380W        W36854  18.278   6.077   1.647 -0.2355 -0.0081 -0.0135
20381W        W36855  17.813   7.339  14.724  0.0805 -0.0840 -0.3272
20382W        W36856   4.359   2.745  14.557 -0.2970  0.4189 -0.1308
20383W        W36857   9.431   7.569   2.717  0.0045 -0.0374 -0.1208
20384W        W36858   7.675   1.943   0.095  0.2918 -0.2632 -0.2177
20385W        W36859   0.001   2.126   0.831  0.0302 -0.1542  0.0105
20386W        W36860   3.522  13.821  12.167  0.2537 -0.0388  0.1301
20387W        W36861  10.093  13.167  13.653  0.1309 -0.3486 -0.1284
20388W        W36862   9.832   8.559   4.221 -0.0402 -0.0240 -0.1590
20389W        W36863  11.016   6.881  13.551 -0.0418 -0.0153 -0.2314
20390W        W36864  14.301  12.373  11.153 -0.0229 -0.0308  0.1407
20391W        W36865   4.757  11.715   3.974 -0.2352 -0.0022  0.0386
20392W        W36866  14.772  16.186  12.091 -0.0596 -0.2654  0.0249
20393W        W36867   5.835   7.018  12.139 -0.0833 -0.0668  0.1012
20394W        W36868   4.546  15.451  11.404 -0.0424  0.1759  0.1795
20395W        W36869   3.604  14.196  12.459 -0.2014  0.1172 -0.4139
20396W        W36870  14.646   7.422   2.600 -0.0260  0.0575  0.0130
20397W        W36871  11.993  14.999  11.908  0.2939  0.0057  0.1267
20398W        W36872   4.867  18.597   5.564  0.0157 -0.1688  0.0145
20399W        W36873   6.881   1.538   1.344  0.2340  0.1922 -0.1109
20400W        W36874   1.007  10.628  14.813 -0.4202 -0.1769  0.1428
20401W        W36875   4.568   9.138   2.727 -0.1914  0.3216 -0.2742
20402W        W36876  12.514   4.887  10.073 -0.1402 -0.2972 -0.1060
20403W        W36877   4.183  18.510   1.935  0.4179 -0.0234  0.0144
20404W        W36878  15.053   4.654   1.979 -0.1201  0.1051  0.1759
20405W        W36879   6.302   4.568  14.199 -0.0625  0.2144 -0.3250
20406W        W36880  14.913  11.377  14.263 -0.0962  0.1347  0.0943
20407W        W36881   5.830  15.895  10.900  0.0929 -0.0383 -0.1592
20408W        W36882  14.323   3.813  14.645  0.1234  0.0467 -0.0994
20409W        W36883   1.607  15.641  13.242  0.0283  0.0062  0.0185
20410W        W36884   8.043   5.085   0.707 -0.2185  0.0072  0.0626
20411W        W36885   6.979   7.374   3.928  0.1288 -0.1862 -0.1424
20412W        W36886   6.867   0.899  11.380  0.0435  0.2202 -0.3043
20413W        W36887   3.292  11.677   3.538 -0.0904  0.2388  0.0024
20414W        W36888   2.627  10.386   3.746  0.1000  0.0631 -0.0165
20415W        W36889   8.581   4.619   3.301 -0.1197  0.1591 -0.0568
20416W        W36890  10.334   8.762   4.257 -0.1790  0.1656 -0.1331
20417W        W36891  15.073   3.937   2.659  0.0151  0.2346  0.2302
20418W        W36892   0.935  17.692   2.528 -0.1687  0.0681  0.0225
20419W        W36893   0.762  12.833   5.555 -0.0964  0.0439  0.0077
20420W        W36894   9.741  12.061   2.698  0.2557 -0.1328  0.0321
20421W        W36895   2.476  12.046   2.871  0.0186 -0.0612 -0.1126
20422W        W36896   6.247  18.319   4.409  0.1477 -0.1542  0.2209
20423W        W36897  15.226   8.351   3.958 -0.2845 -0.1292  0.1072
20424W        W36898  17.626   1.197   4.744 -0.1882  0.2825  0.2683
20425W        W36899  12.336  11.322   1.046  0.2699  0.0222 -0.0099
20426W        W36900  10.152   8.225   1.331  0.2014 -0.0992  0.0559
20427W        W36901  18.177  13.310  12.933 -0.1835 -0.1202 -0.0078
20428W        W36902  18.818   7.722  12.717  0.2174  0.1501  0.0686
20429W        W36903   2.311   2.224   1.771 -0.2162  0.0743  0.4811
20430W        W36904  11.653   6.902  14.062  0.1467 -0.1732  0.3354
20431W        W36905   7.235  15.691  13.876  0.1031  0.2588  0.2213
20432W        W36906  11.429   5.767   0.251 -0.2236 -0.0663  0.1274
20433W        W36907  12.650   5.360  12.719 -0.1479 -0.0335 -0.1370
20434W        W36908  12.818   6.280   1.913  0.0476  0.3366  0.1380
20435W        W36909  16.288   6.710   0.298  0.1649 -0.2096  0.1655
20436W        W36910  18.535  18.086  13.125 -0.2231 -0.0862 -0.0212
20437W        W36911  12.572   6.946   6.092  0.4974  0.0525 -0.1066
20438W        W36912  11.435  10.417  12.588 -0.0504  0.1980 -0.0525
20439W        W36913   3.943  15.046  12.020  0.1410  0.1901  0.0962
20440W        W36914  11.689   3.924  11.796 -0.1940 -0.0205 -0.0803
20441W        W36915  13.111  17.040  14.487  0.0824  0.0213  0.0483
20442W        W36916  13.625   2.497  13.172 -0.0142  0.2871 -0.0503
20443W        W36917   6.079  10.655   4.789 -0.0095 -0.1568 -0.0023
20444W        W36918  12.803  12.939  11.529  0.4028  0.1058  0.0952
20445W        W36919  16.306   8.853  14.445  0.1505  0.1681  0.0864
20446W        W36920  14.823  18.309   3.509 -0.3790  0.1142 -0.2546
20447W        W36921  15.053  10.814   5.761  0.1547 -0.0605  0.1233
20448W        W36922  18.050   6.466  11.125  0.2555 -0.1586  0.0255
20449W        W36923   3.994  15.806   4.417  0.2150  0.1772 -0.0694
20450W        W36924   4.863  16.820   1.638  0.0991 -0.7281 -0.0718
20451W        W36925   0.852   5.975   3.570 -0.2475 -0.2242 -0.3570
20452W        W36926   7.897  18.652  14.718  0.1054  0.2159 -0.1357
20453W        W36927   2.716  13.559  14.019  0.2573  0.2825  0.2429
20454W        W36928   0.271  18.677  11.510 -0.2217 -0.0456  0.1843
20455W        W36929  17.507   8.874  12.502 -0.1796 -0.0344 -0.1782
20456W        W36930   5.936   9.545   4.386 -0.0134 -0.2291  0.1426
20457W        W36931   8.528  17.027  13.110 -0.0106 -0.3184  0.0435
20458W        W36932  10.264   9.291   9.789 -0.0787  0.0863  0.0934
20459W        W36933   9.252  10.694   4.791 -0.0413 -0.4778  0.0580
20460W        W36934  15.639   1.683   0.894  0.0958  0.0165 -0.2520
20461W        W36935  16.163  12.234  14.265  0.3268  0.0189  0.0028
20462W        W36936  11.762  17.419  13.326 -0.3584  0.3021  0.3115
20463W        W36937   7.466   4.509  14.539 -0.0059 -0.0445 -0.0080
20464W        W36938  15.614   5.744   4.478 -0.1107  0.1990 -0.1454
20465W        W36939  12.653  16.041  11.122 -0.2161  0.1086 -0.6195
20466W        W36940  18.574  11.270   0.561 -0.0819 -0.0389 -0.0089
20467W        W36941   6.964   7.627  13.818  0.1998  0.1294  0.1921
20468W        W36942   5.378  13.638  14.767 -0.0288 -0.4929 -0.0139
20469W        W36943  16.097  16.335  10.571  0.1385 -0.2545  0.2787
20470W        W36944   8.687  17.425  12.271  0.0589  0.0893  0.1147
20471W        W36945   0.779  15.545   4.147  0.0633 -0.2353  0.0081
20472W        W36946  13.884   9.990   5.802 -0.1315 -0.2945  0.0948
20473W        W36947   3.144  12.883  13.470 -0.2827  0.3956  0.0046
20474W        W36948  13.184   2.964   2.760 -0.1238 -0.0720 -0.0375
20475W        W36949   0.184  17.242  13.048 -0.3873  0.0160  0.0701
20476W        W36950   3.885   4.916   3.981  0.1712 -0.1667 -0.0813
20477W        W36951   9.216   7.119   3.576 -0.1887 -0.3383 -0.0862
20478W        W36952  16.961   6.661   9.971  0.3490 -0.1659 -0.0695
20479W        W36953  15.612   7.329   1.510  0.0577  0.2413 -0.1893
20480W        W36954   5.254   2.582   5.141 -0.3489 -0.0035  0.0053
20481W        W36955   2.079  16.940  13.974  0.1164 -0.3477 -0.0004
20482W        W36956   6.944  14.975   9.886 -0.1128 -0.2082  0.0783
20483W        W36957  16.773  12.964   0.371  0.1471  0.3779 -0.2084
20484W        W36958   2.178   5.704   3.681 -0.0690  0.0357  0.0329
20485W        W36959   1.341  18.954   0.619  0.0357  0.0920 -0.1288
20486W        W36960  11.149  15.621   1.265  0.1443 -0.0900 -0.2438
20487W        W36961   6.068   2.093  13.616  0.3093 -0.0729  0.3332
20488W        W36962   6.915   4.838   1.890  0.0778  0.0267  0.1424
20489W        W36963   0.852   2.911  10.016  0.3647  0.0541 -0.0443
20490W        W36964   9.692   0.004  10.804  0.2779 -0.0556 -0.3879
20491W        W36965   8.576   6.456  12.028 -0.1953  0.0130 -0.1931
20492W        W36966   5.771  17.955   1.835 -0.0247  0.0600  0.0591
20493W        W36967   1.891  13.778   4.079 -0.1724 -0.0970 -0.0823
20494W        W36968  13.582  12.931  12.438 -0.1406  0.1990 -0.1502
20495W        W36969  14.277  17.397   2.522  0.0865  0.2005  0.0639
20496W        W36970   8.946   3.211  10.696  0.1332  0.0511  0.0478
20497W        W36971   8.703   6.596  10.572 -0.2275 -0.0657  0.3712
20498W        W36972   4.233   2.715   5.327  0.0635  0.0197  0.1979
20499W        W36973  13.937   4.695  10.663  0.1135 -0.1849 -0.0093
20500W        W36974   1.216   3.745   4.099  0.0475 -0.3251 -0.1191
20501W        W36975   4.285   9.641  12.996 -0.2442  0.0318  0.0110
20502W        W36976   0.054  13.704  13.742  0.0507  0.2193 -0.0168
20503W        W36977  19.122   4.808   1.428  0.1831  0.0799 -0.0639
20504W        W36978  15.386   3.399  11.001  0.4574  0.0600 -0.0549
20505W        W36979  16.883   1.312   2.696  0.1300  0.4045  0.2143
20506W        W36980  13.366   9.515  11.841 -0.2086  0.2920  0.1187
20507W        W36981  11.589  14.781   0.787  0.1643  0.0139  0.2324
20508W        W36982   7.937  11.889  12.797 -0.1005 -0.1586  0.2033
20509W        W36983   1.999   9.297  10.612 -0.0656 -0.3151  0.1097
20510W        W36984   7.441  17.501   4.598 -0.2688  0.0325  0.1549
20511W        W36985  14.241   2.061   2.590 -0.2299 -0.0557  0.1028
20512W        W36986  18.480  17.512  12.888  0.2292 -0.2396  0.1804
20513W        W36987  17.215   2.500   1.167 -0.0840 -0.0041  0.1207
20514W        W36988   1.851   0.875   0.072 -0.0900 -0.4677  0.0148
20515W        W36989   9.786   7.881  12.611  0.1220 -0.0417  0.4328
20516W        W36990   2.944   0.012  14.187 -0.1343  0.0502  0.0410
20517W        W36991   4.364   8.207  12.485  0.1391 -0.0841  0.0578
20518W        W36992  18.122   8.426  14.923  0.0320  0.4448  0.0956
20519W        W36993   8.273   2.776   4.617 -0.2005 -0.0088  0.0600
20520W        W36994   4.212   3.010   1.318  0.0549  0.2213 -0.1955
20521W        W36995  12.342  17.332  10.790 -0.1719 -0.0603 -0.0860
20522W        W36996   2.350   4.506   4.602  0.0312  0.0277 -0.1408
20523W        W36997  14.040   1.697   1.767  0.1347 -0.1565 -0.2204
20524W        W36998  16.232  12.744  14.230  0.1495 -0.1400  0.2171
20525W        W36999   2.558  17.695  12.301 -0.0603  0.1581  0.5761
20526W        W37000   1.641  12.886  13.287  0.0944  0.1525 -0.0892
20527W        W37001   4.148   1.722   1.943  0.0047 -0.0519 -0.0293
20528W        W37002   7.565   8.628  12.789 -0.0636 -0.1703 -0.2044
20529W        W37003   4.216   5.435   3.403 -0.2435  0.0500  0.1654
20530W        W37004   9.195  19.002  12.629  0.4729 -0.0779  0.1905
20531W        W37005  13.804  17.149   9.965 -0.1175 -0.2013  0.1250
20532W        W37006  11.110   7.861  11.845 -0.0568  0.1047  0.0912
20533W        W37007  12.417   4.963   0.480 -0.0212  0.2713  0.0737
20534W        W37008  12.966  11.312  13.172  0.0636 -0.0331  0.1044
20535W        W37009  13.656   7.132  11.258 -0.0156 -0.1074  0.0313
20536W        W37010   7.928   1.700   3.628  0.0169 -0.0212 -0.1833
20537W        W37011   0.194  15.071  12.906  0.1134  0.4414  0.1180
20538W        W37012   8.294  15.212  14.830  0.1125  0.3499  0.1966
20539W        W37013  13.389   1.773  14.581  0.0387  0.0670 -0.0456
20540W        W37014  11.150   4.132  14.272 -0.1394  0.0976 -0.0371
20541W        W37015  12.360   7.402  14.521  0.1536 -0.0435 -0.2125
20542W        W37016   7.135  15.916  11.125  0.1922  0.0384 -0.1994
20543W        W37017  17.856  13.613   1.575  0.1196  0.0610 -0.0149
20544W        W37018   0.879   5.999  13.342  0.0321  0.2506  0.1029
20545W        W37019  18.888  17.788  11.164  0.1061 -0.2557  0.0364
20546W        W37020   4.026  15.943   5.000 -0.0711 -0.0655  0.1859
20547W        W37021   9.782   3.869  14.256  0.0771 -0.2343  0.0660
20548W        W37022  13.864   1.884   0.405 -0.1445 -0.0803  0.1120
20549W        W37023   7.870  13.928   3.092  0.0290 -0.0960  0.1014
20550W        W37024  15.183  17.441   4.304  0.1602 -0.0030 -0.2061
20551W        W37025  12.988   6.861   5.355 -0.0242 -0.1850 -0.0607
20552W        W37026   8.244  17.540   2.542  0.3514  0.0191 -0.1284
20553W        W37027  15.108  17.178  11.933 -0.1349  0.1846  0.1764
20554W        W37028  12.995   4.796   4.338  0.2697  0.0139 -0.0658
20555W        W37029   8.714  15.276   2.924  0.4023  0.1551  0.3841
20556W        W37030  10.866  13.597  12.153 -0.2471  0.1054 -0.0595
20557W        W37031   3.444  14.450   5.807 -0.0027 -0.1391 -0.0546
20558W        W37032   3.462   6.183   3.609 -0.0121 -0.2508 -0.1627
20559W        W37033   9.847   7.566   4.197 -0.3192 -0.0892  0.1162
20560W        W37034  16.035  10.206  14.261 -0.2095 -0.3417  0.0226
20561W        W37035   2.301   1.708   1.982 -0.3423 -0.1805 -0.5054
20562W        W37036   2.634   2.625   3.725 -0.2437  0.0159  0.0011
20563W        W37037   3.425   0.411   0.485  0.1028 -0.1112  0.1680
20564W        W37038   3.772   6.447  10.553  0.0984  0.1948 -0.1524
20565W        W37039  12.109  16.455   3.522 -0.0259 -0.4176 -0.1902
20566W        W37040   2.770  14.934   0.949 -0.1597  0.4069 -0.0296
20567W        W37041  15.153  14.127  13.825  0.1030 -0.0653  0.1624
20568W        W37042   0.061  14.169   5.592 -0.2561  0.5188  0.1724
20569W        W37043  15.326   8.398  14.393  0.0706 -0.1001 -0.2874
20570W        W37044  16.990  18.554   3.832 -0.2633  0.0872  0.0172
20571W        W37045  18.050   3.896  11.763  0.0837  0.0053 -0.0451
20572W        W37046  18.979   0.471  12.248  0.1246 -0.1719  0.0071
20573W        W37047   7.294   2.314  14.436  0.0789 -0.0708 -0.0727
20574W        W37048  13.929   4.820   3.829 -0.2364  0.1511 -0.0452
20575W        W37049   2.506   8.259   0.052 -0.2259  0.1194 -0.0224
20576W        W37050   4.966   0.277  11.920 -0.1019 -0.2303  0.1115
20577W        W37051  17.808  16.051  10.736 -0.2695  0.0758 -0.1032
20578W        W37052   3.179  11.736   2.241  0.0150 -0.1555 -0.1404
20579W        W37053   1.869  11.290   0.139  0.2263 -0.1889 -0.0648
20580W        W37054  16.227   8.746   4.801  0.1572 -0.2199 -0.2876
20581W        W37055  15.923  10.252   3.862  0.2609  0.2196 -0.1524
20582W        W37056   5.388   8.423   3.568 -0.1184  0.0688  0.3228
20583W        W37057  15.959   0.522  10.728  0.2083 -0.1068 -0.1751
20584W        W37058  18.346   1.933   1.737  0.1120 -0.0336  0.1418
20585W        W37059   5.095  12.910   4.464 -0.2796 -0.1183 -0.1053
20586W        W37060  10.459  17.220   2.325 -0.2175  0.1119  0.1605
20587W        W37061  11.305   5.230  11.855 -0.2452 -0.1773  0.1551
20588W        W37062   6.070  14.306   1.793 -0.0363  0.2725  0.0990
20589W        W37063   5.357  12.665   0.146  0.1611 -0.3265 -0.3603
20590W        W37064  10.099   8.457   0.066 -0.0751  0.0760 -0.0451
20591W        W37065  10.403  12.346   0.800  0.0643  0.1576  0.2395
20592W        W37066   6.762  14.186  12.642  0.1473  0.0856  0.0248
20593W        W37067   8.559   4.757   0.739  0.2684 -0.0775  0.1249
20594W        W37068   6.614   3.253  14.819  0.0239  0.0434  0.0911
20595W        W37069  16.790   7.138  15.112  0.1161 -0.2556 -0.0438
20596W        W37070   6.139   4.899   3.426 -0.0818  0.1866 -0.1107
20597W        W37071   0.272  12.720   1.197  0.2658  0.1341  0.0564
20598W        W37072   9.543  11.616  10.909 -0.1578  0.2332  0.0065
20599W        W37073  10.784   7.327  10.993 -0.0550 -0.0176  0.1359
20600W        W37074  14.239  16.782   2.679 -0.1962  0.3439  0.1482
20601W        W37075  10.226   0.024   0.978 -0.4819  0.1198  0.2722
20602W        W37076   2.010  15.444   9.760  0.0038  0.4075  0.2820
20603W        W37077  19.097   6.250  11.612  0.3375  0.0932  0.1697
20604W        W37078  11.656  12.221  11.726 -0.0839 -0.1628 -0.1273
20605W        W37079  16.666  17.009   0.151  0.1466 -0.1044 -0.5442
20606W        W37080  18.176   7.039   4.442  0.2307  0.1317  0.2260
20607W        W37081  15.489  16.883  11.630 -0.0123  0.0490  0.1160
20608W        W37082  15.201   4.181   0.757 -0.1321 -0.0485  0.0712
20609W        W37083   6.359   8.133  13.181 -0.1555 -0.1568  0.1175
20610W        W37084   2.513   5.327  10.787  0.1870 -0.0479 -0.1204
20611W        W37085   2.984  16.999  14.163  0.2142 -0.1255  0.3771
20612W        W37086  11.695  13.165   2.055  0.1949  0.0872  0.1718
20613W        W37087  12.461  12.224   5.455  0.2682 -0.0646 -0.3786
20614W        W37088   6.559  14.116   1.735  0.2907 -0.3305  0.1004
20615W        W37089   9.806   5.538  12.719  0.0243  0.0138  0.0820
20616W        W37090   0.993   9.140   0.249 -0.1090 -0.0834 -0.1446
20617W        W37091  12.198  11.801  11.325 -0.2600 -0.2607  0.0409
20618W        W37092   6.807   2.061  14.344  0.2245  0.3259 -0.2299
20619W        W37093  16.556  13.304  10.680  0.3051  0.1372  0.1067
20620W        W37094  16.710  17.406  13.810 -0.1223 -0.1029  0.0182
20621W        W37095   9.120   2.832   1.598 -0.0667  0.3667  0.4471
20622W        W37096  12.997   8.814  12.093  0.0343  0.2627 -0.0763
20623W        W37097  15.553   2.164  12.042  0.0144  0.0399  0.2564
20624W        W37098  19.064  10.427   0.347 -0.4515 -0.1740  0.2048
20625W        W37099  12.328   4.365   3.094 -0.0469  0.0470 -0.0586
20626W        W37100  15.590  10.612  12.456 -0.0286 -0.2328 -0.0092
20627W        W37101   7.676   4.758   3.405  0.0388  0.0379 -0.1875
20628W        W37102   7.347  10.188   4.913 -0.1686  0.0112 -0.0328
20629W        W37103   7.277   1.587   2.413  0.0313 -0.3002  0.1437
20630W        W37104   0.344  12.096  14.475  0.3130 -0.0319  0.0339
20631W        W37105   7.973  12.372   2.839 -0.2390  0.0195 -0.0367
20632W        W37106  12.204   1.772  14.900 -0.2450  0.2346 -0.1101
20633W        W37107  13.489  13.490   4.101 -0.0546 -0.2720  0.1739
20634W        W37108  14.870  16.733  10.639  0.0542  0.1333 -0.4075
20635W        W37109   2.249  18.089  14.695  0.2353 -0.0597 -0.1724
20636W        W37110   9.701   8.769   2.913  0.0776 -0.0336  0.0343
20637W        W37111   5.926  16.183  13.363 -0.0049 -0.0521  0.1523
20638W        W37112   4.539   0.060  14.618 -0.1429 -0.2927  0.1589
20639W        W37113  15.697  15.132   1.205 -0.0523  0.1218  0.3413
20640W        W37114   0.148  12.621  13.364 -0.3026 -0.2301  0.0353
20641W        W37115  16.875   4.737   4.023  0.0016  0.3303 -0.2324
20642W        W37116  18.912  12.378   3.494  0.2785 -0.2034  0.0111
20643W        W37117   4.954  18.852  13.765 -0.2688 -0.1177  0.2486
20644W        W37118  10.644  15.421  11.745  0.0819 -0.2872  0.0360
20645W        W37119  11.364   0.860  12.491 -0.0108 -0.2060 -0.0495
20646W        W37120   0.810  11.519  13.587 -0.0174  0.3183  0.0443
20647W        W37121   8.137   7.527   5.073  0.0075  0.0209 -0.2250
20648W        W37122  14.247  11.240  11.956 -0.1974 -0.2120  0.1058
20649W        W37123  15.913   1.199  11.909  0.0592 -0.2965  0.0358
20650W        W37124   4.214  17.408   1.121  0.2011 -0.0197  0.0913
20651W        W37125  16.423  16.400   2.171  0.0789  0.1816  0.3215
20652W        W37126  11.169   3.441  10.462 -0.1724 -0.1029  0.2457
20653W        W37127   0.454   9.308   2.968  0.0880 -0.2161 -0.0772
20654W        W37128  12.695  12.433  11.692  0.1054 -0.2176 -0.4356
20655W        W37129  14.049   3.014   2.784  0.3332 -0.0088  0.4199
20656W        W37130  13.821   6.401   9.742 -0.0897 -0.2807  0.0100
20657W        W37131   1.493   9.396  12.872  0.2602  0.1339  0.2438
20658W        W37132  11.865   2.617  14.030 -0.0820  0.2281  0.1018
20659W        W37133  14.416  11.591  12.521  0.0716  0.3072  0.0776
20660W        W37134  12.890  16.780  12.996  0.0815  0.0617 -0.1199
20661W        W37135   4.476  15.722   5.203 -0.0834 -0.2432 -0.4632
20662W        W37136  16.982  16.756   3.102 -0.0091  0.0431 -0.1515
20663W        W37137   1.597  17.082  12.006 -0.0559  0.1340  0.0009
20664W        W37138   9.073   9.277   3.883  0.1352 -0.2845  0.1411
20665W        W37139  14.114  18.336   0.170 -0.0539  0.2723 -0.2963
20666W        W37140   7.378   7.842  12.032  0.1564  0.0727 -0.1515
20667W        W37141   7.173   4.452   4.122  0.0877 -0.0862  0.1304
20668W        W37142  10.316   2.058  13.250 -0.0542 -0.0980  0.0606
20669W        W37143   9.466   0.400  14.197 -0.1171 -0.0706  0.1226
20670W        W37144   5.389  14.359  12.114  0.3083 -0.0023 -0.0756
20671W        W37145  15.271   5.847   1.481  0.0068 -0.1272  0.0691
20672W        W37146   7.408  14.316   1.328 -0.0403  0.1139  0.1051
20673W        W37147  10.217   0.983   3.054  0.1682  0.0130 -0.0494
20674W        W37148   0.337   7.911   2.033  0.2062 -0.0153 -0.0835
20675W        W37149  11.473   6.180   5.765 -0.1625 -0.2723 -0.1721
20676W        W37150  10.263  15.430   1.883  0.1337  0.0189 -0.0556
20677W        W37151  10.486   4.033  11.235  0.0058  0.0191 -0.1524
20678W        W37152   5.606   2.060   0.018  0.2030 -0.4420 -0.0485
20679W        W37153   0.673   2.833   3.117  0.2884 -0.2329 -0.1875
20680W        W37154   9.492   2.249   3.417 -0.0952 -0.1733 -0.1600
20681W        W37155   8.995  16.647   1.591  0.1720  0.0387 -0.3261
20682W        W37156  16.894  11.666  13.907  0.0375  0.2757 -0.0105
20683W        W37157   9.480  12.808  14.206 -0.1439 -0.1130  0.2163
20684W        W37158   8.216   7.097  12.116  0.0232 -0.0669  0.2146
20685W        W37159   2.072   8.022   0.268 -0.4274 -0.1761  0.3575
20686W        W37160  10.985   4.047   1.869 -0.1981 -0.2156  0.0762
20687W        W37161  16.758  13.953   2.668 -0.0215 -0.2176  0.1021
20688W        W37162  17.659  12.023   4.440 -0.0811  0.2086 -0.0381
20689W        W37163  17.821  10.909  11.435  0.0792  0.2946  0.0558
20690W        W37164  11.452   1.324   0.795 -0.2503  0.3021  0.0834
20691W        W37165   1.796   2.495  14.549 -0.2214  0.2527  0.2122
20692W        W37166   4.796  13.265   1.807  0.1024 -0.0313  0.1183
20693W        W37167   0.071   1.268   5.006  0.1997  0.2307 -0.0028
20694W        W37168   1.091   7.037   0.788 -0.0738  0.1880  0.2333
20695W        W37169   8.187   4.790  11.031 -0.0404 -0.1144 -0.1582
20696W        W37170   5.862  10.061   4.499 -0.2314 -0.2059  0.1879
20697W        W37171   7.304   5.558  11.972 -0.1694 -0.1681 -0.2332
20698W        W37172   6.838  11.870   2.313  0.0431  0.0366 -0.2835
20699W        W37173  17.253   7.911  11.177  0.0735 -0.0010  0.2966
20700W        W37174   2.893   8.549   2.164 -0.0552  0.1612 -0.0252
20701W        W37175  12.123  14.909  11.356 -0.1100 -0.0798 -0.2103
20702W        W37176  19.146  16.410   1.591 -0.2093 -0.0678  0.1422
20703W        W37177   3.375   1.542   3.702  0.2131 -0.2701  0.2868
20704W        W37178  15.949  16.319   4.249 -0.0536  0.1378  0.0786
20705W        W37179  11.845   2.760   1.200 -0.1835 -0.1776 -0.2846
20706W        W37180  11.445  11.971  14.299 -0.1147 -0.2107  0.2890
20707W        W37181   7.864  17.150   0.257 -0.1080  0.0356 -0.2456
20708W        W37182  17.236  13.126  12.891 -0.1099  0.3464  0.0457
20709W        W37183  12.174   2.712   3.991 -0.0251 -0.1228  0.1424
20710W        W37184   8.632   6.545   4.551 -0.1031  0.1637 -0.0524
20711W        W37185   7.832   4.447   0.513  0.1814 -0.2848 -0.1401
20712W        W37186  14.781   4.371   0.952 -0.1258 -0.2590  0.1768
20713W        W37187   0.661  11.352  11.762  0.2643 -0.1949 -0.0398
20714W        W37188  10.609  12.720  14.020  0.2898  0.0789  0.0027
20715W        W37189  10.436   2.492   0.013  0.1297 -0.1644  0.0028
20716W        W37190   0.669  13.770   2.362  0.3181 -0.0307 -0.5511
20717W        W37191  10.808  18.769  14.857 -0.2879  0.1880 -0.4189
20718W        W37192  14.172   7.347  12.927  0.1311 -0.3760  0.3375
20719W        W37193  17.739   9.185  14.501 -0.2565  0.0691 -0.2013
20720W        W37194   5.208  13.687   4.797 -0.2376 -0.0983  0.0604
20721W        W37195  16.166   0.109   0.155  0.2182  0.0095  0.1214
20722W        W37196   4.601  19.005   0.300 -0.4701 -0.2116 -0.1362
20723W        W37197   4.459  17.981  12.580  0.3952  0.0207 -0.4759
20724W        W37198   2.378  18.538   0.369 -0.2768 -0.1747 -0.0554
20725W        W37199   3.358  12.861  10.656  0.0416 -0.1069  0.2334
20726W        W37200   1.379   0.728   5.930  0.0146  0.0438 -0.1686
20727W        W37201  12.143  17.262   4.098  0.1066  0.2388  0.1686
20728W        W37202   6.666   3.140   0.241  0.1836  0.0837  0.3302
20729W        W37203   9.910   6.265   1.399 -0.0508 -0.2236 -0.0555
20730W        W37204  17.154   9.795  13.769 -0.2113  0.0533 -0.3031
20731W        W37205   7.940   8.054   2.226 -0.0994 -0.2071 -0.0516
20732W        W37206   2.774   4.188   2.450  0.0039 -0.0818 -0.2674
20733W        W37207  11.381   5.280  11.322 -0.2510 -0.1063  0.0241
20734W        W37208  11.488   4.448   3.642  0.1974 -0.0119 -0.2254
20735W        W37209  10.863   6.650   2.247 -0.0336 -0.0563  0.2203
20736W        W37210   1.067   4.144   5.335 -0.2724  0.2714  0.2964
20737W        W37211  13.460  13.320  12.100  0.2047 -0.1571 -0.0588
20738W        W37212   0.345   8.370   2.967 -0.1458 -0.2147 -0.0122
20739W        W37213   3.044  11.944   3.880 -0.1545  0.1278  0.3434
20740W        W37214   2.147   9.984   1.694 -0.1433 -0.0743 -0.0317
20741W        W37215   0.167   6.427  14.323 -0.0545 -0.1569  0.0329
20742W        W37216  17.758   7.463  12.022 -0.0786  0.0940 -0.0622
20743W        W37217  12.931   0.255  11.184 -0.1464  0.2068  0.0942
20744W        W37218   4.170  19.144   3.894 -0.0064 -0.0227 -0.0680
20745W        W37219  14.349  15.035   4.497 -0.0947 -0.4293 -0.0019
20746W        W37220   6.403  13.038  12.471 -0.2813  0.1161  0.0482
20747W        W37221  14.682   7.238   1.056  0.0647  0.3298 -0.0625
20748W        W37222  18.911   7.897   0.037 -0.0576  0.3038  0.0174
20749W        W37223   1.847   9.507  13.749  0.0495  0.0613  0.0691
20750W        W37224   5.727  14.508   2.793 -0.2044  0.1545  0.0251
20751W        W37225   3.798  12.490   0.462 -0.0907  0.1451  0.0053
20752W        W37226  11.467  17.258   1.177  0.1201  0.0652  0.0452
20753W        W37227  18.262   5.604   2.767  0.2291  0.2008  0.0412
20754W        W37228  15.765  18.140  10.873  0.2433  0.1467 -0.1011
20755W        W37229   0.390   1.618  13.050 -0.2891 -0.2503 -0.1625
20756W        W37230  17.735  15.069   4.711 -0.0341  0.0879 -0.1978
20757W        W37231   1.459  17.434   2.431  0.3294 -0.0143 -0.1822
20758W        W37232   0.717  15.970   2.177  0.2342 -0.1831  0.1565
20759W        W37233   4.016   5.279  11.997  0.3257  0.1029 -0.1585
20760W        W37234   2.955   2.234  13.825  0.1019  0.2890  0.0303
20761W        W37235   4.095   8.861  13.289  0.2658 -0.0179  0.0759
20762W        W37236  12.236   3.289   2.548  0.2431 -0.2601  0.0423
20763W        W37237   3.938   8.023  12.557  0.1171 -0.0303 -0.1178
20764W        W37238   7.627   8.512  15.010  0.0248  0.0150 -0.0516
20765W        W37239   7.266  10.874  11.696  0.1276 -0.0529  0.3211
20766W        W37240   6.092  10.707   1.857 -0.0004  0.0867  0.1407
20767W        W37241   9.984  14.407  11.719 -0.0496 -0.1662  0.1943
20768W        W37242  14.744   5.085  10.630 -0.0850 -0.0205  0.1994
20769W        W37243   1.577  18.443  14.893 -0.0509 -0.1533  0.0810
20770W        W37244   7.883  12.332  15.006 -0.0460 -0.0240 -0.0327
20771W        W37245  11.948   6.702   2.688  0.0912 -0.0707  0.2777
20772W        W37246  16.003  16.054  13.669 -0.1860 -0.4061 -0.1421
20773W        W37247  11.239  17.876  11.136 -0.1968  0.0758  0.0884
20774W        W37248  11.566   3.945  11.181  0.0299 -0.0362  0.0471
20775W        W37249  12.951   7.720  11.214  0.4232 -0.2017 -0.1541
20776W        W37250   1.314   5.854   4.376  0.0402  0.0842 -0.1249
20777W        W37251  15.681  14.988   3.079 -0.0804  0.1126 -0.0874
20778W        W37252   4.099  18.388  12.641  0.1531  0.0239  0.2925
20779W        W37253  13.184   4.785  10.955 -0.0068 -0.1475  0.1547
20780W        W37254  18.162  18.222  14.066 -0.0777 -0.0336 -0.2119
20781W        W37255  10.434  13.562   4.718  0.0754  0.0469 -0.2080
20782W        W37256  14.378  15.058  14.284  0.1262 -0.2350  0.1795
20783W        W37257  12.530   7.217   2.890 -0.1935  0.2265 -0.0453
20784W        W37258  13.295  13.079  11.624  0.1918 -0.0065  0.1048
20785W        W37259   3.392   9.588  13.514  0.3320  0.2836 -0.2370
20786W        W37260   5.234   8.216  10.858  0.1449  0.1021  0.0647
20787W        W37261  13.221  14.847   3.031  0.1858 -0.0557  0.0681
20788W        W37262  18.960   3.759   4.212  0.1459  0.0541  0.0560
20789W        W37263   7.481  12.821   2.727 -0.1248 -0.0003 -0.3509
20790W        W37264  15.859  11.860  15.148 -0.0109  0.0029 -0.2905
20791W        W37265   6.078   5.202   4.444  0.1811  0.2463  0.3413
20792W        W37266  18.450  17.865   1.222  0.2079  0.1444  0.2118
20793W        W37267  17.769   2.625  13.944 -0.1662  0.3111  0.1799
20794W        W37268   3.408   7.556   2.089  0.0287 -0.3480 -0.0554
20795W        W37269   1.040  15.471   1.296  0.1046  0.0188  0.1082
20796W        W37270   8.934   2.620   2.793 -0.4166  0.0064  0.1386
20797W        W37271   7.374   0.653   2.833  0.2775 -0.0333 -0.1007
20798W        W37272   9.503   9.542  10.945 -0.0686  0.2248  0.0175
20799W        W37273   2.446   5.162  11.312 -0.0853 -0.1439  0.4429
20800W        W37274   8.740  17.073  13.602 -0.0420 -0.1123 -0.3984
20801W        W37275  14.989  10.065   5.048  0.2279 -0.2352  0.1157
20802W        W37276   3.518  19.028   2.686  0.2340  0.0278 -0.1343
20803W        W37277   5.333   0.709   2.073 -0.4401 -0.2762  0.0505
20804W        W37278  12.393  13.908  14.185 -0.1956 -0.2539  0.0616
20805W        W37279  12.423  11.201   3.483  0.0158 -0.1880 -0.0850
20806W        W37280   1.021  14.497  13.631 -0.1567 -0.1363 -0.3612
20807W        W37281  16.841   4.998  13.506 -0.2427 -0.0241 -0.4043
20808W        W37282  16.202  17.561   0.708 -0.1348  0.0967 -0.1811
20809W        W37283   3.519  14.945  11.662 -0.2804 -0.1253  0.1109
20810W        W37284  17.228   8.869  11.978 -0.0006 -0.1930 -0.0413
20811W        W37285   3.701  18.227   4.763 -0.1699  0.1509  0.3559
20812W        W37286  19.055  16.860  12.853 -0.1152  0.2517  0.1486
20813W        W37287   7.199   2.937  11.388  0.0270  0.2853 -0.3481
20814W        W37288  15.389  18.041   1.710 -0.1000 -0.2281  0.1325
20815W        W37289   6.112   9.874   1.283 -0.0738 -0.0200 -0.3339
20816W        W37290   3.018   9.950  11.578 -0.0060  0.0392  0.2506
20817W        W37291   7.042   0.428  13.563 -0.0477  0.1125 -0.0443
20818W        W37292  11.248  11.566   4.958  0.0743 -0.4238  0.1379
20819W        W37293   7.696   6.077   4.712  0.2578 -0.1328 -0.6000
20820W        W37294  17.956   1.940   0.805 -0.1146  0.4191  0.0921
20821W        W37295   1.252  14.412   4.821 -0.2100  0.0626  0.1650
20822W        W37296   6.010   2.247  11.543 -0.0847 -0.3420  0.0234
20823W        W37297   6.254  16.145  13.793  0.2935 -0.1695 -0.0591
20824W        W37298   1.509   9.584  11.096 -0.2627 -0.0727  0.4453
20825W        W37299   9.978  15.384  13.145  0.2379 -0.1635 -0.1408
20826W        W37300   2.850   9.316  13.684  0.1479 -0.2187  0.1977
20827W        W37301   3.636  12.559   0.952 -0.2050 -0.1053 -0.0748
20828W        W37302   1.186  16.550  10.831  0.1023 -0.0067 -0.3033
20829W        W37303   4.461  15.752  12.027  0.1216 -0.0803 -0.1224
20830W        W37304  13.504  18.478   0.902 -0.1535  0.2800  0.1585
20831W        W37305   4.298   7.631  12.587  0.0163  0.1144  0.1543
20832W        W37306   3.903   0.995  13.084  0.1849  0.0203  0.0116
20833W        W37307  10.878  11.444   1.365  0.0520  0.3702  0.2056
20834W        W37308   4.916   8.384  13.860  0.0029  0.0643  0.0254
20835W        W37309   4.369  16.842   1.864 -0.2166 -0.1047 -0.0377
20836W        W37310   7.275   2.605  14.978 -0.5052  0.1246  0.0857
20837W        W37311  17.943   4.444  11.680 -0.2342 -0.0991  0.4352
20838W        W37312  18.240   6.731  12.061  0.1047  0.1924 -0.1771
20839W        W37313   8.062   7.382  13.026  0.1337 -0.0998 -0.0658
20840W        W37314  16.546   9.364   1.930  0.2121  0.1757 -0.2062
20841W        W37315   6.882   7.621   3.438 -0.3408  0.2313  0.0789
20842W        W37316  10.569   6.061   3.128  0.1955 -0.1602  0.2751
20843W        W37317   9.082  14.523  14.141 -0.0645 -0.0156 -0.0656
20844W        W37318  18.851   4.879   0.950 -0.2087 -0.1918  0.0719
20845W        W37319   6.459   0.373  12.928  0.1362  0.0782 -0.0665
20846W        W37320  15.981  11.729  14.203 -0.0948  0.0063  0.1310
20847W        W37321  10.323  15.781  14.893 -0.0445  0.1945  0.3589
20848W        W37322   7.769  11.183  13.744 -0.0472 -0.1602 -0.3293
20849W        W37323  18.320  12.784  13.609 -0.0335  0.0932 -0.0273
20850W        W37324   3.786   2.645   1.090  0.1043  0.4176 -0.1277
20851W        W37325   7.636  16.874  15.094  0.1733  0.2138  0.0778
20852W        W37326   1.436  16.854   2.561  0.0741 -0.2605 -0.1235
20853W        W37327   4.509   9.274   1.694  0.0310 -0.4346 -0.1333
20854W        W37328   8.617   5.874   2.538 -0.0585 -0.2716 -0.0165
20855W        W37329  18.176  17.971   9.806  0.2723  0.2014 -0.2832
20856W        W37330   2.541  11.453   0.927 -0.0819  0.1047  0.0661
20857W        W37331  16.676   2.540  11.712 -0.1501 -0.2234  0.2105
20858W        W37332  10.582  18.530  13.401 -0.1090 -0.2562  0.0529
20859W        W37333   7.940  12.010   0.681  0.1525  0.0738  0.3983
20860W        W37334   3.315   1.911   0.279 -0.1545 -0.1220 -0.1391
20861W        W37335  10.643   9.991   9.728  0.0929  0.0183 -0.0921
20862W        W37336   0.122  18.609   3.759 -0.1681  0.4093 -0.1258
20863W        W37337   5.265   7.318   1.786 -0.2591  0.1245 -0.1271
20864W        W37338  17.059   7.728  13.466  0.0616 -0.2631  0.0759
20865W        W37339   7.582   1.338   3.687  0.0395 -0.2230 -0.1082
20866W        W37340  15.741   0.825   4.584  0.1635 -0.4176  0.0684
20867W        W37341   1.484  15.737  12.434 -0.0163 -0.0222 -0.3137
20868W        W37342  15.029  10.310  14.141 -0.2178  0.0311  0.3136
20869W        W37343   5.138   9.998  11.320 -0.0313  0.0994  0.0388
20870W        W37344   5.820   9.472  11.721 -0.0657 -0.1023 -0.2984
20871W        W37345  13.992  17.932   1.583 -0.2430 -0.2045  0.0373
20872W        W37346   9.908  12.521  12.752  0.4831 -0.2506 -0.0746
20873W        W37347   7.879   0.712   1.073  0.3104  0.1864  0.0583
20874W        W37348   9.818  17.417  12.919 -0.0738  0.1392  0.0554
20875W        W37349   6.017  18.167  10.891  0.1882 -0.0769  0.3014
20876W        W37350  13.930  18.624   0.629  0.1631 -0.2793 -0.1336
20877W        W37351  13.378   2.447  14.843  0.3085 -0.0616 -0.3805
20878W        W37352   9.156   5.140  11.186  0.0375 -0.0218 -0.2870
20879W        W37353   8.852   0.988   2.396  0.2083 -0.0133 -0.0053
20880W        W37354  10.234   2.654  10.513 -0.1651  0.0086 -0.1599
20881W        W37355   1.831  10.379  12.727  0.3760  0.2412  0.0721
20882W        W37356   8.889  10.558   5.083  0.2222  0.1495  0.0620
20883W        W37357   7.416   1.630  14.962 -0.0443 -0.0433 -0.1006
20884W        W37358   5.601  13.953   3.486 -0.0775 -0.1904 -0.2038
20885W        W37359  15.052   9.965  11.068  0.1418 -0.1987 -0.0947
20886W        W37360  13.520  15.717  12.590  0.1683 -0.0302 -0.4466
20887W        W37361  17.895  14.707   1.126 -0.0429  0.1544 -0.2158
20888W        W37362   6.334  13.359  11.535  0.1452  0.1518  0.2520
20889W        W37363   6.098  12.729  12.863  0.1177  0.1519 -0.1934
20890W        W37364  12.100   9.884  12.956  0.3080 -0.0636  0.1701
20891W        W37365   3.783   5.865  10.426 -0.0080 -0.0254 -0.0374
20892W        W37366   0.089  15.658   2.890  0.0961 -0.0295  0.0161
20893W        W37367  10.914   4.482  11.218 -0.1159  0.0291 -0.2049
20894W        W37368   9.600   1.691  11.483 -0.0111 -0.4313 -0.1428
20895W        W37369  15.629  16.309  10.444 -0.1233 -0.1001  0.0931
20896W        W37370  15.965   7.077   0.622 -0.0607 -0.3969 -0.1441
20897W        W37371   6.670   3.219   3.075 -0.0027  0.1452 -0.3097
20898W        W37372   0.750  10.014   1.467  0.3482  0.1290 -0.3489
20899W        W37373  15.702   5.871   3.111  0.2788 -0.0923  0.0163
20900W        W37374  16.733   3.173  15.005  0.0540 -0.2525  0.0977
20901W        W37375   6.854  12.135  10.155 -0.2739  0.0070  0.0050
20902W        W37376  16.170  14.220  13.152  0.2385 -0.1298  0.1062
20903W        W37377   5.034   0.424   5.337  0.1233  0.4891  0.1218
20904W        W37378  18.962   7.035  13.599  0.1155  0.0291  0.0336
20905W        W37379  17.571   9.150   1.677  0.1333 -0.1263  0.2445
20906W        W37380   1.690  10.068  11.003  0.2078 -0.0061  0.0143
20907W        W37381   7.396  12.075  14.594 -0.1274  0.0153 -0.0305
20908W        W37382   2.888   6.622   1.392  0.0079 -0.0884  0.0137
20909W        W37383  12.873   6.680   0.980 -0.1254 -0.1993  0.0155
20910W        W37384   2.112  16.719   3.935 -0.0290 -0.0742 -0.0958
20911W        W37385  12.329   2.469  13.322  0.0875  0.3730  0.3091
20912W        W37386  18.860   7.513  13.700  0.0064  0.2321 -0.0065
20913W        W37387  18.670   0.377   0.402 -0.1258  0.0057 -0.3971
20914W        W37388   4.509   4.304  14.060  0.2733  0.1207 -0.2010
20915W        W37389   8.858  17.263  14.213  0.0424  0.2804  0.3250
20916W        W37390  17.964   1.989  15.076  0.0236  0.0652 -0.1613
20917W        W37391   0.779  10.992  12.473  0.0365 -0.3570  0.3844
20918W        W37392   9.665  18.855   2.189 -0.0811 -0.3140 -0.3075
20919W        W37393  10.937  15.168   4.664 -0.0335  0.0583 -0.6225
20920W        W37394   4.751  12.550  10.777  0.1114  0.0629 -0.1665
20921W        W37395   3.236  18.588   2.437  0.0251  0.0478  0.0038
20922W        W37396  12.055  19.048  14.453 -0.3491  0.1055 -0.0835
20923W        W37397   1.458  14.501   1.568  0.0373 -0.2432 -0.2073
20924W        W37398  16.794  17.253  11.236  0.0815 -0.3389  0.3781
20925W        W37399  11.613  18.031  14.037  0.1307  0.0594  0.0485
20926W        W37400  18.332   5.522  12.850 -0.0495 -0.3105 -0.1096
20927W        W37401  15.648   6.710  11.844 -0.2503  0.1700  0.0724
20928W        W37402   9.263  15.726  11.571  0.0100 -0.1318  0.1251
20929W        W37403  15.707   7.992  13.143  0.0563  0.1899  0.0673
20930W        W37404  14.109  12.693   3.817 -0.1299 -0.2223  0.1422
20931W        W37405  14.799   6.998   1.704 -0.0391 -0.2720 -0.4225
20932W        W37406   0.555  18.010  14.612 -0.0552 -0.1044  0.1709
20933W        W37407   5.213   7.987  10.396  0.0898 -0.0326  0.0876
20934W        W37408  15.784  10.642   2.680 -0.0612 -0.2826 -0.1222
20935W        W37409  12.840  14.552   2.087  0.0707  0.1125 -0.0266
20936W        W37410   2.981   3.654   4.489 -0.4879 -0.2140  0.1010
20937W        W37411   5.765   2.818   0.412 -0.1983  0.3928  0.2417
20938W        W37412   3.247  17.600   3.380 -0.0937  0.0072  0.0994
20939W        W37413   7.078   1.164  13.316  0.0721 -0.0756  0.3954
20940W        W37414   7.326   4.274  15.096 -0.1585 -0.0047 -0.1651
20941W        W37415   1.406  14.778  10.782  0.1352 -0.1584  0.2561
20942W        W37416   5.214  15.482  14.618 -0.1003 -0.2803  0.1705
20943W        W37417  12.267  12.705  11.519  0.0778 -0.1734  0.1956
20944W        W37418   8.204   1.331  14.738 -0.1219  0.0011 -0.0565
20945W        W37419   3.873  12.065  14.124  0.2011  0.0192 -0.4081
20946W        W37420  11.840   8.730  12.113  0.5463  0.2529  0.0591
20947W        W37421   8.454  11.431   2.884  0.0122 -0.2129  0.1966
20948W        W37422  15.934  12.002  14.675  0.1838 -0.2523  0.0618
20949W        W37423  17.763   8.536   0.111 -0.0510  0.0735  0.0562
20950W        W37424   4.295  10.564   3.187 -0.0086  0.1670 -0.0205
20951W        W37425   9.137   2.174   4.333 -0.0857  0.0981 -0.0747
20952W        W37426  15.796   8.143  12.636  0.0092  0.0143  0.1136
20953W        W37427   6.071  14.481  10.857 -0.1429 -0.0927 -0.5587
20954W        W37428   6.448  19.141   1.544  0.2027 -0.4691  0.1092
20955W        W37429   8.277  13.026  11.930 -0.0118  0.1020  0.2046
20956W        W37430   1.881   3.430  13.398 -0.0062  0.0546  0.2627
20957W        W37431   1.052   5.004  14.958 -0.2401 -0.2332  0.1519
20958W        W37432   3.401   2.741  12.612  0.0597 -0.1808 -0.1834
20959W        W37433  17.016  13.079  14.386  0.1575 -0.1971  0.0288
20960W        W37434  18.132  18.340   0.349 -0.2555  0.1367 -0.4005
20961W        W37435  15.371  12.234   1.300  0.1589 -0.1812  0.0556
20962W        W37436   6.227  18.105   2.825 -0.0586 -0.0208  0.2934
20963W        W37437   3.255  14.339   2.664 -0.4166 -0.0389 -0.0381
20964W        W37438   9.062   9.645   4.253 -0.1308  0.0022 -0.1703
20965W        W37439   4.656  18.074  13.686  0.1453  0.0673  0.0811
20966W        W37440   5.012  17.832   0.923  0.1828  0.2433  0.0758
20967W        W37441   1.826   2.383   1.581  0.3059 -0.0792 -0.2722
20968W        W37442   5.244   7.412   4.267  0.0158  0.1724  0.1248
20969W        W37443  18.651   8.869   3.099  0.1654  0.1047 -0.2415
20970W        W37444  11.830  16.438   0.843 -0.3564  0.2384 -0.0458
20971W        W37445  18.320  17.272   2.784  0.0639 -0.0205  0.2850
20972W        W37446  12.119  11.367   0.123  0.3898  0.2523 -0.0671
20973W        W37447   5.308  15.633   1.631 -0.3829 -0.0180  0.3745
20974W        W37448  13.681  14.136  13.583  0.1068 -0.3328 -0.2610
20975W        W37449   5.163   9.224  13.959 -0.1126 -0.0181 -0.0783
20976W        W37450  10.031  15.036   3.268  0.3861  0.3404 -0.1736
20977W        W37451   9.617   9.236   2.729 -0.0315  0.0209 -0.1487
20978W        W37452   2.860  10.776  11.830  0.0873  0.4359  0.0378
20979W        W37453  11.948  14.765   4.305  0.2655  0.1282 -0.0950
20980W        W37454   1.105   8.868   1.900 -0.1849  0.0204  0.1518
20981W        W37455   5.155   7.617  13.322  0.1142 -0.1314  0.0847
20982W        W37456   4.451  18.791   2.367  0.1291  0.1646  0.1713
20983W        W37457  15.661  14.579   0.306 -0.2265  0.3458  0.0812
20984W        W37458  11.950  18.884   2.294  0.0776 -0.0855  0.3056
20985W        W37459  16.612  12.807  11.863 -0.1018  0.2107 -0.1601
20986W        W37460  18.954  15.683  12.043 -0.1527  0.0601 -0.2278
20987W        W37461  12.469   0.830   5.692 -0.2339  0.3224  0.1605
20988W        W37462  12.243  10.910   4.245 -0.1576  0.2840 -0.1308
20989W        W37463   5.904   4.806   0.843 -0.0299 -0.1301 -0.1568
20990W        W37464   2.355   6.772   1.425 -0.2033  0.1111  0.0061
20991W        W37465  13.482  18.614  11.138 -0.3336  0.2089  0.2092
20992W        W37466   0.631  12.576   3.361 -0.0637 -0.1223 -0.2812
20993W        W37467   2.060  11.791  14.083  0.2280 -0.0548 -0.0890
20994W        W37468  15.745  13.352   1.976  0.0597  0.0021  0.0283
20995W        W37469   6.496   9.945   0.642 -0.0338 -0.0170 -0.3778
20996W        W37470  14.167   8.642  12.886  0.0010 -0.0884  0.1090
20997W        W37471   6.370   7.581  13.182  0.2402  0.1595  0.1591
20998W        W37472   8.541   3.325   2.116 -0.0607 -0.1310  0.2510
20999W        W37473  10.071  15.779  13.524  0.4570  0.4191 -0.2030
21000W        W37474  18.510   5.350  14.367  0.1670 -0.0717  0.1356
21001W        W37475   6.335  16.066  12.155 -0.0945 -0.1279  0.1517
21002W        W37476   2.468  12.959  10.420  0.3359 -0.1074  0.1097
21003W        W37477  11.489   2.628   3.550  0.1519  0.2352 -0.0753
21004W        W37478  14.246  14.697  13.928  0.2160 -0.0194 -0.2358
21005W        W37479  18.046   8.064   4.269  0.0258  0.1455  0.1894
21006W        W37480  17.723   1.646  14.129  0.0547 -0.1222  0.4193
21007W        W37481   7.790   2.735   1.882 -0.0064  0.1416  0.0871
21008W        W37482   4.590  11.448  14.830  0.0959  0.0037 -0.0225
21009W        W37483  17.427  13.135  11.056 -0.0217 -0.0779  0.2258
21010W        W37484   4.314  10.181  12.999 -0.3452  0.2935 -0.0916
21011W        W37485   9.118   7.140  10.764  0.0144 -0.2333  0.1470
21012W        W37486   1.974  10.151   1.192 -0.0715  0.1348 -0.2326
21013W        W37487  17.429   5.772   2.818  0.0570 -0.2544 -0.1721
21014W        W37488   8.744   2.963  14.158 -0.3894  0.0060 -0.1713
21015W        W37489   3.352   8.010   0.078  0.2282  0.0319  0.1316
21016W        W37490  16.231   7.301  12.744  0.0413 -0.0018  0.1311
21017W        W37491   9.169   7.698   0.764 -0.0877  0.1278  0.1477
21018W        W37492   7.011  16.968   0.955  0.1605 -0.1226  0.0187
21019W        W37493   8.218  13.565  13.393  0.1067  0.1467  0.0086
21020W        W37494   5.887   8.221   0.228 -0.0328  0.0090  0.3123
21021W        W37495   9.863  11.575   1.172 -0.1407  0.1845  0.2363
21022W        W37496   2.777   9.478   2.212 -0.2997  0.0480  0.1722
21023W        W37497   7.198   4.112  12.888  0.1356  0.2990  0.1703
21024W        W37498   9.082  16.104   5.125 -0.0330 -0.0601 -0.1572
21025W        W37499  14.903  15.185   1.665 -0.0846  0.2268 -0.0750
21026W        W37500   7.233  14.691   1.743 -0.1846  0.5326 -0.3371
21027W        W37501   1.946   7.443   0.444 -0.0460 -0.0851  0.1536
21028W        W37502   2.191  13.220   0.474 -0.0776  0.4647 -0.1554
21029W        W37503   1.883   3.437  12.193 -0.0344  0.0769  0.1044
21030W        W37504   7.564   3.433  10.836  0.1269 -0.0017 -0.0187
21031W        W37505  19.105   2.234   2.749 -0.1257 -0.1196 -0.0793
21032W        W37506   6.758  18.478   0.461 -0.1681 -0.2119  0.0911
21033W        W37507  13.553  17.500  10.821  0.0297 -0.0126 -0.1323
21034W        W37508   4.431   9.857  10.259  0.1854  0.1830 -0.2635
21035W        W37509   9.745   6.628   5.124 -0.2003 -0.1850 -0.2800
21036W        W37510  15.238   2.435   2.002  0.0499 -0.0342  0.4827
21037W        W37511  10.341  13.981   4.244  0.1183 -0.5324  0.0279
21038W        W37512  18.248   8.440   2.082  0.1683  0.0151 -0.0651
21039W        W37513  14.286  17.274  14.411 -0.1712 -0.3435 -0.0519
21040W        W37514   4.177   7.826   1.986  0.4836  0.2254 -0.1810
21041W        W37515  15.322  10.178  12.286  0.2756 -0.1643  0.3597
21042W        W37516   9.090  13.081  14.262  0.1340 -0.3432 -0.0036
21043W        W37517  13.951   9.038  10.841  0.2523  0.0063 -0.2096
21044W        W37518   0.509   7.659   5.278 -0.1643  0.1138 -0.2071
21045W        W37519   9.064  18.005   2.350  0.0032 -0.2609 -0.3622
21046W        W37520   6.257  12.519   3.979 -0.5869  0.1085  0.2408
21047W        W37521   1.633   9.148  10.227 -0.1344  0.2214 -0.0272
21048W        W37522  15.066  12.234   3.298  0.1238 -0.0264  0.0898
21049W        W37523  11.826   8.791   0.599 -0.2381  0.1891 -0.2926
21050W        W37524  11.704  11.342   5.085 -0.0979 -0.2476 -0.0643
21051W        W37525   1.043  10.244   2.599 -0.0688  0.0826  0.0340
21052W        W37526   1.798  15.854  11.394  0.0100 -0.0206 -0.0376
21053W        W37527   9.185  10.918  13.682 -0.2737  0.0909 -0.2081
21054W        W37528   9.000  10.567   3.225 -0.0574 -0.2059  0.3654
21055W        W37529  14.031  18.591   1.546 -0.4891 -0.0067  0.1613
21056W        W37530   3.732   4.014  14.825 -0.0838  0.2652  0.1373
21057W        W37531   5.531   6.671  12.281 -0.1374  0.3587  0.0548
21058W        W37532   9.261   4.101  10.755 -0.0077 -0.2595 -0.1959
21059W        W37533   1.914   1.230  11.722  0.0925  0.1421  0.0630
21060W        W37534   8.130  12.572  11.952 -0.1352  0.1970 -0.0215
21061W        W37535   8.372  15.381   1.567  0.0576 -0.1191 -0.0368
21062W        W37536   2.902   3.718   5.179  0.1358  0.2095  0.0553
21063W        W37537  11.139  15.451  13.838  0.1375 -0.0547 -0.0623
21064W        W37538   3.782   9.223   2.778 -0.2433  0.1671 -0.0408
21065W        W37539   7.841  12.789  13.939  0.3979 -0.1788  0.2150
21066W        W37540  10.223  17.344   5.579  0.0255 -0.1391  0.0760
21067W        W37541  10.478  14.182  11.679  0.4173 -0.2480 -0.1732
21068W        W37542   9.379   3.348  14.486  0.0123  0.1405 -0.1074
21069W        W37543   2.098   4.811   4.187 -0.1435  0.0928 -0.1651
21070W        W37544   0.396   3.035  10.867  0.0271  0.0236  0.0402
21071W        W37545  17.566  15.408   2.010 -0.1006  0.1361  0.0423
21072W        W37546   0.274   8.237   2.424 -0.0531  0.1338 -0.0783
21073W        W37547   2.659   8.564   3.638 -0.2199 -0.0978 -0.3955
21074W        W37548   6.304  10.605  13.488  0.2013 -0.1422 -0.1722
21075W        W37549   6.589  10.588  14.305  0.1360  0.0330 -0.3358
21076W        W37550   6.394   7.270   0.202  0.0242 -0.2727 -0.2854
21077W        W37551   4.067   3.699   4.397  0.2970 -0.2919 -0.2799
21078W        W37552  18.399  15.789   3.967  0.1123  0.0662 -0.1932
21079W        W37553   9.693   3.851   2.680  0.0077 -0.0292 -0.1902
21080W        W37554  18.222  16.921   5.171 -0.0106 -0.0907  0.0049
21081W        W37555   9.409  10.018   2.463  0.1419  0.0300 -0.1257
21082W        W37556   5.407   9.040   1.154 -0.0716  0.0103 -0.0857
21083W        W37557   6.786  15.327   2.224  0.5922  0.3172  0.3584
21084W        W37558  16.686   2.195   0.265  0.2206  0.2767 -0.1387
21085W        W37559  13.985   8.238  14.518  0.0382 -0.0735  0.1176
21086W        W37560   7.055  12.100  15.003 -0.1633  0.2534  0.0690
21087W        W37561  14.715  11.774   0.435 -0.0110  0.0482  0.3115
21088W        W37562  18.641  16.190  11.210 -0.0894  0.2086  0.0281
21089W        W37563   7.431  13.477   3.455  0.0646 -0.1977  0.0373
21090W        W37564   8.627  11.011  13.832  0.1821 -0.3803  0.0330
21091W        W37565  18.918   5.428  12.660 -0.1966  0.2891  0.1306
21092W        W37566   8.020   2.112   9.786 -0.0605  0.1431 -0.0653
21093W        W37567  17.554  10.426  15.097  0.1922  0.0751  0.0939
21094W        W37568   9.324  13.209  14.718  0.2501  0.0024 -0.1103
21095W        W37569   7.360  18.867  11.809  0.1179  0.1715  0.1655
21096W        W37570  16.224   3.108  12.398  0.0163 -0.1304  0.1930
21097W        W37571  10.889  17.738   1.612 -0.3983 -0.0116 -0.0284
21098W        W37572  18.246  10.697  13.810 -0.1359  0.1637 -0.4789
21099W        W37573  11.248  17.526  11.806  0.2705  0.1384 -0.0999
21100W        W37574  16.252   7.516   0.627 -0.3221  0.1437  0.0012
21101W        W37575   4.790   2.680  12.862  0.0123 -0.0234 -0.0528
21102W        W37576   7.383  17.853   5.756  0.1839  0.3104 -0.0813
21103W        W37577  10.588  12.294   1.287  0.1288 -0.1147  0.0342
21104W        W37578   1.839   0.398  12.252  0.2286  0.0253 -0.1147
21105W        W37579   3.207   3.905  14.253  0.0258  0.1827 -0.2082
21106W        W37580   2.766   1.011   4.253 -0.0842  0.2880  0.0123
21107W        W37581  18.918   1.642   3.596  0.2600 -0.1421 -0.0665
21108W        W37582  16.212   3.854   2.416  0.1823  0.0719 -0.3187
21109W        W37583  10.864   7.725   3.066  0.0951  0.1643  0.0395
21110W        W37584   0.833   4.996  13.574  0.4305  0.3691  0.1939
21111W        W37585  16.024   6.481   2.505 -0.0425 -0.5345  0.2426
21112W        W37586   5.470  18.554  15.140  0.0935  0.1323  0.0031
21113W        W37587  14.482   0.924   0.977  0.1258 -0.1409 -0.0350
21114W        W37588  14.646  18.474   0.807 -0.0540 -0.0748  0.3764
21115W        W37589  16.472   5.963   1.157 -0.2365 -0.0622  0.1459
21116W        W37590   2.477   1.233  14.365  0.0230  0.0272  0.1990
21117W        W37591   3.583  11.261   3.450 -0.1644 -0.1584 -0.1553
21118W        W37592  11.946   5.522  14.183 -0.3315  0.0280 -0.1545
21119W        W37593  18.632  14.462  13.280  0.1548 -0.1845 -0.1411
21120W        W37594  11.398  17.989  11.621 -0.1380  0.1815 -0.2840
21121W        W37595  18.533   9.475  12.422  0.0312 -0.3042 -0.0510
21122W        W37596   8.481   1.882   1.250 -0.2234 -0.3057  0.0957
21123W        W37597  14.117  10.657  13.051  0.2030 -0.0983  0.1065
21124W        W37598  18.059   3.502   4.806 -0.2459  0.2126 -0.2809
21125W        W37599  13.791   2.917   1.550 -0.1371  0.1754 -0.0361
21126W        W37600   0.654  11.453   4.246 -0.0773  0.1304 -0.2987
21127W        W37601   4.501   0.077  11.465  0.2870  0.1785  0.0322
21128W        W37602  16.450  17.573  10.403 -0.0614  0.2030 -0.2395
21129W        W37603   2.495   3.545  10.799  0.2374  0.1347  0.2189
21130W        W37604  10.354   5.354  12.109  0.1901 -0.0295  0.1313
21131W        W37605   6.471  14.488   0.275 -0.2414 -0.0142  0.2115
21132W        W37606  11.983  18.137   9.831  0.1023 -0.0378  0.3740
21133W        W37607  18.955  13.336  14.087 -0.0130  0.2334  0.3530
21134W        W37608   5.634  15.469  12.248 -0.1976  0.2038 -0.0993
21135W        W37609  11.581   7.516  11.852  0.1616  0.1507  0.0881
21136W        W37610  10.286   3.999   0.124 -0.0307 -0.0874 -0.2441
21137W        W37611  16.540   7.976  14.978 -0.1758 -0.0713  0.0408
21138W        W37612  13.738  15.350   4.815 -0.0131 -0.0489 -0.2035
21139W        W37613  14.569  12.837   1.443 -0.2037 -0.0641  0.0879
21140W        W37614  10.161  17.528   4.670  0.2447 -0.1393 -0.0977
21141W        W37615   2.500  12.872   0.253  0.4024  0.0832  0.1335
21142W        W37616  14.424  16.281  14.770 -0.2109 -0.2264 -0.0593
21143W        W37617   8.924  13.540  10.838  0.2110 -0.0615  0.1162
21144W        W37618   8.524   4.317   2.117  0.0139 -0.1691 -0.0391
21145W        W37619  16.171   6.510  13.497 -0.2832  0.0118 -0.0301
21146W        W37620   9.509   6.416  10.384 -0.1454 -0.0243  0.0000
21147W        W37621   5.625   5.441   4.241 -0.2243 -0.2036 -0.0056
21148W        W37622  17.034  13.570  14.488  0.1684  0.1825 -0.2568
21149W        W37623  15.407   8.491  11.046 -0.1803  0.1830 -0.2720
21150W        W37624   4.777   0.855   3.323  0.0055  0.0469 -0.0873
21151W        W37625   3.665   2.329   3.188 -0.0446  0.1690  0.1875
21152W        W37626   9.894   8.325  12.976 -0.1170  0.0723  0.0259
21153W        W37627  14.253  19.125   1.375  0.4654  0.3581 -0.2466
21154W        W37628   2.729  15.909   1.983  0.1552  0.5297  0.0637
21155W        W37629  14.575   6.229   5.484  0.3402  0.0874  0.2232
21156W        W37630   5.037  14.239  12.915 -0.1832 -0.0295  0.3734
21157W        W37631   0.047  15.511  14.197 -0.0494  0.1088  0.0439
21158W        W37632  15.826  14.653   1.220 -0.0381  0.0937 -0.4078
21159W        W37633   1.967  10.540  10.921 -0.0797  0.0561 -0.0500
21160W        W37634   2.670  15.428   0.904  0.2406 -0.2611  0.0997
21161W        W37635  17.958   0.740  11.887 -0.0478 -0.0232 -0.0611
21162W        W37636  12.774  14.533   1.010  0.0678  0.1909  0.2823
21163W        W37637   5.440   3.759   2.689 -0.0122 -0.1593 -0.0318
21164W        W37638  10.466  15.224   5.033 -0.3142 -0.1122  0.0461
21165W        W37639   4.689   0.288  12.371 -0.1319 -0.4833 -0.2320
21166W        W37640   5.960  19.076  10.932  0.0909 -0.0988 -0.2587
21167W        W37641   2.431  13.803   9.546  0.0862  0.2703  0.0301
21168W        W37642  17.476  17.157   1.408  0.2021  0.2876  0.1597
21169W        W37643  16.615  15.675   4.022 -0.1033  0.2007 -0.3579
21170W        W37644  10.094   2.986  11.989  0.0847  0.0776  0.0327
21171W        W37645  19.157   0.336   0.641 -0.1861  0.0202 -0.0584
21172W        W37646  15.223   8.664   5.269 -0.0363  0.2280 -0.2281
21173W        W37647   3.056  13.809   0.668 -0.1949 -0.1856  0.0868
21174W        W37648   3.436  17.290  14.371 -0.1274  0.0236 -0.2102
21175W        W37649   2.068   7.216  10.503 -0.0240  0.3251 -0.3942
21176W        W37650   2.148  10.317  10.396  0.0203 -0.0914 -0.0261
21177W        W37651   6.035   9.070  12.633  0.1004  0.1987 -0.2318
21178W        W37652  13.571  12.604  14.169 -0.1863 -0.0122 -0.0344
21179W        W37653   3.378  11.893  13.737  0.1506  0.0820 -0.2815
21180W        W37654  17.254  16.012   5.589 -0.0353  0.0281 -0.0649
21181W        W37655  13.714  11.942  12.989  0.0081 -0.0081 -0.1924
21182W        W37656   1.015  15.923  11.765  0.0853  0.2736  0.0202
21183W        W37657  15.287  16.057  14.503 -0.1529 -0.0396 -0.2273
21184W        W37658  14.894  14.638   0.925  0.1770  0.0904 -0.0141
21185W        W37659  16.422  10.289   5.792 -0.1220 -0.5437 -0.0585
21186W        W37660   3.311  15.278  14.073  0.0747 -0.3688  0.0894
21187W        W37661  12.381  14.452   4.623  0.0200 -0.1602 -0.0764
21188W        W37662  15.221   3.578   2.288  0.4310 -0.0099 -0.0771
21189W        W37663  17.770  16.108  12.986  0.0131 -0.0199 -0.0087
21190W        W37664  15.029  13.582   3.831 -0.0195  0.1037 -0.1658
21191W        W37665  17.171   8.215  13.296 -0.0526 -0.2460  0.2452
21192W        W37666   1.676  17.388  10.664  0.1624 -0.4967  0.1171
21193W        W37667  14.361   4.079  14.141 -0.0317  0.3618 -0.2499
21194W        W37668   4.853  11.312   9.948  0.4099 -0.1690 -0.4057
21195W        W37669   1.773  15.449   0.492  0.1333  0.0620  0.1105
21196W        W37670   9.880   1.906   2.767 -0.0101 -0.0290 -0.1432
21197W        W37671  14.682   1.586   4.743  0.1146  0.1870  0.5570
21198W        W37672  18.930   8.288   0.911 -0.3195  0.0554 -0.2008
21199W        W37673  17.584   4.920   2.690 -0.2717 -0.2992 -0.0299
21200W        W37674   2.967   2.461  11.655  0.2765  0.3971 -0.3212
21201W        W37675  17.540  10.284  10.983 -0.1919 -0.2422  0.2199
21202W        W37676  16.261   5.611   1.525 -0.1211 -0.0829 -0.3698
21203W        W37677  12.535  17.723  14.788 -0.0626  0.2033 -0.0892
21204W        W37678  17.862   0.678  10.517 -0.2563  0.3284  0.2317
21205W        W37679   5.225   5.524  13.530  0.4733  0.2661  0.1069
21206W        W37680  18.988  12.275   2.494  0.0586  0.1439  0.0899
21207W        W37681   8.368   8.708   2.756 -0.1774 -0.3005  0.1469
21208W        W37682   8.334   9.417  13.483 -0.0105  0.1369 -0.0013
21209W        W37683  10.166   5.382   2.840  0.2187  0.0126 -0.3469
21210W        W37684  17.222   2.446   2.207 -0.1412  0.0969 -0.3875
21211W        W37685  18.174   9.579  11.041 -0.1276  0.4304 -0.2351
21212W        W37686  10.491   6.694  13.336 -0.0283 -0.1293  0.0047
21213W        W37687   2.346  17.696   1.422 -0.3527 -0.1881  0.2816
21214W        W37688  10.889  12.276   0.816  0.0151 -0.1116  0.0920
21215W        W37689   3.346   7.808  13.594  0.0568 -0.3063  0.1100
21216W        W37690  16.129  16.946   1.450  0.1731 -0.1606 -0.4936
21217W        W37691   0.803  17.050   2.002 -0.1160 -0.2718  0.4124
21218W        W37692  15.509   2.975  14.129 -0.1035 -0.1380 -0.1411
21219W        W37693  14.184   6.965   4.557  0.0849  0.1251  0.4318
21220W        W37694  15.003  12.639   1.339 -0.2755 -0.1452  0.1180
21221W        W37695   5.322   3.838   3.924 -0.2050 -0.2766 -0.2936
21222W        W37696  18.630  13.940   4.633  0.1030  0.0542 -0.0134
21223W        W37697  17.154   0.640  14.510 -0.0156 -0.1016  0.1083
21224W        W37698  11.306   7.155   4.503 -0.3779  0.2107  0.1644
21225W        W37699  10.097  18.957  12.789 -0.4491 -0.0944  0.4176
21226W        W37700   3.705  16.409   1.161 -0.1895 -0.1240  0.2184
21227W        W37701   5.361  15.776  11.115  0.2243  0.1076  0.1572
21228W        W37702  14.041   0.754  14.158 -0.4650 -0.1832  0.0710
21229W        W37703  15.589  11.975  13.398 -0.0225  0.1695  0.0243
21230W        W37704  17.976  13.755   0.516 -0.0135  0.0210  0.3099
21231W        W37705   4.258   9.341   0.440 -0.3583 -0.2000 -0.1486
21232W        W37706   1.894   5.526   2.222 -0.0771 -0.1200 -0.0680
21233W        W37707   4.751   9.314  12.020  0.0765  0.0068 -0.1637
21234W        W37708  15.200   0.184   2.708  0.0813 -0.2368  0.4439
21235W        W37709   7.150   3.320   0.239 -0.1393  0.0810  0.0004
21236W        W37710   0.620  16.184   3.210 -0.1060 -0.1118  0.2230
21237W        W37711  14.925  13.765   1.897  0.1157  0.2168  0.0347
21238W        W37712   3.986   7.402   2.123 -0.0238  0.2907  0.0478
21239W        W37713   4.237  11.922   1.065  0.1670 -0.1158 -0.1820
21240W        W37714   5.500  16.715  11.308  0.0580 -0.3755 -0.1690
21241W        W37715   5.938   5.976   3.081 -0.1419 -0.3055  0.1209
21242W        W37716   9.875   4.241   9.447 -0.3507  0.1744 -0.2428
21243W        W37717  12.299   6.665  11.262  0.3074 -0.1333  0.2420
21244W        W37718  18.686  17.879   9.853 -0.3943  0.1122 -0.2892
21245W        W37719  12.617   5.451   3.801 -0.0578 -0.1215 -0.1219
21246W        W37720  12.777  14.107  12.587  0.4813 -0.1231 -0.1843
21247W        W37721  12.834  12.414  13.227 -0.2607  0.1100 -0.2742
21248W        W37722   4.872   5.888   9.281  0.0237  0.1877  0.2851
21249W        W37723   8.612   1.444  12.012 -0.2046 -0.3679  0.4255
21250W        W37724   5.025   7.351   2.379  0.1456  0.2931 -0.0540
21251W        W37725  17.927  18.917  12.025 -0.0805 -0.1045 -0.4090
21252W        W37726   1.593   1.355  12.579  0.3519 -0.2173 -0.0034
21253W        W37727  15.214   7.012  12.650  0.2687 -0.3115  0.2102
21254W        W37728   6.893  10.248  12.681  0.1333 -0.0921  0.2090
21255W        W37729  12.850   3.535   1.523 -0.1743  0.0404 -0.4480
21256W        W37730  15.218  14.849   3.061  0.2338 -0.0681 -0.0324
21257W        W37731   7.545   0.256   3.397  0.0262 -0.1018  0.0400
21258W        W37732  13.112  10.621   2.556 -0.3575  0.0408 -0.1551
21259W        W37733   5.786   0.405  10.709  0.0336  0.1905  0.3297
21260W        W37734   4.315   1.244  11.925 -0.0276  0.2012 -0.0449
21261W        W37735   0.904  10.140   4.517  0.1010  0.2398 -0.0360
21262W        W37736  10.621   8.529  14.358 -0.3501  0.1782 -0.3318
21263W        W37737   7.801   2.655   3.834  0.0358 -0.1878 -0.0931
21264W        W37738  10.305   8.033  11.613  0.0234  0.3148 -0.0940
21265W        W37739  18.814   2.431   1.644  0.0948 -0.1017 -0.0324
21266W        W37740  16.780  18.495  10.840 -0.0255 -0.0851  0.1671
21267W        W37741   6.780  13.828  11.889 -0.3430  0.0056 -0.0888
21268W        W37742   4.862  15.781  13.849  0.0906 -0.0280 -0.0076
21269W        W37743   1.129   5.139  12.796 -0.0972 -0.0005  0.3564
21270W        W37744  13.395  10.834  14.233  0.1462 -0.4118  0.2895
21271W        W37745  13.576  11.995   0.125 -0.3383 -0.3114 -0.2107
21272W        W37746   3.334   6.532   2.930 -0.1380  0.3959 -0.0612
21273W        W37747  18.550   5.586   2.262 -0.1512 -0.0962 -0.0596
21274W        W37748  16.818  12.543   3.848 -0.2712 -0.0588  0.0347
21275W        W37749  10.408   4.230   3.822 -0.1314  0.1293 -0.1047
21276W        W37750   2.207   9.856  11.700 -0.0032  0.1980 -0.1762
21277W        W37751  13.347  16.938   4.857 -0.0399 -0.3062 -0.2312
21278W        W37752   7.998   9.019   5.000  0.2642 -0.0276 -0.0717
21279W        W37753   0.051   7.879  13.040  0.1677  0.3454 -0.0322
21280W        W37754  17.265  12.331   3.816 -0.0290  0.1870  0.2323
21281W        W37755   5.078  11.123   4.202 -0.3189 -0.0076  0.1466
21282W        W37756  10.993  13.064   2.646 -0.0707 -0.2766 -0.0467
21283W        W37757  14.485   3.852  10.243  0.1502 -0.1854 -0.0713
21284W        W37758   3.800  16.283   2.041  0.0025  0.0752  0.1647
21285W        W37759  18.682   4.542  12.713  0.0348 -0.0484 -0.4674
21286W        W37760  15.654  11.868  11.507 -0.1905 -0.0867 -0.1027
21287W        W37761  15.127  16.629   2.113 -0.1060  0.1352 -0.5810
21288W        W37762   9.101  12.347   5.070  0.1394 -0.0281  0.1294
21289W        W37763  15.623   6.244   2.703  0.1145  0.2286  0.1364
21290W        W37764   9.848  14.128   2.735  0.0693 -0.2316 -0.0993
21291W        W37765   3.106   5.019   2.265 -0.1168  0.2977  0.1521
21292W        W37766   4.585   6.432   4.261  0.3410 -0.1558  0.2553
21293W        W37767  16.388   9.131   2.520 -0.1563  0.1384 -0.2254
21294W        W37768   7.489   9.941  11.756 -0.1931 -0.1403  0.0216
21295W        W37769   3.757   9.230  14.665 -0.1572 -0.1791 -0.2424
21296W        W37770   1.060   6.412   5.131  0.0336  0.0769  0.1760
21297W        W37771   3.618  14.371   1.802  0.2695 -0.0024 -0.0304
21298W        W37772  11.424   5.524  13.040  0.0894 -0.0706  0.3510
21299W        W37773   4.847  15.699  14.839 -0.1212 -0.2393  0.3005
21300W        W37774  13.146   3.153   1.738  0.0131 -0.0520  0.1219
21301W        W37775  10.825   6.005  11.343  0.0133  0.0787 -0.2532
21302W        W37776   6.346  13.639   0.624  0.0883  0.0860 -0.0586
21303W        W37777  16.756  17.463  14.355 -0.1269  0.0535  0.0936
21304W        W37778   9.132  13.723  15.048  0.1897  0.1189 -0.2736
21305W        W37779  13.106   5.929   5.650 -0.2524 -0.0480  0.2185
21306W        W37780  12.387  19.076  10.499 -0.0674 -0.2390 -0.0668
21307W        W37781  12.536   0.875   4.756  0.1190 -0.3869 -0.0070
21308W        W37782  16.458  11.097  14.004 -0.1192  0.2637 -0.1431
21309W        W37783  11.151  10.421   3.454 -0.1024 -0.1979 -0.1495
21310W        W37784   8.338   9.630  11.665 -0.3573 -0.1226  0.2821
21311W        W37785   0.411   8.445  10.446  0.4512 -0.1202  0.2806
21312W        W37786  18.414   4.813   3.879 -0.1519 -0.0629  0.0108
21313W        W37787   8.332  10.369   4.366 -0.0356  0.0002  0.0883
21314W        W37788  16.637  11.086  14.786 -0.2273 -0.0220  0.1988
21315W        W37789   1.726  16.603  11.972  0.0846  0.2053  0.1528
21316W        W37790  14.245   4.665   4.232  0.3672 -0.0050 -0.1679
21317W        W37791  17.891  18.780  12.900  0.0868  0.0174  0.3617
21318W        W37792  11.477  17.003  10.613  0.0659  0.0986 -0.2508
21319W        W37793   2.823  16.974   1.452 -0.1642 -0.1893  0.2917
21320W        W37794  16.408  10.256  12.965  0.0806 -0.4558 -0.2007
21321W        W37795   7.623   9.022   1.785 -0.1502 -0.0730 -0.1796
21322W        W37796   3.437  13.719   4.460  0.3110  0.0314  0.3203
21323W        W37797   7.981   4.123   1.955 -0.1965 -0.3005 -0.1963
21324W        W37798   3.616  18.274   2.004 -0.2335 -0.4550 -0.0431
21325W        W37799   3.382   3.514  14.979 -0.0742 -0.0273  0.1935
21326W        W37800  16.129  19.110  14.253 -0.1088 -0.2839  0.0305
21327W        W37801   7.781  17.213   1.416  0.0597 -0.2024  0.0684
21328W        W37802  14.841  16.066  14.845  0.1660  0.1847 -0.1009
21329W        W37803  18.635  10.092   0.579  0.2223  0.0825 -0.1755
21330W        W37804  12.463  16.529   4.742 -0.0293 -0.0093 -0.1198
21331W        W37805   4.400  17.824   2.238  0.2897  0.0712 -0.0449
21332W        W37806   3.944   7.549  12.231 -0.1911 -0.1835  0.0795
21333W        W37807   2.022  11.517  14.880  0.3411 -0.0957 -0.1552
21334W        W37808   9.317   1.893   0.691  0.0050  0.0059  0.1276
21335W        W37809  15.350   1.087  14.141  0.2873  0.2763 -0.0024
21336W        W37810  14.027   1.507  11.434 -0.2197 -0.1123  0.1416
21337W        W37811   6.128   4.766  14.629  0.2188  0.1491  0.1848
21338W        W37812   7.053   5.423   2.645 -0.2493 -0.3209  0.2653
21339W        W37813  10.835   9.264  13.140 -0.2510  0.2466  0.1075
21340W        W37814  13.678  13.239  11.187  0.0663 -0.3127  0.2169
21341W        W37815   2.593   5.969   2.992  0.0957 -0.2262  0.3228
21342W        W37816  14.816   5.749   4.803 -0.1528  0.2072  0.0640
21343W        W37817   4.210  17.415   2.471  0.1151 -0.1613  0.0754
21344W        W37818  14.531   6.222   4.973 -0.2461  0.0290 -0.0391
21345W        W37819   8.817   4.405   1.572  0.2786 -0.2695  0.2600
21346W        W37820  11.403   8.286   4.759 -0.0954 -0.0829  0.1179
21347W        W37821  17.400  14.290  11.217 -0.0067 -0.1958  0.2512
21348W        W37822   5.394  11.395   0.669 -0.0116 -0.0214 -0.0919
21349W        W37823   2.115   0.088   1.072 -0.0307 -0.5472  0.3709
21350W        W37824   0.862  14.620   5.123  0.0772 -0.0487 -0.2812
21351W        W37825   8.392   2.195   0.830  0.1412  0.4656 -0.0493
21352W        W37826   3.606  17.788   1.787  0.2159  0.0486 -0.0386
21353W        W37827   7.172   8.296   9.786  0.1748 -0.1789 -0.0511
21354W        W37828   0.468  12.620  14.729 -0.5112  0.1883  0.0859
21355W        W37829  13.351  18.050   0.001 -0.1296 -0.1856  0.0774
21356W        W37830   5.213   5.087  14.867 -0.2099  0.1220 -0.1159
21357W        W37831   7.278  14.040  13.131 -0.0951  0.0479 -0.1335
21358W        W37832  15.346   1.370   1.212  0.0166  0.1131  0.1451
21359W        W37833   5.052  18.431  13.539 -0.1125  0.2057 -0.1597
21360W        W37834  18.700  14.393   0.456  0.0680 -0.0576  0.1055
21361W        W37835   2.732  16.496  14.056  0.1246  0.2488 -0.0288
21362W        W37836  18.315  13.737   0.923 -0.0178 -0.0295 -0.2135
21363W        W37837  15.883  18.454   1.815  0.2005  0.3959  0.2515
21364W        W37838   4.716   5.796   4.255 -0.0888  0.1316  0.3676
21365W        W37839   1.069  11.891   1.335  0.0906  0.4654 -0.3819
21366W        W37840   5.788  16.417   1.428  0.0683 -0.0837 -0.0988
21367W        W37841   3.686  11.444  12.581 -0.0407  0.1847  0.2161
21368W        W37842   3.456  14.895   3.402 -0.2647  0.1170 -0.3388
21369W        W37843   8.497  17.938   0.748  0.0417  0.3673 -0.0442
21370W        W37844  15.293  14.720   2.557 -0.1127 -0.1321  0.0156
21371W        W37845   2.469  18.583  13.342 -0.1205  0.1653  0.0247
21372W        W37846   8.096   5.966   4.130 -0.0339 -0.1214 -0.3625
21373W        W37847   5.260   4.556  11.332  0.1718  0.2800 -0.4865
21374W        W37848   6.755  10.642  11.780 -0.1025  0.2921 -0.2969
21375W        W37849   6.499   6.278   0.477  0.1999  0.1838 -0.0147
21376W        W37850  14.622   3.226   0.876  0.1289  0.4085 -0.2628
21377W        W37851  13.403   7.545  14.675 -0.1024  0.1838 -0.2547
21378W        W37852  16.463  16.516   4.424 -0.3298  0.0290  0.0349
21379W        W37853  12.493  16.491  14.219  0.1266 -0.2818 -0.0985
21380W        W37854  12.511   9.064  15.112  0.0022  0.2865 -0.1547
21381W        W37855   4.862   0.932   1.859  0.0842 -0.0639 -0.1920
21382W        W37856   5.836   3.470   5.914  0.5794  0.1959  0.2406
21383W        W37857  10.600  14.399  10.859 -0.1840 -0.2297 -0.0127
21384W        W37858   7.702  12.785   1.935  0.1508  0.1370 -0.2891
21385W        W37859   6.735   7.592   0.439 -0.1122 -0.0526 -0.0110
21386W        W37860   4.843  14.968   1.674  0.1855  0.1204  0.2069
21387W        W37861  18.334   2.386   1.972  0.0201 -0.0263  0.1134
21388W        W37862   1.678  13.372   9.505 -0.2927 -0.2257  0.3730
21389W        W37863   7.188  16.720   0.242  0.2887 -0.2270  0.0484
21390W        W37864  19.014  13.859   2.725  0.0420  0.1658  0.1156
21391W        W37865   4.171  15.470  11.761  0.0825 -0.2063  0.1720
21392W        W37866   8.352  14.455  12.786  0.0207  0.1348 -0.1185
21393W        W37867  16.306   0.444  14.976  0.0872 -0.2702  0.1323
21394W        W37868  15.405  14.852   3.517 -0.1098 -0.0264  0.4010
21395W        W37869  10.402  10.118   3.994  0.4302  0.0176  0.2841
21396W        W37870   8.546   7.877   0.119 -0.4337 -0.0489 -0.0145
21397W        W37871  17.085  12.564   0.264 -0.0175 -0.1584  0.2097
21398W        W37872  14.982   8.406   3.027 -0.1862  0.0897 -0.1366
21399W        W37873   2.324   9.238   1.079  0.0530  0.1569  0.2688
21400W        W37874   4.221  15.286   3.333  0.1904 -0.1263 -0.0047
21401W        W37875   5.403   5.836  14.158 -0.1307 -0.2510  0.0630
21402W        W37876  12.273  13.660  14.565 -0.2370 -0.5012 -0.1675
21403W        W37877  12.437  11.742   3.569  0.3311  0.3417 -0.1856
21404W        W37878  14.800   1.403  10.330 -0.0077  0.1005 -0.0483
21405W        W37879   8.259   1.322   3.578  0.0501  0.0090  0.0135
21406W        W37880  11.097   4.455   0.256  0.1268  0.3002  0.2868
21407W        W37881  18.980  17.987   1.105 -0.1648 -0.1039  0.2374
21408W        W37882   1.934  11.186   1.829  0.0373  0.0333 -0.2570
21409W        W37883   5.357  15.360  11.361 -0.1931 -0.1455  0.0199
21410W        W37884   4.931  19.081   3.101  0.1969  0.0611  0.0724
21411W        W37885   2.784  12.507   2.657  0.0475  0.1632 -0.3453
21412W        W37886   9.596   6.280  12.797 -0.0111  0.0767  0.1754
21413W        W37887   9.021  10.853  14.797  0.2223 -0.2813  0.0884
21414W        W37888   9.036  15.145  12.853 -0.0868  0.1294  0.0476
21415W        W37889  11.290   5.896  13.589 -0.2456 -0.0736  0.0220
21416W        W37890   1.225   9.521   0.424 -0.1608 -0.0695  0.2902
21417W        W37891  19.027  14.300   4.385  0.3465 -0.1304 -0.1085
21418W        W37892   6.879  10.999   2.468  0.0172 -0.0683 -0.1808
21419W        W37893   1.913  16.275   4.213 -0.2282 -0.1694 -0.1294
21420W        W37894  18.538  12.218   0.457 -0.0114 -0.0624 -0.0210
21421W        W37895   5.868   6.411  12.672 -0.0516 -0.1165  0.0901
21422W        W37896  12.405  15.356   4.096 -0.0098 -0.2732 -0.0428
21423W        W37897  13.055   5.201   4.678 -0.2731  0.1536  0.0979
21424W        W37898  10.557   8.153   3.101  0.0001 -0.0990 -0.1234
21425W        W37899   3.494   8.253  11.178 -0.0056  0.1097  0.0814
21426W        W37900   5.286  11.982   1.544 -0.2770 -0.1141  0.1458
21427W        W37901   5.601  14.251   0.839 -0.1525  0.0346  0.2050
21428W        W37902   8.804   4.818   3.687  0.0086 -0.1526  0.0496
21429W        W37903   4.512  10.003  14.946 -0.0776 -0.0908 -0.1419
21430W        W37904   8.134  11.099  14.068  0.0483 -0.1096  0.0786
21431W        W37905  16.371  12.673   3.579 -0.2551 -0.1790  0.0874
21432W        W37906   7.415   8.526  14.190 -0.0317 -0.0241 -0.0163
21433W        W37907   4.198  19.076  11.034 -0.0030  0.0015  0.2502
21434W        W37908  13.139   6.982  11.289 -0.2532  0.0102 -0.0524
21435W        W37909  14.287   3.684  13.074  0.0551  0.2954 -0.1908
21436W        W37910  11.439   7.468   1.668 -0.1754 -0.2030 -0.2717
21437W        W37911   8.828  18.268  15.052  0.0756  0.0288 -0.2287
21438W        W37912   9.192   7.161   3.012 -0.0484 -0.0194  0.3353
21439W        W37913  11.304   1.049   3.559 -0.2497  0.0303  0.3832
21440W        W37914  15.332   1.970   2.362 -0.2063  0.1373 -0.0149
21441W        W37915  11.342   1.963  10.713 -0.2408  0.3694 -0.0090
21442W        W37916   9.407  18.245  10.629  0.1863 -0.2610  0.1546
21443W        W37917   8.934  17.874  12.020 -0.0960  0.1659 -0.2795
21444W        W37918   0.887   7.609   4.444 -0.1078 -0.0270 -0.1536
21445W        W37919  18.185  10.817   1.308  0.0942  0.0859  0.3534
21446W        W37920  13.454   9.781  10.007  0.0274  0.4734  0.3554
21447W        W37921   8.150   3.272   1.780 -0.0409  0.0890 -0.0446
21448W        W37922   5.014   9.116  10.999  0.0441  0.1719 -0.2958
21449W        W37923  11.285  18.402  14.386 -0.3417  0.0020 -0.4242
21450W        W37924  19.129  14.250  11.131 -0.1855 -0.1217  0.3167
21451W        W37925  18.381   8.962   4.584 -0.1630  0.0021 -0.3012
21452W        W37926  12.536  14.055  11.129  0.4915  0.0209  0.2745
21453W        W37927   7.014  12.070  11.989  0.1173 -0.0975 -0.0296
21454W        W37928   4.810  16.687  14.544 -0.0952 -0.1412  0.3692
21455W        W37929  17.442  14.978   0.290 -0.0679  0.0251 -0.0428
21456W        W37930   6.852   8.857   0.195 -0.0573  0.0098  0.0420
21457W        W37931   7.008  15.097   1.314  0.0777 -0.0951 -0.0055
21458W        W37932   0.662  14.430   0.191  0.1384  0.2194  0.1564
21459W        W37933  13.041   7.215   3.195 -0.0035  0.1868  0.0228
21460W        W37934  11.822   3.501  14.182 -0.0741 -0.0676 -0.4232
21461W        W37935   7.782  15.815  13.794 -0.1095  0.0550  0.2336
21462W        W37936  11.173  14.028   5.261 -0.1048 -0.1914  0.1079
21463W        W37937   3.099  15.445   4.543  0.1370 -0.1940 -0.0009
21464W        W37938   6.098  17.949  14.212  0.1135  0.1687  0.1984
21465W        W37939  14.704  10.778  13.464 -0.2160 -0.1522 -0.0309
21466W        W37940  12.111   7.921   0.652 -0.1503 -0.1599  0.1642
21467W        W37941   8.190  13.682   1.435  0.3917 -0.2057  0.1124
21468W        W37942   7.259   5.934  11.221 -0.1866  0.0293  0.1825
21469W        W37943   4.074   9.577   1.388  0.0256 -0.0833  0.0555
21470W        W37944   2.250   1.594  10.704 -0.0531  0.1969  0.2437
21471W        W37945  10.211  17.426   9.791  0.2260 -0.3976 -0.0131
21472W        W37946   7.446   5.866   3.365 -0.0401 -0.0672 -0.0358
21473W        W37947  12.258  12.139  14.619  0.0882 -0.0407 -0.2051
21474W        W37948   9.681  17.151  11.781  0.6724 -0.0196  0.0719
21475W        W37949  13.212   4.426   0.740 -0.0031 -0.0234  0.2478
21476W        W37950   3.964   1.459   5.273  0.0025  0.0533 -0.1192
21477W        W37951   2.519  10.524   5.287 -0.1671  0.3240  0.2775
21478W        W37952  11.487  10.726  11.086 -0.5417 -0.0090  0.2750
21479W        W37953   3.480   5.701   4.103 -0.0474  0.0856  0.5490
21480W        W37954  14.583  10.167  13.160 -0.0104  0.1100  0.1212
21481W        W37955  13.374  11.487   5.841 -0.3120  0.3589 -0.0159
21482W        W37956  15.487  18.757  14.022 -0.1290 -0.0172  0.2606
21483W        W37957   9.478   6.171   0.216 -0.0575 -0.0005 -0.2713
21484W        W37958   2.935  16.799  12.897 -0.0343 -0.0330 -0.0686
21485W        W37959   0.879   5.653  14.343 -0.2881  0.3081 -0.1370
21486W        W37960   1.442  12.104   2.497  0.2619  0.1475  0.1091
21487W        W37961   1.463  15.281  10.925 -0.1715  0.1598  0.2853
21488W        W37962   4.469   8.515  13.400  0.3069  0.5626 -0.0220
21489W        W37963   2.326   9.315  11.700  0.2325  0.0185  0.1290
21490W        W37964  11.310   4.014   0.129 -0.1683  0.3077 -0.2183
21491W        W37965   7.203   6.657  14.050  0.0861  0.0413  0.2326
21492W        W37966   6.057   7.922   3.242  0.4349  0.0861 -0.1649
21493W        W37967   1.039  15.236  12.680 -0.0238 -0.1951  0.0554
21494W        W37968   0.026   6.180   2.315 -0.2261 -0.0828 -0.1841
21495W        W37969  12.369  17.892  11.924 -0.1297  0.0821  0.1383
21496W        W37970  13.524  17.129   0.287  0.3009 -0.2463  0.1434
21497W        W37971  10.433   2.106  12.796  0.2297 -0.0690  0.1338
21498W        W37972   0.989   7.708   2.997  0.2198 -0.1274  0.5265
21499W        W37973  15.176  14.817  11.529 -0.1151  0.0266 -0.3767
21500W        W37974   7.236   6.088  13.753  0.1795 -0.0023 -0.1206
21501W        W37975   8.688  18.578   2.348 -0.2953 -0.3188 -0.0613
21502W        W37976  11.429  15.922  10.620  0.0696 -0.0469  0.1430
21503W        W37977   7.005   0.700   4.001  0.1691 -0.0199  0.0664
21504W        W37978   5.437  16.342   5.112 -0.4466 -0.0643 -0.1911
21505W        W37979  12.624  10.150  15.054 -0.1476  0.2090 -0.1678
21506W        W37980   3.895   6.639  11.963 -0.1436  0.1164 -0.2178
21507W        W37981  15.920  16.879  10.834 -0.2667 -0.0159  0.0328
21508W        W37982   2.751   9.204   2.835 -0.0325  0.0496  0.2444
21509W        W37983   9.542   6.225   5.340  0.5405  0.1030 -0.0717
21510W        W37984  13.099  18.981   3.685  0.0529  0.2300 -0.1694
21511W        W37985   3.930   6.833   3.143 -0.0371  0.2570 -0.1918
21512W        W37986  11.070  10.828   2.854  0.1981  0.0642 -0.0977
21513W        W37987   7.401  15.110  13.794  0.3030  0.0357  0.1580
21514W        W37988  13.142   5.483  11.408  0.1510 -0.1692  0.0660
21515W        W37989   4.657  16.095  12.368  0.2604  0.2726 -0.1372
21516W        W37990  12.048   1.584  13.328  0.0547  0.1175 -0.1899
21517W        W37991   1.687   6.218   4.456  0.3107  0.1523  0.0196
21518W        W37992  17.906   3.722  10.067  0.1292  0.0538  0.0472
21519W        W37993  18.180   1.700  14.534  0.0820  0.2735 -0.2240
21520W        W37994   6.003   2.408  14.867  0.1142  0.2921 -0.2723
21521W        W37995  10.692  12.687   9.849 -0.0103 -0.1933 -0.0118
21522W        W37996  12.593   9.921  13.107  0.2781 -0.2768  0.0239
21523W        W37997  13.691  13.954   3.771 -0.0754  0.0162  0.0408
21524W        W37998  13.083   5.646  10.589  0.0794 -0.1102 -0.2991
21525W        W37999   6.209   8.553   4.114 -0.0561  0.2659  0.0945
21526W        W38000   3.929   0.438   4.930  0.1255 -0.3747  0.2578
21527W        W38001   8.295   2.928  14.014 -0.0942 -0.1068 -0.1427
21528W        W38002   1.906  15.903   0.812 -0.2515 -0.0572 -0.0335
21529W        W38003   9.223  18.710   3.229  0.1028  0.2886 -0.3524
21530W        W38004  11.040  11.741   1.902  0.0799 -0.2242 -0.1143
21531W        W38005   4.748  14.227  14.274  0.2103  0.0779 -0.2434
21532W        W38006   6.393   9.062   4.009 -0.1610 -0.1910  0.1050
21533W        W38007   5.192  12.851  11.970  0.0337 -0.2574  0.3765
21534W        W38008   4.051   8.617  12.715 -0.2405 -0.0980 -0.1735
21535W        W38009   7.174   3.342   5.077 -0.0919  0.1683 -0.0524
21536W        W38010   0.344   4.407   4.629  0.2463  0.0029  0.2184
21537W        W38011  13.203   2.226  11.877 -0.1946  0.0448  0.0554
21538W        W38012  16.513  18.903  10.877 -0.1145  0.0863 -0.1233
21539W        W38013  14.102  15.250   3.980  0.1418  0.0843  0.2528
21540W        W38014  10.453   7.205   4.741 -0.0198 -0.1060  0.0012
21541W        W38015   5.771  13.880  15.007 -0.1247 -0.3172  0.0968
21542W        W38016   3.623   5.450   1.687  0.0381 -0.0861  0.0011
21543W        W38017  18.908  11.545   1.074  0.2428  0.1436 -0.1288
21544W        W38018  18.191  15.546   3.399  0.3125 -0.4094  0.1889
21545W        W38019  15.998   8.797   0.524 -0.0630 -0.0468 -0.2381
21546W        W38020  13.491  12.410  12.162 -0.3548  0.0305  0.1913
21547W        W38021  11.279  13.694   0.033 -0.1942 -0.1292  0.3249
21548W        W38022   2.771  16.687   0.823  0.2629 -0.0296 -0.1702
21549W        W38023   4.050   1.231   0.454 -0.0016  0.0266 -0.1851
21550W        W38024   8.303   4.731  10.534 -0.1379  0.2480 -0.2385
21551W        W38025   1.923  17.091   5.359 -0.2709  0.1121 -0.0794
21552W        W38026   3.929   8.104   0.969  0.1265  0.2727  0.0872
21553W        W38027   3.236  18.342   0.643 -0.0091  0.0393  0.3144
21554W        W38028  16.148  12.498  13.720 -0.0795  0.2579 -0.1912
21555W        W38029  15.250   7.443   3.853  0.3031  0.0070 -0.1786
21556W        W38030   7.508  14.591  13.824 -0.1390  0.3734  0.0050
21557W        W38031  10.555   4.821  10.653 -0.1258 -0.1466  0.4802
21558W        W38032  17.794  16.296  13.506 -0.3741  0.1538 -0.2822
21559W        W38033  14.279   0.816  11.884  0.1578  0.0442  0.3770
21560W        W38034  13.464  16.333   2.608  0.0537 -0.2400 -0.1228
21561W        W38035   3.341  16.259   4.592  0.1643  0.1625 -0.0049
21562W        W38036   9.621   7.484   0.890 -0.2000  0.0686  0.0062
21563W        W38037   8.539   5.165   1.062 -0.1092  0.2694 -0.1915
21564W        W38038  10.555   1.256   9.310  0.0368 -0.1280  0.0113
21565W        W38039   4.452  17.495   4.276 -0.1021 -0.2007  0.1327
21566W        W38040   3.319  16.700   3.141 -0.1697 -0.1890  0.1695
21567W        W38041   7.561   0.288   5.425 -0.2533  0.0762 -0.0533
21568W        W38042  11.391   5.283   0.364  0.1183 -0.0690 -0.3759
21569W        W38043   7.079   0.744   4.990 -0.1451  0.2547  0.1033
21570W        W38044   4.751  11.978  14.925 -0.0614 -0.0306 -0.2471
21571W        W38045   6.793   9.398  11.978 -0.5909 -0.2034 -0.2248
21572W        W38046  18.658  17.943  12.231 -0.3947 -0.3534  0.0884
21573W        W38047   4.680  11.961   3.031  0.3572  0.0578 -0.0908
21574W        W38048   7.791  10.613   0.487  0.0603  0.1361 -0.2401
21575W        W38049   6.191   8.625   5.200  0.0362  0.0905  0.0457
21576W        W38050   9.867   3.746   0.243  0.0216 -0.0943  0.1045
21577W        W38051   5.002   7.565  10.334  0.3144 -0.0056  0.1320
21578W        W38052   5.691   4.943  14.966  0.0178 -0.1231 -0.0820
21579W        W38053   9.623  19.150   4.773 -0.2030 -0.2707  0.1355
21580W        W38054  13.040   7.738   3.164  0.2905 -0.0966 -0.1563
21581W        W38055   2.464   0.361   1.387  0.1152  0.1803 -0.0029
21582W        W38056   9.038  11.278   4.181  0.0990 -0.0331 -0.1732
21583W        W38057  18.215  14.057   3.231  0.1008 -0.1430  0.0851
21584W        W38058   3.170   3.373   4.863  0.1422 -0.1171 -0.3006
21585W        W38059   2.936   5.899   0.850  0.1378 -0.1871 -0.2065
21586W        W38060  16.714   7.984  11.060  0.1536  0.1183 -0.0637
21587W        W38061   5.776  11.739   3.785 -0.2558  0.1103  0.1924
21588W        W38062  17.153   4.441  10.381  0.3132  0.1475 -0.2946
21589W        W38063   9.714  16.284   4.527  0.1669 -0.0743  0.1677
21590W        W38064   0.545  16.207  14.664 -0.3325  0.1180 -0.0125
21591W        W38065   7.619  10.950  12.679 -0.0395  0.0914  0.3151
21592W        W38066   2.891   5.218   2.827 -0.2795  0.1562  0.3889
21593W        W38067  12.952   8.266   4.102  0.0932 -0.1274  0.0389
21594W        W38068   3.086   7.522   9.354 -0.1962  0.2335 -0.0607
21595W        W38069   9.697  11.878  14.392 -0.0005 -0.3529  0.0260
21596W        W38070   9.105   1.126   4.340  0.1384  0.0423  0.0102
21597W        W38071   1.404  17.527   3.003  0.1327  0.0685 -0.1111
21598W        W38072  18.986  12.929   2.559 -0.0413  0.4381 -0.1810
21599W        W38073   6.747   0.437   2.449  0.3702  0.3517  0.4814
21600W        W38074   9.772   4.777   1.775  0.2071  0.2071 -0.3344
21601W        W38075   1.740   7.089   9.500  0.1762  0.3346  0.0363
21602W        W38076   6.968   5.707  14.415 -0.0183  0.0319 -0.2073
21603W        W38077  15.101  18.462   3.972 -0.0665 -0.1170 -0.1990
21604W        W38078   6.557  18.276   0.025 -0.1243 -0.0224 -0.0025
21605W        W38079   7.637   4.002   1.453  0.0489 -0.1299 -0.3803
21606W        W38080  10.310  18.417  12.072 -0.1761 -0.0316 -0.1333
21607W        W38081   1.485  13.370  10.654  0.0741  0.0613 -0.1255
21608W        W38082  11.474  10.478  13.928 -0.0452  0.1553 -0.2036
21609W        W38083   8.276   9.679   1.822 -0.2540 -0.2035 -0.2064
21610W        W38084   6.644  12.644  14.370  0.0846 -0.0962  0.2896
21611W        W38085  16.011   0.114   0.972 -0.1361  0.1307  0.0860
21612W        W38086  18.969  16.763  14.844 -0.1325  0.3048  0.0407
21613W        W38087  15.772   3.872   0.021  0.2063 -0.1738  0.1621
21614W        W38088   1.200   4.689  13.622  0.1317  0.3791 -0.0417
21615W        W38089   2.042  10.322  11.399 -0.0513 -0.1764 -0.1788
21616W        W38090  11.816   0.732  14.740 -0.1596  0.0740 -0.2518
21617W        W38091   9.206   4.658   4.098 -0.0264 -0.0952 -0.0103
21618W        W38092  13.432  16.683  10.771 -0.1570  0.0804 -0.0207
21619W        W38093  16.062  19.056   3.269 -0.2037 -0.0459 -0.0566
21620W        W38094   7.850   3.829   4.737 -0.0313  0.3156  0.1369
21621W        W38095   9.013   6.339  12.551 -0.1058  0.6535 -0.3828
21622W        W38096   3.718  18.402  11.537 -0.3018  0.1236 -0.1251
21623W        W38097  13.411  16.814   4.292  0.0024 -0.2083  0.2225
21624W        W38098   9.352  12.305  10.353  0.0205 -0.0497  0.1149
21625W        W38099   9.712  13.616   0.864  0.2248  0.1692 -0.1065
21626W        W38100   4.642   7.056   3.761  0.0385 -0.0640  0.0329
21627W        W38101  11.269  11.050   4.221  0.2568 -0.1454  0.0773
21628W        W38102  15.805  13.444  14.704  0.2997  0.0744 -0.0164
21629W        W38103   9.950   9.190  11.814 -0.1426  0.2403 -0.0745
21630W        W38104   5.190  11.621  13.402 -0.0068 -0.2626  0.1008
21631W        W38105   3.646   6.600   3.865 -0.3679  0.2416  0.5883
21632W        W38106  12.402   0.785   2.545 -0.1371  0.0295 -0.0395
21633W        W38107  12.280   7.303  12.278 -0.2485  0.0752 -0.0533
21634W        W38108   9.540  14.838  13.677 -0.1805  0.3209 -0.0163
21635W        W38109   5.692   6.120   3.745  0.0885 -0.0098  0.1139
21636W        W38110   1.074  17.919   0.706  0.0577 -0.0671 -0.1767
21637W        W38111   2.092  15.888   3.933  0.0895 -0.0320 -0.3291
21638W        W38112  16.387   1.165  12.639 -0.1917 -0.1934  0.0416
21639W        W38113  17.538   6.538  11.187  0.3051 -0.2703  0.3211
21640W        W38114   6.920  15.304  14.785 -0.1155 -0.0073  0.1023
21641W        W38115   4.695   7.957   3.295  0.0487  0.2973  0.1147
21642W        W38116  15.796   9.743  11.518  0.1112  0.1185  0.3470
21643W        W38117   9.058   2.441  12.785  0.3769  0.0288 -0.1427
21644W        W38118  11.685   9.520   1.635  0.1225 -0.0483  0.1859
21645W        W38119  12.673  10.345  14.416  0.1972  0.2060 -0.0158
21646W        W38120  15.567  16.535  14.224  0.2594  0.0676 -0.2567
21647W        W38121  16.684   5.779   5.217  0.2373  0.0404  0.0614
21648W        W38122   5.093   2.150  12.535 -0.0300  0.0354  0.0473
21649W        W38123   8.360   4.359  14.542 -0.1097 -0.3312  0.0869
21650W        W38124  10.874   0.154   3.405  0.2917 -0.1834  0.4495
21651W        W38125   2.127   0.870  13.244 -0.2122  0.0882  0.0184
21652W        W38126   3.060   0.918  12.211  0.1291 -0.0362  0.1551
21653W        W38127   5.451  12.596   2.313 -0.0854 -0.1523  0.0473
21654W        W38128   4.884  16.502   1.225 -0.1154  0.2179  0.2816
21655W        W38129   6.152   1.267   1.241 -0.5195  0.0705  0.0010
21656W        W38130  17.472  14.563  12.369  0.0439  0.1120  0.1639
21657W        W38131   9.540  10.644  10.902 -0.2417 -0.2506  0.0874
21658W        W38132  14.806  10.329  13.634 -0.0141  0.0366  0.0112
21659W        W38133   8.710  14.109  12.860 -0.2312 -0.0703 -0.1095
21660W        W38134  17.694  16.355   4.406 -0.0748  0.3184  0.0690
21661W        W38135   7.802   9.427   5.161 -0.2812 -0.0074  0.0598
21662W        W38136   6.042   3.426   1.980  0.1139 -0.4173 -0.0196
21663W        W38137   7.745  15.885   0.392 -0.0425 -0.0206  0.0894
21664W        W38138  18.347   4.684  13.032 -0.1505  0.1476 -0.0815
21665W        W38139  18.414  12.885   3.975 -0.0202  0.0364  0.0827
21666W        W38140   0.446   0.280  14.508 -0.0315 -0.0072  0.1239
21667W        W38141  12.649   4.806   4.727 -0.0816  0.4193 -0.1600
21668W        W38142  12.799   3.193  10.255 -0.0696  0.1347  0.0638
21669W        W38143  12.932   6.932   2.796  0.0078 -0.0200 -0.0853
21670W        W38144   4.945   7.546  12.007 -0.1078 -0.4590 -0.0560
21671W        W38145   7.770  17.085   0.861 -0.3778 -0.1013 -0.2023
21672W        W38146  18.084  16.008   1.000  0.1130  0.1178 -0.0314
21673W        W38147   1.655   6.299  13.955 -0.0680  0.0759  0.1474
21674W        W38148   7.486  10.237  12.336  0.1446  0.0255  0.2279
21675W        W38149   3.887   8.467  10.397  0.1926  0.1563  0.1239
21676W        W38150  12.908  15.125   2.770  0.0448 -0.1095  0.1007
21677W        W38151   5.775   0.624  13.473 -0.1677  0.4636 -0.0222
21678W        W38152  11.915   8.543   5.217  0.1454  0.0692 -0.1152
21679W        W38153  17.612   6.098   4.208 -0.0044 -0.3474 -0.0719
21680W        W38154   5.517  17.280  10.758 -0.0168 -0.1376 -0.1128
21681W        W38155   1.002   3.164   2.603  0.0372  0.1348  0.0404
21682W        W38156  18.931  14.809  13.040  0.0979 -0.0431 -0.1991
21683W        W38157   3.517  12.369   0.075 -0.0912  0.0825 -0.0384
21684W        W38158  17.146   6.444  11.448  0.0497 -0.0752 -0.0260
21685W        W38159  14.607  18.631  12.443  0.1283  0.0127 -0.4298
21686W        W38160   3.143  17.753   4.294 -0.3606  0.3314 -0.0320
21687W        W38161   3.966   6.901   3.643 -0.0728 -0.2869 -0.0423
21688W        W38162  16.625   1.684  13.771  0.0900 -0.2074  0.2854
21689W        W38163   1.423  18.449  12.727  0.0766  0.3495 -0.2327
21690W        W38164   5.443  11.655   2.580 -0.2016  0.0806 -0.1698
21691W        W38165  15.732   5.726  11.677  0.2400  0.1916  0.0388
21692W        W38166   9.889   7.244  13.118  0.0298 -0.2251 -0.0314
21693W        W38167  10.204   2.359   1.850  0.2341 -0.0840 -0.0384
21694W        W38168  19.121   9.461   1.214  0.5541  0.0318 -0.2524
21695W        W38169   1.718  17.125  13.654  0.2196  0.0739  0.1966
21696W        W38170  10.878   9.723  11.589 -0.3366  0.2323 -0.1534
21697W        W38171   0.260   4.735   0.744  0.1571 -0.1645 -0.0847
21698W        W38172  18.093   2.996  12.381 -0.0173 -0.1044  0.1624
21699W        W38173   6.370   4.669   1.057  0.2949 -0.0450  0.4956
21700W        W38174   3.233  15.209  15.037 -0.1986 -0.1933  0.0538
21701W        W38175   7.502   4.608  14.052 -0.0293  0.2474  0.1566
21702W        W38176   5.835  13.659   9.987 -0.1289 -0.4267 -0.1010
21703W        W38177   4.276  16.581  13.387  0.2532 -0.0469  0.0313
21704W        W38178  18.249   4.137   2.704  0.1277  0.1269  0.1222
21705W        W38179  10.686  10.935   5.987 -0.1116  0.2469  0.2516
21706W        W38180   8.481  11.997   1.992 -0.0803  0.1541  0.1706
21707W        W38181   6.197   8.820  12.247 -0.5109  0.3254  0.2558
21708W        W38182   5.639   6.649   2.141  0.1248  0.1578  0.1426
21709W        W38183  18.933   6.592   3.144  0.0472 -0.0908  0.1412
21710W        W38184   1.825  13.986   3.587  0.0460  0.0015  0.1535
21711W        W38185  15.058  13.289  11.319 -0.1133 -0.0286 -0.1140
21712W        W38186   8.585   6.001  11.586  0.3325 -0.0383  0.2741
21713W        W38187   9.023   6.443   3.673  0.1135 -0.0509  0.1759
21714W        W38188  17.727   0.884   1.440 -0.1342  0.4007 -0.3447
21715W        W38189   8.727  19.031   5.250  0.0620 -0.1118  0.1288
21716W        W38190  16.554   5.217  14.759 -0.3021 -0.0080 -0.2582
21717W        W38191  15.112   9.383   2.228  0.0215  0.0715  0.1369
21718W        W38192  10.837   6.859  13.010 -0.0320  0.0703  0.0101
21719W        W38193  11.303   3.578   5.225 -0.1496 -0.0329 -0.2221
21720W        W38194   0.453   6.557   2.663 -0.0770  0.2408  0.0003
21721W        W38195  16.968   4.981   1.864 -0.0327 -0.0722  0.1186
21722W        W38196  13.165   2.531   0.201  0.1321 -0.0455  0.2219
21723W        W38197   5.137  16.505   0.205 -0.1966 -0.1738 -0.0391
21724W        W38198  16.147  17.848  10.680  0.1702 -0.0355  0.0722
21725W        W38199  14.833   2.924  11.572  0.0040 -0.0637  0.1593
21726W        W38200  19.112  10.278   2.800  0.3412 -0.1113  0.0259
21727W        W38201   2.942   0.372   3.680 -0.1585 -0.1055 -0.3181
21728W        W38202  14.855   9.832   1.250 -0.1731  0.0782 -0.1095
21729W        W38203  14.696  13.871  13.617 -0.4185  0.1682 -0.1518
21730W        W38204  11.682  10.212   4.177  0.0327 -0.1183 -0.1673
21731W        W38205   8.705   0.635   0.547  0.0126 -0.2260  0.1197
21732W        W38206   3.456   7.610   3.603 -0.3798 -0.1514 -0.0358
21733W        W38207   7.833  13.019   5.272  0.2198 -0.1278  0.3537
21734W        W38208   5.625   4.559  14.604  0.2979 -0.3659  0.1249
21735W        W38209   7.522  18.311  14.167  0.0115 -0.1169 -0.2982
21736W        W38210   8.790  16.109  13.784  0.1036 -0.1321 -0.1641
21737W        W38211  18.380   4.251   0.386  0.3333  0.0894  0.0325
21738W        W38212   6.550  11.659  14.462  0.4206 -0.3885  0.3416
21739W        W38213  14.115  18.704   3.731  0.0766 -0.0463 -0.3080
21740W        W38214   3.975   3.782   0.189 -0.1611 -0.2880  0.4234
21741W        W38215  13.783  19.056  10.426  0.1502 -0.0631 -0.0256
21742W        W38216  15.070  16.015   1.842 -0.1124  0.1203 -0.0345
21743W        W38217  19.004  14.040  13.391  0.0411  0.1508 -0.2044
21744W        W38218   2.472  11.870  12.532  0.0733 -0.1543  0.0849
21745W        W38219   8.662  13.809   5.303  0.4338  0.0164 -0.0194
21746W        W38220   2.893   3.779   1.795  0.0406  0.1020  0.2509
21747W        W38221  12.488  13.294  10.095  0.1640 -0.1069 -0.0831
21748W        W38222  10.761   8.039  11.547 -0.0242  0.1985  0.1194
21749W        W38223   0.302  17.469   3.379  0.3758 -0.2229 -0.2824
21750W        W38224   9.104  12.071   4.649 -0.0061 -0.4477 -0.0113
21751W        W38225   4.843  15.423   1.359  0.1228  0.2394 -0.0462
21752W        W38226   6.175  10.350   0.529  0.1237  0.2344 -0.0105
21753W        W38227   4.995  15.102  12.226 -0.1337 -0.0753 -0.1077
21754W        W38228   2.032  11.129   3.393  0.3815  0.1214  0.1494
21755W        W38229   6.904  15.755   5.264  0.3810  0.1035 -0.1352
21756W        W38230  11.802  18.977   2.915  0.2824  0.0371 -0.3400
21757W        W38231  11.921   2.653  10.165  0.0194 -0.2614  0.0978
21758W        W38232  15.982  11.435   1.236  0.1378 -0.0353  0.0455
21759W        W38233  13.475  15.660   3.437 -0.1530  0.2375 -0.1064
21760W        W38234   0.375  16.713   4.612  0.1224 -0.0601 -0.1805
21761W        W38235   3.741   0.890  14.885  0.1171  0.2751 -0.2536
21762W        W38236   6.822  18.502  14.264  0.2048 -0.0842  0.2284
21763W        W38237   4.909  16.829  15.021  0.0335  0.0328  0.3371
21764W        W38238  13.867  12.041  11.975 -0.2072  0.0156 -0.1605
21765W        W38239   2.099   7.892  11.843  0.0595  0.2345  0.4326
21766W        W38240  12.263   1.518   9.948 -0.1224 -0.0395 -0.1004
21767W        W38241  12.259   8.532  14.299  0.1589  0.0693 -0.1750
21768W        W38242  10.071   3.197  13.267  0.0817 -0.1620 -0.0649
21769W        W38243  15.598  15.807   1.998  0.0583 -0.5974 -0.3710
21770W        W38244   5.891   3.294   1.390 -0.0631 -0.0138  0.0321
21771W        W38245  14.017  15.883   1.655 -0.0788 -0.0160  0.0561
21772W        W38246   0.752  14.965   4.686  0.0913 -0.3580 -0.0043
21773W        W38247   0.732  12.790  14.331 -0.2049  0.0731  0.0205
21774W        W38248  18.887  12.313  12.594 -0.1012  0.1645 -0.0937
21775W        W38249   7.763  10.483   3.640 -0.1889  0.0593 -0.2093
21776W        W38250   2.914   4.465  11.700  0.1984 -0.0306  0.2259
21777W        W38251  18.389   4.716  15.109 -0.1447  0.2327 -0.1799
21778W        W38252   9.038   0.475  13.826  0.0005  0.2349 -0.4719
21779W        W38253  11.867   9.553   4.914 -0.0531 -0.0277  0.0843
21780W        W38254   1.313  13.229   2.515 -0.3162 -0.1040  0.2431
21781W        W38255  17.586   2.119   4.301 -0.1255  0.2873 -0.1728
21782W        W38256   0.168  16.634   3.949  0.2993 -0.0648  0.2258
21783W        W38257  15.638   0.107  14.335  0.0874 -0.0791  0.0411
21784W        W38258  15.752   1.002  10.733 -0.1815 -0.0616  0.0844
21785W        W38259   7.436  16.848   1.178 -0.2615  0.1059 -0.3397
21786W        W38260   5.144   5.743   4.004 -0.0857  0.1941 -0.0845
21787W        W38261  18.475  12.755   0.790  0.0922 -0.0564  0.0435
21788W        W38262  14.932   7.019  10.929 -0.0178 -0.0461 -0.1753
21789W        W38263  13.968   4.464   1.303  0.2494  0.2475  0.1983
21790W        W38264  12.617   4.667  14.598 -0.1346 -0.0256 -0.1195
21791W        W38265  17.887  10.174   1.618 -0.0607  0.0692  0.2126
21792W        W38266  10.576   4.534   2.455  0.3122 -0.2035  0.2076
21793W        W38267   2.185   4.521   0.475 -0.0614 -0.1244  0.0198
21794W        W38268   5.825   5.977  14.595 -0.0740 -0.2666  0.0930
21795W        W38269   8.845   5.282  14.013  0.0483 -0.2288  0.2837
21796W        W38270   7.913   7.533   1.404  0.2163 -0.4582 -0.1611
21797W        W38271   8.859   9.057   4.698  0.1244  0.2508  0.0881
21798W        W38272   9.437  13.455   0.373 -0.1012  0.0481 -0.0901
21799W        W38273   9.771  11.246  11.765  0.1519  0.1283  0.1462
21800W        W38274   2.197  16.754  11.927  0.0592  0.0510 -0.3432
21801W        W38275   0.170  17.121  10.586  0.0292  0.1311 -0.0154
21802W        W38276  10.122  12.037   1.054 -0.0186 -0.3671  0.2485
21803W        W38277  16.296   8.015   3.492  0.0177 -0.0210  0.0011
21804W        W38278   2.200   3.189   2.640  0.0530 -0.1042 -0.1217
21805W        W38279   7.232  16.809   3.981 -0.0734 -0.0077 -0.0217
21806W        W38280  10.977   1.234   0.599  0.0601  0.1068 -0.0766
21807W        W38281  13.752   3.358  15.023 -0.1330 -0.2383  0.1553
21808W        W38282  16.982  16.345  10.796 -0.0910 -0.5135 -0.2100
21809W        W38283   4.505   9.835   1.645 -0.1473 -0.0076 -0.1292
21810W        W38284  16.754  15.109   4.512  0.0202 -0.0678  0.0669
21811W        W38285  17.206   6.784   3.540 -0.1237  0.2109  0.2809
21812W        W38286   2.743   9.008   1.267 -0.0287  0.4808  0.1997
21813W        W38287   1.384  16.749  12.741 -0.0535  0.1974 -0.5207
21814W        W38288   1.108   3.957   1.888 -0.0007 -0.0703 -0.2110
21815W        W38289  17.743  18.147   4.881 -0.2804  0.1831 -0.0321
21816W        W38290  10.805  17.609   9.604 -0.1630  0.0522 -0.0920
21817W        W38291   8.802   4.303  10.481  0.1196  0.0721  0.1882
21818W        W38292   4.927   8.422  12.940 -0.1292 -0.0874  0.0482
21819W        W38293  15.387  13.142   0.085 -0.3239 -0.0740  0.1715
21820W        W38294  17.292  10.617   0.658  0.0722  0.1982  0.1340
21821W        W38295   9.668  14.538  14.560  0.1684 -0.0743 -0.1567
21822W        W38296  12.150   9.253  12.569  0.4534 -0.2600 -0.0889
21823W        W38297  11.417   5.905   4.302 -0.2136  0.0403 -0.0862
21824W        W38298  11.395   2.197   4.298  0.5272  0.2226 -0.1108
21825W        W38299  10.061  12.629   5.340 -0.1405 -0.0427 -0.0388
21826W        W38300  18.546   1.818  12.423 -0.0801  0.2485  0.0328
21827W        W38301   4.363   3.503   1.392  0.4884  0.0332 -0.3539
21828W        W38302  11.084  14.433  14.092  0.0629  0.3369  0.1104
21829W        W38303  11.489  13.568  13.778  0.0382 -0.3559  0.2794
21830W        W38304   3.394  10.817   3.272  0.2454  0.1423  0.0134
21831W        W38305  18.220  16.611  12.593 -0.3425 -0.0382  0.0049
21832W        W38306  14.605   6.608   2.984  0.1877  0.3766  0.0464
21833W        W38307  15.921   4.568  11.060  0.0978 -0.0593  0.1317
21834W        W38308  13.872  12.221   0.499  0.0315  0.0844 -0.1864
21835W        W38309   2.090   1.885   3.544  0.1886  0.0790 -0.0347
21836W        W38310  10.716   0.180  13.500 -0.0393  0.1910 -0.0445
21837W        W38311  18.884  16.771  11.302  0.0108  0.2020 -0.0930
21838W        W38312   0.255   0.140   1.058 -0.1828 -0.0829  0.0624
21839W        W38313  12.116  18.324  10.268 -0.1501 -0.0926 -0.1066
21840W        W38314   8.832  15.647  13.999 -0.0299  0.0309  0.0057
21841W        W38315  13.067   0.320   1.415 -0.0626 -0.0675 -0.0594
21842W        W38316  12.043  12.744   3.814  0.1107 -0.2025 -0.0224
21843W        W38317  12.776  17.670   2.789  0.1931 -0.0889  0.0367
21844W        W38318   4.431  18.111   4.371  0.1528  0.1849  0.2398
21845W        W38319  11.181   9.564   0.815  0.1044 -0.1594 -0.0636
21846W        W38320   6.561  16.350   3.571  0.1461  0.1370 -0.0247
21847W        W38321   5.619  12.208  14.411  0.0854 -0.2600 -0.1606
21848W        W38322   0.102   9.967  10.507  0.1278 -0.0892 -0.0088
21849W        W38323  16.467   2.632  14.024  0.0773 -0.2848  0.0600
21850W        W38324   1.865   4.510  14.388  0.0209 -0.4435  0.1234
21851W        W38325  15.816  16.207  14.516  0.1474  0.2516 -0.1689
21852W        W38326   8.701   1.166   0.598 -0.0200 -0.1180 -0.2861
21853W        W38327  13.518   7.689   3.530  0.1402 -0.0457 -0.2447
21854W        W38328  17.494  14.883  12.029 -0.1108  0.0595  0.2812
21855W        W38329   9.274   0.021   3.928 -0.0479  0.0695  0.0399
21856W        W38330  17.817   2.081  14.588 -0.2200  0.0183 -0.0688
21857W        W38331  17.395   5.621   4.308  0.5466 -0.0903  0.1624
21858W        W38332   0.183   6.467   1.341  0.1330 -0.3796 -0.1612
21859W        W38333  11.855   9.299  13.989 -0.0148  0.0307 -0.1745
21860W        W38334  12.780   6.570  12.770  0.1352  0.2582 -0.0311
21861W        W38335   6.731   6.859  13.366 -0.1334 -0.1889  0.2362
21862W        W38336   2.650   6.931   9.796  0.0783 -0.0913 -0.1092
21863W        W38337   2.183   3.164   4.853 -0.0585  0.1705 -0.0131
21864W        W38338   9.742   5.880  14.490  0.1671 -0.0887  0.0921
21865W        W38339  17.953   2.692   2.826  0.1320 -0.1365  0.0113
21866W        W38340   4.491   7.098   2.307  0.0909 -0.0456  0.4049
21867W        W38341   9.537  16.232  12.370  0.1579 -0.0170 -0.0318
21868W        W38342  15.273  18.214  11.561  0.1847  0.0660 -0.1008
21869W        W38343   7.940  14.673  12.008 -0.0875  0.3670 -0.4229
21870W        W38344   9.963   1.002   1.642 -0.2046  0.0198  0.1558
21871W        W38345   3.572  12.117   2.350 -0.2541  0.0014  0.3659
21872W        W38346   7.890   5.724  14.464  0.2454 -0.4019  0.2365
21873W        W38347  13.091   2.292  13.819  0.1565  0.0374 -0.0523
21874W        W38348   8.431   8.573  12.635  0.0051  0.0054  0.1357
21875W        W38349   4.081   5.348   0.925  0.3781 -0.1215 -0.1697
21876W        W38350   0.597  16.847   1.009  0.0834  0.1247 -0.0496
21877W        W38351  14.342   1.228  14.985 -0.1542 -0.1267  0.1292
21878W        W38352   0.830   7.304  14.990 -0.0564 -0.2329 -0.2164
21879W        W38353  18.553  13.167   0.487 -0.0558 -0.1156  0.2281
21880W        W38354  10.303  12.099   2.511  0.0485  0.0992  0.1109
21881W        W38355   5.236  17.967  13.506 -0.1044  0.2118 -0.0387
21882W        W38356   0.753   7.316   4.815 -0.2170 -0.0341  0.0918
21883W        W38357  16.118  13.577  10.699  0.1563  0.1359  0.1781
21884W        W38358   5.900   5.670  14.208  0.0510 -0.0382 -0.0447
21885W        W38359   2.133  11.709   1.115  0.2766 -0.2209  0.1777
21886W        W38360   0.769   0.674  12.679  0.0736  0.2621 -0.2188
21887W        W38361  14.528  13.686   3.733 -0.1501  0.1080 -0.0578
21888W        W38362   9.353   1.952  11.925 -0.7207  0.1593 -0.3018
21889W        W38363  10.940   8.212  14.678 -0.0769 -0.1034  0.0990
21890W        W38364   3.598  12.872   2.502 -0.1366  0.0246 -0.2846
21891W        W38365   8.071  12.040   1.685  0.2613 -0.0029 -0.2670
21892W        W38366   5.687  11.741   3.026 -0.4927  0.1517  0.1232
21893W        W38367   4.016  17.290  11.727 -0.0306 -0.1583 -0.1301
21894W        W38368   2.877   9.639   0.019 -0.2720 -0.2084  0.0681
21895W        W38369   5.884   2.396   2.725 -0.1599  0.1768 -0.1888
21896W        W38370  17.979   5.472  12.467  0.3405  0.1082 -0.1164
21897W        W38371   5.330  16.575   2.573  0.1960  0.0370  0.2819
21898W        W38372   7.963   5.763   1.375  0.3244  0.0616 -0.0504
21899W        W38373  12.357   8.978  11.509 -0.0795  0.1799  0.1940
21900W        W38374  13.769  18.350   3.805  0.5691 -0.0896  0.0869
21901W        W38375   3.769  18.296  12.305 -0.0937 -0.1572 -0.3141
21902W        W38376   4.132   1.137   2.409 -0.1494 -0.1060 -0.0207
21903W        W38377  17.225  10.784  10.883  0.0629 -0.2584 -0.1837
21904W        W38378  11.854   5.178   4.826 -0.2474 -0.1300  0.2777
21905W        W38379  12.530  18.623  10.307 -0.1326 -0.3823 -0.0099
21906W        W38380   1.708  10.606  11.759 -0.3651  0.0331  0.1150
21907W        W38381   4.695   3.864   4.635  0.0213 -0.1554  0.1441
21908W        W38382  17.305  17.261   4.891  0.0825 -0.1249  0.3332
21909W        W38383  16.077  11.650  12.196  0.0030  0.0684  0.1239
21910W        W38384   3.160  18.061   1.820  0.0980 -0.4031  0.2526
21911W        W38385   0.026   6.197   9.314  0.1576 -0.0295  0.1010
21912W        W38386   5.938   3.059   2.349 -0.2247  0.1531 -0.1476
21913W        W38387  17.236  13.563  11.942  0.1690  0.0296  0.0470
21914W        W38388  15.411  12.790   1.548 -0.0729  0.1320 -0.1155
21915W        W38389   5.824  15.051  11.399  0.3871 -0.0012  0.0763
21916W        W38390   0.137   0.036  14.166  0.1250 -0.0694 -0.0302
21917W        W38391   0.835   7.442   2.525 -0.0090  0.0364 -0.0292
21918W        W38392  11.204   9.560   1.455 -0.0691 -0.3359  0.0961
21919W        W38393  17.633  15.247   3.732 -0.2300 -0.2914  0.1968
21920W        W38394   6.957   6.462   0.362  0.1360 -0.1343 -0.0457
21921W        W38395   7.606   6.780  11.048 -0.2745  0.0594 -0.1209
21922W        W38396   6.297   1.437  13.576  0.0581  0.1150 -0.3325
21923W        W38397  18.465   2.335  10.925 -0.1533 -0.1690 -0.4224
21924W        W38398   9.864  10.309   0.782 -0.0578  0.1655 -0.0340
21925W        W38399   7.332  11.212   1.146 -0.0907  0.2706  0.0899
21926W        W38400  15.576  12.141  12.833 -0.0159  0.2626 -0.0385
21927W        W38401   8.030   4.341  13.140 -0.0872 -0.3524  0.1867
21928W        W38402   3.019   7.429   0.463 -0.3783  0.1428  0.2398
21929W        W38403   9.050  13.575  14.464 -0.0016  0.1479  0.0391
21930W        W38404   0.453   9.931   0.190 -0.2492  0.2058  0.0617
21931W        W38405  16.448   8.387   3.801  0.3257  0.0764  0.3153
21932W        W38406  12.551  15.405   1.867 -0.2968  0.0357 -0.1355
21933W        W38407  17.550   5.260  12.702 -0.3065  0.1990  0.3990
21934W        W38408   1.496   7.986  14.686  0.0094  0.2478 -0.0913
21935W        W38409   3.600   6.785   0.297  0.1522  0.0314  0.2620
21936W        W38410  17.442  10.066   0.805  0.1511  0.1060  0.2433
21937W        W38411  13.425   9.899   2.800  0.0578 -0.1949  0.0940
21938W        W38412   4.127   6.765  13.647 -0.0189 -0.4774 -0.3034
21939W        W38413   6.012   9.851   4.016 -0.1915 -0.0441  0.1073
21940W        W38414   5.140   5.114   2.470  0.1521  0.0276  0.0791
21941W        W38415   9.292   9.630  13.820  0.0770 -0.2593  0.0627
21942W        W38416  12.495   8.683   1.202  0.0603  0.0084 -0.1804
21943W        W38417   1.251   2.205  12.211  0.2585  0.3493 -0.0347
21944W        W38418  10.825  11.337   4.746  0.0269  0.0852  0.1831
21945W        W38419   7.945   8.375   2.768  0.0658 -0.1488 -0.1657
21946W        W38420  10.179  10.625  12.562  0.1817 -0.0899  0.2580
21947W        W38421   5.941   6.396   3.392 -0.0460 -0.1734  0.0691
21948W        W38422   1.716   1.950  14.388  0.2617  0.1140 -0.0558
21949W        W38423  11.003  14.550   2.349 -0.0670  0.1439 -0.3123
21950W        W38424  14.467   4.796   4.747  0.1053 -0.0004  0.3328
21951W        W38425  13.478  15.176   3.355  0.1790  0.1883 -0.0008
21952W        W38426   6.740   8.666  13.566  0.3221  0.3959  0.2379
21953W        W38427   2.514   1.690   3.595 -0.2376  0.0701 -0.0212
21954W        W38428   5.914   8.359   1.263 -0.1209  0.1135 -0.0719
21955W        W38429  18.584  12.290  14.592  0.1373  0.1579 -0.0034
21956W        W38430  17.976  18.333   3.383 -0.2155  0.1082 -0.0523
21957W        W38431  16.510  16.020  11.491  0.1190 -0.1672 -0.0303
21958W        W38432  11.952   8.674  11.211  0.0163 -0.2786  0.0552
21959W        W38433   8.267   6.144   0.756 -0.0201  0.3242 -0.2150
21960W        W38434   1.541   8.921   2.157 -0.1847 -0.4897  0.1493
21961W        W38435   5.706  14.978  12.717  0.0808 -0.1699  0.1508
21962W        W38436   4.031   3.244  13.515 -0.1374  0.3042 -0.0599
21963W        W38437  10.498  10.797  14.236  0.0846 -0.0654 -0.0479
21964W        W38438  14.116   0.092   4.057 -0.0406  0.1310  0.0414
21965W        W38439   2.188   7.546  13.608  0.2634  0.0223 -0.0385
21966W        W38440   2.350   9.389   2.522 -0.0207 -0.1217  0.0598
21967W        W38441   1.595  14.999  11.398 -0.0926  0.3984 -0.1078
21968W        W38442   0.940  12.462  12.264  0.3482 -0.2022  0.0234
21969W        W38443   7.825   4.971   2.329 -0.0144 -0.1728  0.0006
21970W        W38444   4.975  11.215  11.484 -0.2784  0.0397 -0.1469
21971W        W38445  10.663  16.175  15.043 -0.1087 -0.1873  0.2308
21972W        W38446  14.604  12.374   5.903 -0.1557  0.1261  0.1982
21973W        W38447  15.643   1.241  13.518 -0.2320 -0.3604  0.0740
21974W        W38448   2.572   5.112  14.118 -0.2586  0.2137 -0.0567
21975W        W38449   3.374   2.601   0.489  0.0538  0.1333  0.3671
21976W        W38450   7.122  12.041   3.750 -0.2580 -0.2161  0.3649
21977W        W38451  15.024  13.887   4.895 -0.1217 -0.0297 -0.2611
21978W        W38452  18.364  11.794  10.615 -0.3824  0.2826  0.1105
21979W        W38453  19.038   9.973   2.387  0.0829 -0.1149 -0.1530
21980W        W38454  10.706   0.412   3.856  0.0217  0.2500  0.1798
21981W        W38455   9.150   5.008  10.114 -0.0431 -0.0243  0.0534
21982W        W38456  10.862   9.613   0.339  0.2241 -0.0005 -0.0251
21983W        W38457   8.595  17.980  13.083  0.0745 -0.1581 -0.3227
21984W        W38458   0.334  16.963   2.043 -0.3800 -0.2816  0.0488
21985W        W38459  13.229  14.542  14.835  0.0934 -0.0994 -0.0155
21986W        W38460   5.664  13.668   3.948  0.2283  0.0608  0.0775
21987W        W38461   1.688  13.438  12.441  0.5310  0.2016  0.0414
21988W        W38462   1.964  14.201   4.372 -0.0875  0.0744 -0.1235
21989W        W38463   9.461  10.394  11.348  0.2483 -0.2495 -0.3062
21990W        W38464  12.872  14.723   4.385 -0.2373  0.2262 -0.2632
21991W        W38465   9.848  10.905   3.068  0.3496 -0.3839 -0.0578
21992W        W38466   4.377   1.434   4.623  0.0940 -0.0446 -0.0118
21993W        W38467   3.149   6.535  14.206  0.1915 -0.1979 -0.0209
21994W        W38468   0.205   9.068  13.956 -0.1944 -0.1896  0.0192
21995W        W38469   9.610   9.989   4.234  0.3849 -0.0096  0.3319
21996W        W38470  14.713   2.279   1.922  0.1230 -0.0570  0.2659
21997W        W38471  10.960   5.835   0.579 -0.2672 -0.1030  0.1618
21998W        W38472  18.621   2.013  11.412  0.1310 -0.0555  0.0800
21999W        W38473   5.309   7.856  14.636  0.0160 -0.3439 -0.1012
22000W        W38474   1.827   2.857  11.050 -0.0408 -0.0961  0.1347
22001W        W38475   1.333   3.655   0.829 -0.1257 -0.0634  0.1020
22002W        W38476   8.796   2.320   0.568  0.0346  0.1425  0.0400
22003W        W38477   1.711   5.870   2.560 -0.0221  0.0299  0.1782
22004W        W38478  17.911  10.886   9.711 -0.0430  0.0610  0.1841
22005W        W38479  10.195   1.300   4.724  0.2802  0.0117 -0.0749
22006W        W38480   8.860  15.482   1.440 -0.0753 -0.2874 -0.0339
22007W        W38481   7.555   8.314   2.354  0.0850 -0.1335  0.1125
22008W        W38482  19.087   3.504  13.186  0.3347 -0.1673 -0.1967
22009W        W38483   9.107   7.890  13.815 -0.2284 -0.0044  0.4295
22010W        W38484  16.968   1.618   4.188  0.1010  0.1023 -0.1120
22011W        W38485  12.485  18.283   9.898  0.0836 -0.1719 -0.0432
22012W        W38486   2.202   3.727  10.331  0.3163  0.1026  0.0603
22013W        W38487   4.899  12.702   2.368  0.0843  0.0961 -0.2034
22014W        W38488  12.301  17.509   2.524 -0.1704  0.2242  0.1553
22015W        W38489   0.637  15.626  11.622 -0.2003 -0.0110  0.2141
22016W        W38490  18.242  16.000   3.056  0.0953 -0.0137 -0.2842
22017W        W38491   1.876  10.865  10.573  0.2608 -0.0473  0.0070
22018W        W38492  12.645   9.561   4.523  0.4077  0.0640  0.0532
22019W        W38493  18.905  15.807  13.975  0.0051 -0.0493  0.2208
22020W        W38494  12.849   2.774   1.885 -0.0604 -0.0884 -0.1790
22021W        W38495  15.435   9.567   1.926 -0.1387  0.0892  0.1116
22022W        W38496  16.051   7.632   1.542  0.1850 -0.2488 -0.0260
22023W        W38497  16.912   4.643   3.398 -0.0658 -0.1881 -0.0022
22024W        W38498  17.803  10.383  11.445  0.0700 -0.0777 -0.1556
22025W        W38499   9.884   1.386  11.180  0.2824  0.0890  0.1010
22026W        W38500  15.351  16.471   4.061  0.4161  0.0352  0.1600
22027W        W38501   0.426  14.020  11.242  0.2822  0.2094 -0.0347
22028W        W38502   0.512   5.726  12.013  0.0048 -0.0722 -0.1323
22029W        W38503   1.084  10.948   3.331 -0.3925  0.4864 -0.4615
22030W        W38504  16.354   7.806   1.161  0.0762  0.2181 -0.1521
22031W        W38505  11.477  17.783   3.683 -0.0842  0.2056 -0.0776
22032W        W38506   4.160   0.180  12.098 -0.1452  0.2221 -0.0933
22033W        W38507  13.501   9.386   0.689  0.0125  0.2224  0.0451
22034W        W38508   8.668  18.171  11.548  0.0698 -0.1089 -0.1060
22035W        W38509  13.303  15.348  13.823 -0.1393  0.3039  0.0826
22036W        W38510   3.306   7.033   0.680  0.0326  0.0034  0.0407
22037W        W38511  14.461  10.775  12.454 -0.4145  0.0775 -0.2073
22038W        W38512  10.955   0.521  13.963  0.1580  0.0217 -0.0364
22039W        W38513   1.040  18.242   4.840  0.0220  0.2791  0.2046
22040W        W38514  16.948  16.266   2.813 -0.0823  0.0024 -0.3167
22041W        W38515  12.997   7.546  13.585 -0.1558  0.3146 -0.1357
22042W        W38516   2.018  17.259   2.796 -0.1053  0.0594 -0.1288
22043W        W38517  18.251  10.666  14.597 -0.0547  0.3526  0.2437
22044W        W38518   7.581   2.010   5.451 -0.1855 -0.1539  0.0466
22045W        W38519   8.325   3.571   0.267 -0.1541 -0.0156  0.0934
22046W        W38520   2.301  10.764  13.373 -0.2373  0.2526  0.1664
22047W        W38521   8.676   5.031  11.325  0.0705  0.0695  0.1473
22048W        W38522  18.563   2.901  14.249 -0.1400  0.3114 -0.2362
22049W        W38523   6.084   0.236   1.072 -0.0281  0.0773 -0.1671
22050W        W38524  13.619  17.993  14.320  0.1552  0.1978 -0.1037
22051W        W38525   9.673  18.834  12.598 -0.1510 -0.2624 -0.4047
22052W        W38526  10.157  16.228  12.640  0.1218  0.0954 -0.1004
22053W        W38527   7.862   8.101   3.879  0.0610 -0.2936  0.0331
22054W        W38528   0.571  17.992   0.528  0.0865  0.3709 -0.1090
22055W        W38529   2.544   7.285  10.295  0.2590 -0.0922 -0.3993
22056W        W38530  15.031   1.721   0.066  0.3075  0.3361 -0.3103
22057W        W38531   3.539  13.284  11.727 -0.0394 -0.0452  0.3016
22058W        W38532  12.700  15.828  13.091  0.4293  0.1769 -0.0068
22059W        W38533   1.034  12.788   2.990  0.4192  0.0956 -0.0447
22060W        W38534   1.382   0.886  11.966  0.0346 -0.2575  0.1121
22061W        W38535  10.436  18.237  12.526  0.1601  0.0687  0.0736
22062W        W38536  18.454  16.305   2.761  0.0326 -0.1113  0.1407
22063W        W38537  13.012   5.905  11.026 -0.1435  0.1770  0.1551
22064W        W38538   3.074   9.475  11.938 -0.0989 -0.0239 -0.1086
22065W        W38539   4.826  12.139   2.583 -0.0918  0.1926 -0.0302
22066W        W38540  12.510  10.316   0.406 -0.1184 -0.0559 -0.0590
22067W        W38541   7.635   7.581   1.830 -0.2773  0.0478 -0.1128
22068W        W38542   2.211  13.974  10.917 -0.3040  0.1523 -0.2987
22069W        W38543   8.221  17.880   4.761  0.1669  0.3356  0.0372
22070W        W38544   4.672  18.800  10.783 -0.0502  0.1346  0.0354
22071W        W38545   7.305  16.432  10.597  0.1181 -0.0377 -0.1393
22072W        W38546  10.161   0.148   4.572  0.1753 -0.4289 -0.0297
22073W        W38547   3.600   1.941   3.511 -0.2061 -0.2062  0.2969
22074W        W38548  15.053  12.809  15.044  0.1710 -0.1499 -0.3457
22075W        W38549   4.931   2.410  13.981  0.0758  0.4457  0.2020
22076W        W38550  16.492   7.577  13.150  0.0268  0.1109 -0.2194
22077W        W38551   8.626  18.071   4.494  0.2142  0.0800 -0.0389
22078W        W38552  10.468  14.975   4.557  0.0109 -0.3998  0.0432
22079W        W38553  16.542   0.802   0.911 -0.0532  0.3658 -0.0793
22080W        W38554   6.951   9.026  13.274 -0.0463  0.2323  0.1612
22081W        W38555  16.068   9.272  14.189 -0.0789  0.0528 -0.1243
22082W        W38556   0.701  12.252  14.982  0.3020 -0.1937 -0.0033
22083W        W38557  10.510   4.549  14.663  0.1281 -0.0383 -0.1278
22084W        W38558  18.572   3.408  12.124 -0.1494  0.0750  0.0006
22085W        W38559  17.718   2.622  12.045 -0.1197 -0.0503 -0.0045
22086W        W38560   4.164   1.044   4.218  0.1796 -0.0149 -0.0432
22087W        W38561  18.989   2.260  11.758  0.0923 -0.2361 -0.1463
22088W        W38562   3.567  18.508  13.720  0.0184  0.3442  0.0700
22089W        W38563  17.978  13.109   4.694 -0.1468 -0.0584  0.3454
22090W        W38564  13.320  13.402   5.315 -0.0850  0.1488 -0.0435
22091W        W38565   7.682  13.200  13.616  0.0515  0.0185 -0.2047
22092W        W38566   8.266  13.327  11.348  0.2504  0.0383  0.2552
22093W        W38567  14.748   8.035   1.744 -0.2295 -0.0046 -0.2392
22094W        W38568   7.070  18.054  13.430  0.0193 -0.0222  0.0148
22095W        W38569  17.215   0.836  10.731 -0.3775 -0.3903  0.1204
22096W        W38570  10.299   0.759   4.715 -0.2417 -0.3162 -0.1640
22097W        W38571   0.903   4.391   4.336 -0.4081  0.2670 -0.1193
22098W        W38572   2.911  13.189   1.410 -0.2271 -0.0070  0.0246
22099W        W38573  11.897   1.214  10.131  0.3078 -0.0715 -0.1039
22100W        W38574  14.682   1.373  14.614 -0.2044 -0.1626 -0.1949
22101W        W38575  18.906   4.565   3.605  0.0852  0.0269  0.0834
22102W        W38576   9.370  12.551  13.592 -0.0727 -0.2574 -0.0216
22103W        W38577   8.051   8.069  11.953 -0.0759 -0.4789  0.0939
22104W        W38578   5.209   7.891  12.252  0.2385 -0.0394  0.1402
22105W        W38579  16.518  17.290   9.873 -0.2265  0.2329 -0.1417
22106W        W38580  16.385  12.565  13.130 -0.1206 -0.1734  0.0218
22107W        W38581   2.789   5.085   3.308  0.3143 -0.1244 -0.2284
22108W        W38582   5.178   3.610  10.934 -0.0095  0.1476 -0.2826
22109W        W38583  17.808  14.294   3.582 -0.0771 -0.1055 -0.3918
22110W        W38584   0.170  13.240  11.022 -0.3567 -0.1139  0.4100
22111W        W38585  17.442  11.380  11.735 -0.1726 -0.1250 -0.0413
22112W        W38586   2.906   3.432  12.353 -0.0805  0.0756 -0.1637
22113W        W38587  17.052  11.216  13.954 -0.0793  0.1696  0.3508
22114W        W38588   4.044   4.330  13.151 -0.2972 -0.1884 -0.1443
22115W        W38589   6.074  15.077  15.124  0.0889 -0.1717  0.3623
22116W        W38590   7.263  18.377  11.541  0.2684 -0.0364 -0.0050
22117W        W38591   0.074   8.415  12.471 -0.2596  0.1168  0.1394
22118W        W38592  16.779   3.404   3.461  0.0212 -0.1654 -0.4550
22119W        W38593  12.883  10.305   0.958 -0.0648  0.1128  0.1612
22120W        W38594  12.699   9.409   2.374 -0.0445 -0.2204 -0.1722
22121W        W38595   1.505  13.853  12.674 -0.0669 -0.3136 -0.2298
22122W        W38596   9.713  10.686  12.328  0.1571 -0.4764  0.0488
22123W        W38597  18.436   1.623   3.403 -0.0276  0.0760 -0.1225
22124W        W38598   0.491  14.280  13.619  0.0581 -0.0114  0.0225
22125W        W38599   8.800   1.977   4.021 -0.2584 -0.1372  0.0619
22126W        W38600   7.663  18.997  13.692  0.2312  0.2480  0.0176
22127W        W38601  14.423   2.034   4.704 -0.0101  0.1480 -0.1735
22128W        W38602   8.421  13.246  12.950 -0.4004  0.3551 -0.1760
22129W        W38603   3.601   8.300   1.431  0.3062  0.3151  0.1028
22130W        W38604  15.679  13.746   1.518 -0.0024  0.5225  0.2791
22131W        W38605   2.044  14.526  13.312  0.0723 -0.1386  0.0364
22132W        W38606  14.704  14.798  11.559 -0.3684 -0.3517 -0.0737
22133W        W38607   4.881   3.334  13.079 -0.0911 -0.1784  0.3344
22134W        W38608   8.951  15.882   0.996  0.3415  0.2268 -0.1130
22135W        W38609  12.737   8.087   0.820 -0.2297  0.1841 -0.0703
22136W        W38610   1.056   4.230   2.328 -0.0057  0.0238  0.2943
22137W        W38611   9.521  18.434   0.108  0.2332  0.0678  0.1019
22138W        W38612   7.034  18.840  12.264 -0.0651  0.2145  0.2109
22139W        W38613   5.713   6.234  14.139 -0.1284  0.3183 -0.1947
22140W        W38614  10.891   1.798   2.076  0.1153 -0.0056  0.1531
22141W        W38615  10.001   5.297   0.514 -0.0116 -0.2353  0.0184
22142W        W38616  10.396  12.923  12.578 -0.0728 -0.0954 -0.1717
22143W        W38617   7.884  17.622   2.920 -0.1835  0.4063  0.2955
22144W        W38618   6.544   6.831  11.308  0.0214  0.0548  0.0108
22145W        W38619  11.352   7.161  12.173 -0.0066 -0.0963  0.0901
22146W        W38620  12.329  16.050   1.652  0.0506  0.3046  0.2250
22147W        W38621   1.670   0.449  14.080 -0.0830 -0.0502 -0.0685
22148W        W38622   0.622   0.203   0.142 -0.0139  0.2274  0.1484
22149W        W38623   6.357   1.758  11.745 -0.1616 -0.0433 -0.1331
22150W        W38624   5.153  13.118   4.896  0.0189 -0.1725 -0.1945
22151W        W38625   2.385  18.110  10.692 -0.2112 -0.0646  0.2454
22152W        W38626   7.272  18.807  13.886  0.2462  0.1316  0.0956
22153W        W38627   1.484   1.546   4.223  0.2866  0.1354 -0.2128
22154W        W38628  16.784  18.634  11.341 -0.0251 -0.2744  0.1770
22155W        W38629  15.218  11.834  13.014  0.0135 -0.4380  0.0399
22156W        W38630  10.925   0.116   1.384 -0.0892  0.1988  0.3499
22157W        W38631   4.778   5.150  13.123 -0.1705 -0.2480 -0.2887
22158W        W38632   0.774   9.410   2.448 -0.0013  0.0174 -0.0585
22159W        W38633  15.506   6.889  13.326  0.0296  0.3653 -0.0658
22160W        W38634  13.519   0.828   4.925  0.2339  0.0199 -0.2866
22161W        W38635  15.669  16.144   2.633 -0.1233  0.0587  0.0743
22162W        W38636  13.376   6.396  13.969 -0.0634  0.0448  0.0380
22163W        W38637  11.016   5.238  12.911 -0.0308 -0.1531  0.2948
22164W        W38638   5.696  13.770   4.452  0.0377 -0.0207 -0.2489
22165W        W38639  10.517   9.791   4.412  0.0407  0.1059 -0.1050
22166W        W38640  16.429   5.121   2.157  0.3319  0.0546 -0.0490
22167W        W38641  11.837   2.421  13.132  0.2171 -0.0989 -0.0101
22168W        W38642   9.724  12.942  12.978  0.2532  0.0476 -0.3049
22169W        W38643  17.675   8.487  13.907  0.2572  0.3862  0.2242
22170W        W38644   1.885   2.995   1.450  0.1110  0.2646  0.2694
22171W        W38645   3.086  16.133  14.103  0.3176  0.0964  0.0611
22172W        W38646   0.334   8.213   3.988  0.1795 -0.0835 -0.0538
22173W        W38647   3.624   4.006   1.538  0.1457 -0.1824 -0.3307
22174W        W38648   6.966   7.129  14.970  0.0094  0.0675  0.1408
22175W        W38649   3.045  16.218  12.158 -0.1193 -0.2633 -0.1354
22176W        W38650  11.609  12.574   0.508 -0.3120 -0.0791 -0.0332
22177W        W38651  15.916  15.761   0.287 -0.0790  0.1161  0.2300
22178W        W38652   6.387   3.290  14.314 -0.0985  0.0297  0.1071
22179W        W38653  15.547  17.263   2.762  0.2011 -0.0048 -0.0497
22180W        W38654  14.289   1.667   3.885 -0.0582 -0.2337  0.0291
22181W        W38655   0.290  10.325  10.908 -0.1796  0.2478  0.2267
22182W        W38656   2.418  10.654   2.506 -0.1194 -0.0055  0.1467
22183W        W38657   6.942   0.092  12.530 -0.0903  0.1071 -0.2846
22184W        W38658  16.541   8.897   0.580 -0.2504  0.2500  0.1727
22185W        W38659   1.943   4.519  12.279 -0.1378  0.0125  0.0674
22186W        W38660   0.085   2.356  11.264 -0.0388  0.0265 -0.2311
22187W        W38661  13.306   1.417  10.009 -0.3539  0.0539 -0.2040
22188W        W38662  11.356  13.891   1.028 -0.1697  0.1064 -0.3954
22189W        W38663   6.643  19.137   5.655  0.1162 -0.2568 -0.1880
22190W        W38664  15.000  15.188   4.263  0.1640 -0.1616  0.0418
22191W        W38665   9.590  12.884  12.515 -0.0174 -0.0285 -0.0427
22192W        W38666   6.724  16.229   3.068 -0.2340  0.1979  0.0770
22193W        W38667   5.441   2.373  14.099 -0.1038  0.0416 -0.0526
22194W        W38668  17.939  15.590  12.844 -0.4397  0.0018 -0.0413
22195W        W38669   1.391  10.711   3.852 -0.0281  0.3208  0.2667
22196W        W38670  12.846   9.654  10.871 -0.1529 -0.3151  0.3152
22197W        W38671  17.879  11.260  12.604 -0.4662  0.2283  0.0110
22198W        W38672  16.687   4.241  11.454 -0.0285 -0.1080 -0.2225
22199W        W38673  18.441  14.782   4.914  0.3568 -0.2839 -0.1857
22200W        W38674   0.224   9.465   2.531  0.2735  0.0543 -0.1611
22201W        W38675   4.841  15.724  14.367  0.0042 -0.0408  0.0093
22202W        W38676  13.546  13.566   2.649 -0.2337 -0.0831 -0.1819
22203W        W38677   8.067   3.229   5.387  0.0735 -0.1844  0.0764
22204W        W38678  14.530   1.419   0.781 -0.1420 -0.1800  0.0722
22205W        W38679   5.364  16.941  13.078  0.0283 -0.0737 -0.2079
22206W        W38680   9.419  13.768   3.887  0.3092  0.2637 -0.0826
22207W        W38681   5.793   0.264  11.268 -0.0079  0.0955  0.0136
22208W        W38682   4.110  16.779   4.266 -0.0864 -0.0946 -0.1965
22209W        W38683   7.159   5.083   4.937 -0.1529 -0.0599 -0.2495
22210W        W38684  17.837   9.611   0.712 -0.1639 -0.1269 -0.0682
22211W        W38685   0.905  14.565  10.824  0.0184  0.2062  0.1978
22212W        W38686   9.479   1.542   0.982  0.1853 -0.0280  0.2374
22213W        W38687  13.655  12.267   4.623  0.0184  0.0947  0.0821
22214W        W38688  11.139   2.850   1.967  0.0349  0.0802  0.3055
22215W        W38689  11.903   7.203  14.382  0.0084  0.1405  0.0085
22216W        W38690  18.669  13.264   5.206  0.4656 -0.1954  0.0676
22217W        W38691   8.659  18.582  14.584  0.0475 -0.0971  0.0614
22218W        W38692   9.746   5.734   0.562 -0.0087  0.0274 -0.1107
22219W        W38693  12.074   0.081   1.615 -0.0827 -0.1849 -0.2081
22220W        W38694   5.201   5.812  14.921  0.0305 -0.0062 -0.0475
22221W        W38695  12.495  13.326  10.559 -0.2462  0.1560 -0.2005
22222W        W38696  16.522  10.837  13.155 -0.0778  0.1246 -0.1861
22223W        W38697  18.181   3.391  11.884 -0.0137  0.2798 -0.0161
22224W        W38698  11.315  14.641   4.284 -0.0134  0.3076 -0.3877
22225W        W38699   4.926  16.650   2.920  0.1332  0.1080  0.2053
22226W        W38700   8.064   7.177   4.341 -0.0687  0.1518  0.2500
22227W        W38701  18.689  10.822  14.020  0.0380  0.0276  0.1395
22228W        W38702  12.581   1.575  13.490  0.1606  0.0521  0.2183
22229W        W38703   8.418   9.202   5.894 -0.0348  0.2564  0.0792
22230W        W38704   7.486  16.045  11.455 -0.3167  0.1089 -0.0687
22231W        W38705  12.241  13.361  14.109 -0.0958 -0.1340  0.3915
22232W        W38706   2.074  15.452  11.543  0.1089 -0.2335 -0.1409
22233W        W38707   0.948  16.295   3.673  0.2417  0.0456  0.1862
22234W        W38708  12.580   0.918  13.983  0.0345 -0.0296 -0.1263
22235W        W38709  13.200   2.042  15.036  0.0170  0.1251  0.0478
22236W        W38710   4.995   9.885  10.248 -0.0204  0.0445 -0.0683
22237W        W38711  15.333  11.286   0.635 -0.2277  0.2919 -0.1830
22238W        W38712   5.102   1.343   2.213 -0.0429 -0.0995  0.0045
22239W        W38713   8.715  15.842  12.197 -0.0150 -0.0637 -0.2494
22240W        W38714  15.904  13.046  13.922  0.2686  0.2596 -0.3420
22241W        W38715  13.127  11.390   3.025  0.0471 -0.1119  0.0838
22242W        W38716   8.645   5.062  11.891 -0.2325  0.0879 -0.1861
22243W        W38717  14.996   6.404   3.979  0.0698  0.0907  0.1338
22244W        W38718  17.879  17.705   4.060  0.0732  0.1723 -0.2479
22245W        W38719   9.381  11.060   3.145 -0.1735  0.0289  0.3744
22246W        W38720  16.565   9.885   5.547 -0.1989  0.0261  0.0670
22247W        W38721   1.680   4.070   1.797 -0.0575  0.2899 -0.1056
22248W        W38722   9.836   4.156  15.090 -0.0472 -0.1289  0.2683
22249W        W38723   6.307  14.746   1.744 -0.1194 -0.1146 -0.3493
22250W        W38724   6.963   1.783  14.797  0.0694  0.1696 -0.1630
22251W        W38725   8.795   0.015   5.738  0.1744 -0.2585  0.2170
22252W        W38726  15.048  14.634   5.047 -0.4507 -0.2937  0.0642
22253W        W38727   7.664   6.978  13.657  0.1388  0.0075  0.0285
22254W        W38728  12.846   1.758   1.080 -0.1102  0.0791 -0.2061
22255W        W38729   2.271   6.315   3.186  0.1015 -0.1776  0.2212
22256W        W38730   3.664  13.208   4.521 -0.0967 -0.0894  0.1778
22257W        W38731   8.780  16.311   3.463 -0.0977 -0.1758 -0.1975
22258W        W38732  12.538   5.466  11.683 -0.0356 -0.2210  0.1424
22259W        W38733   1.308   1.952   3.024 -0.2034 -0.0985  0.1019
22260W        W38734   3.368   6.007  14.609  0.2168 -0.2263  0.1776
22261W        W38735  18.428  19.008   2.378 -0.1321 -0.2162  0.2881
22262W        W38736  15.731   7.119  11.563  0.1671  0.2210  0.0355
22263W        W38737   9.739  16.564  12.729  0.0511 -0.6525 -0.2029
22264W        W38738  18.781  16.350  14.571 -0.3694 -0.0321 -0.0308
22265W        W38739  14.537   3.201  13.256 -0.2961 -0.0865 -0.2917
22266W        W38740   0.589   0.273  14.006  0.1302 -0.1274 -0.2784
22267W        W38741   4.714  10.496  12.138 -0.3273  0.1213 -0.1201
22268W        W38742  17.381   8.102   4.204  0.0918 -0.0393 -0.1341
22269W        W38743  17.841  15.098  10.770  0.0849 -0.2628 -0.0385
22270W        W38744  15.072  14.116   0.874  0.2355  0.0938 -0.2571
22271W        W38745   7.358  17.558   3.087  0.2004  0.2375  0.2126
22272W        W38746   9.964  13.903  11.813  0.0279  0.0808 -0.0470
22273W        W38747   5.191   9.113   2.666  0.2195  0.0090 -0.1408
22274W        W38748  15.157   4.190   1.425  0.0831 -0.1990 -0.1234
22275W        W38749  10.481   9.909   0.307  0.0454 -0.2532 -0.2636
22276W        W38750   6.089   1.160   4.125 -0.2668 -0.2168 -0.0498
22277W        W38751  12.787  16.074   1.371  0.1535  0.2249 -0.1229
22278W        W38752   0.068   7.798   3.942  0.1731 -0.2601  0.2388
22279W        W38753  10.028   9.369  14.295 -0.1531  0.0950 -0.0925
22280W        W38754  13.913   2.694   0.278  0.0555  0.1940  0.0062
22281W        W38755  15.577   8.084   4.284 -0.3642 -0.3791 -0.0881
22282W        W38756   9.392   2.626  14.453  0.1371  0.0772 -0.2716
22283W        W38757   5.949   0.344  13.012  0.0008 -0.2082 -0.1388
22284W        W38758   3.937   0.578   3.808  0.3012 -0.0831 -0.2826
22285W        W38759  14.899   3.265  10.777 -0.0554  0.1145  0.0631
22286W        W38760   5.133  18.853   3.975 -0.4212  0.2948  0.1835
22287W        W38761   4.054  13.667  13.179 -0.3552 -0.1246 -0.0468
22288W        W38762  14.209   9.882  13.697 -0.4445 -0.0240  0.3539
22289W        W38763  17.417   9.529  12.406  0.1206  0.4057 -0.0206
22290W        W38764   9.677   9.225   1.804 -0.0796 -0.2159 -0.3518
22291W        W38765  14.805  16.657  14.146 -0.3828  0.2574 -0.0253
22292W        W38766  11.253  16.705  12.167 -0.0991  0.0742 -0.2440
22293W        W38767  18.652   5.197   3.546  0.2245 -0.1685 -0.1194
22294W        W38768  18.734  13.825  13.811  0.3229  0.2827  0.3532
22295W        W38769  19.032  18.699   4.291 -0.0347 -0.3946  0.2175
22296W        W38770  15.266   3.255   4.372  0.1469  0.1407  0.1219
22297W        W38771   0.296   2.695  13.198  0.0155 -0.0642  0.1098
22298W        W38772  17.785  10.054  11.777  0.0366  0.4153  0.5094
22299W        W38773  12.185   0.101   2.805 -0.3746  0.2619 -0.1537
22300W        W38774   9.982   0.398  11.982 -0.0572 -0.1884 -0.2370
22301W        W38775  14.937   5.837  14.368 -0.1009  0.3320  0.2262
22302W        W38776  11.721   4.592   0.603  0.0052 -0.3827 -0.0387
22303W        W38777  12.752  10.045  14.020 -0.0021 -0.1397 -0.0609
22304W        W38778   5.373  16.670  11.897 -0.1720 -0.0366  0.2405
22305W        W38779   4.686   9.842   2.497 -0.0840 -0.2770 -0.3655
22306W        W38780  11.711  10.903  12.071 -0.0791 -0.2097 -0.2232
22307W        W38781  14.741  10.212  12.585 -0.3617 -0.0498 -0.0523
22308W        W38782   3.245   4.453   0.667 -0.2037 -0.0089  0.2416
22309W        W38783  14.991   1.423  11.947 -0.0784 -0.1110 -0.1238
22310W        W38784   3.829   1.454  11.118 -0.0018 -0.1067  0.2973
22311W        W38785  10.000  15.020   5.134 -0.2270  0.0009 -0.1871
22312W        W38786  17.876  15.709   3.762  0.1479  0.2363 -0.0606
22313W        W38787  12.249  15.659   0.566 -0.1793  0.3271  0.1607
22314W        W38788   7.006  17.311   4.881  0.0933  0.1372  0.1999
22315W        W38789  15.140  15.704   2.796  0.2493  0.1704 -0.0437
22316W        W38790  14.418  17.173   4.026  0.2134 -0.5191  0.0745
22317W        W38791   0.143  12.509  12.839 -0.4496  0.1440  0.0435
22318W        W38792  15.356  15.634  12.162  0.0700 -0.0992  0.2494
22319W        W38793  15.068  16.500   4.858 -0.0754 -0.0564 -0.1317
22320W        W38794  11.252  19.123   4.737 -0.0437 -0.0035  0.3002
22321W        W38795   5.061   6.250   4.238 -0.0645  0.0794 -0.2250
22322W        W38796   6.103   4.379   5.262  0.1258 -0.0314 -0.1433
22323W        W38797  13.544  11.681  11.249 -0.1098 -0.0795 -0.2291
22324W        W38798   6.186  16.654   0.565  0.1450  0.2551  0.1905
22325W        W38799  12.124  18.974   3.253 -0.0885 -0.0026 -0.0231
22326W        W38800  16.269   0.807   4.174 -0.1686  0.0658 -0.1995
22327W        W38801   7.804  15.609  12.383  0.0193 -0.2852 -0.1657
22328W        W38802  13.238   3.474  11.651  0.3718  0.1893  0.2613
22329W        W38803   7.689  16.821  10.466 -0.0667  0.0668 -0.1046
22330W        W38804   5.296   4.482   4.495  0.0203  0.2185 -0.0309
22331W        W38805  13.207  16.726  11.319 -0.0258 -0.0826  0.1542
22332W        W38806  15.712   0.836  13.822 -0.4191 -0.0628  0.0993
22333W        W38807   7.316   7.029   3.969 -0.2680  0.3059 -0.1890
22334W        W38808   4.153   8.162  11.556  0.1252 -0.2947  0.0245
22335W        W38809   4.275   0.993  11.156 -0.1070 -0.0742  0.0374
22336W        W38810  13.931  10.816   0.153  0.0188  0.1024 -0.1229
22337W        W38811   9.160  12.828   0.100  0.4313 -0.2821 -0.3078
22338W        W38812   6.464  18.531  13.852  0.0244  0.1128 -0.0385
22339W        W38813   9.502   0.936   0.875  0.4610 -0.0153 -0.1417
22340W        W38814  17.360  17.644   0.419  0.2284  0.2176 -0.1812
22341W        W38815   1.865   3.919   2.828  0.0432 -0.2333  0.0512
22342W        W38816  13.738   7.871   4.008  0.0918 -0.4798  0.1669
22343W        W38817  18.290   2.267   2.915  0.0673 -0.2667 -0.0936
22344W        W38818  15.427   2.718   3.150 -0.1694  0.0549  0.1150
22345W        W38819   7.486  15.959  11.998 -0.0692 -0.2040 -0.1894
22346W        W38820   4.175  11.511  10.420 -0.0517  0.1387 -0.0296
22347W        W38821  13.271   9.148   3.819  0.1351 -0.1277  0.0269
22348W        W38822   6.536  11.237   3.700  0.2118 -0.0467 -0.1333
22349W        W38823  17.800  18.728  10.908  0.2142  0.0123 -0.1174
22350W        W38824   8.133   4.590   1.863  0.3442  0.2385 -0.1200
22351W        W38825  18.772   2.583   0.419 -0.3288  0.1156 -0.3130
22352W        W38826   2.126  18.148  13.423  0.2156  0.1046 -0.2036
22353W        W38827   0.419  14.674  13.130  0.0250  0.2083 -0.1615
22354W        W38828  10.790   0.693   1.272 -0.1366 -0.2228  0.0872
22355W        W38829  16.110  13.562  12.909 -0.1206 -0.4705 -0.0340
22356W        W38830   6.897   4.062  10.527 -0.1843 -0.3076 -0.1137
22357W        W38831  13.114   4.849  11.827  0.3573  0.1837  0.5198
22358W        W38832   4.073   7.570   0.053 -0.2258 -0.0371  0.2679
22359W        W38833  12.345  10.610  12.665  0.0935  0.0126 -0.0728
22360W        W38834   2.838  10.480  11.402  0.2514 -0.0380 -0.2240
22361W        W38835  12.801  15.025   0.904  0.1814  0.0359 -0.0898
22362W        W38836  18.839  16.147   4.682  0.0873 -0.1961  0.0801
22363W        W38837   5.821   0.716  11.094  0.2632 -0.1601  0.0359
22364W        W38838   1.807  14.082   2.490  0.0406 -0.2845 -0.3056
22365W        W38839   1.921   2.791  15.050  0.2047  0.1288 -0.3264
22366W        W38840   7.343   9.095  12.936 -0.0842  0.0910  0.0981
22367W        W38841   2.866  18.403   2.088 -0.0324 -0.3575 -0.2816
22368W        W38842   7.500  18.456   1.470  0.1351  0.3426  0.2839
22369W        W38843   3.642  16.611   0.704  0.1709  0.0959  0.2118
22370W        W38844   8.394   2.005   4.313  0.0347  0.1500 -0.1935
22371W        W38845   1.952   6.357   2.306  0.2085 -0.1513 -0.2018
22372W        W38846  10.397  15.723  10.883  0.1096 -0.2959 -0.0198
22373W        W38847   9.491  14.321   2.227  0.0580  0.3975  0.0545
22374W        W38848  17.146  15.759  11.839  0.2248  0.0069  0.0178
22375W        W38849  13.559   4.836   3.473  0.1602  0.1130 -0.1583
22376W        W38850  15.093  10.700  12.524  0.4619 -0.1590  0.2196
22377W        W38851  17.339   2.593  10.974 -0.3754  0.0232  0.0975
22378W        W38852   0.628   4.534  13.581  0.0565  0.2296 -0.2985
22379W        W38853  12.234   5.168  12.985  0.1998 -0.1963 -0.3194
22380W        W38854  18.351  11.203  13.807 -0.1609 -0.2494  0.3996
22381W        W38855  13.906   5.566  11.909 -0.1869 -0.0273 -0.1072
22382W        W38856  12.214   5.620   4.682  0.2254  0.4008 -0.2071
22383W        W38857   3.633   2.650   0.034  0.0630 -0.1283  0.0468
22384W        W38858  12.649  13.292  13.061 -0.1134 -0.0033  0.1553
22385W        W38859  15.134   6.532  10.774 -0.2005 -0.1740  0.1684
22386W        W38860  12.373  10.461  14.037 -0.3574 -0.0835 -0.0265
22387W        W38861  17.820  16.790  13.448 -0.2088  0.5727 -0.0780
22388W        W38862   8.067  11.369   4.436 -0.3912  0.2106  0.1312
22389W        W38863   5.796  13.422  14.968  0.2297  0.0633  0.0153
22390W        W38864   2.966   3.786  15.094 -0.0966  0.1030  0.0858
22391W        W38865  12.406   0.284   4.118 -0.1291  0.2882 -0.1800
22392W        W38866  10.491  11.911  14.272  0.0906  0.2318 -0.3053
22393W        W38867  18.079   2.233   2.436 -0.0208  0.1821 -0.0703
22394W        W38868   2.319  14.935  13.314 -0.0549 -0.2311 -0.2349
22395W        W38869  16.436   9.678   2.355 -0.2443  0.0059 -0.2945
22396W        W38870   8.648  13.819   0.704  0.0185  0.4606  0.2137
22397W        W38871   1.242   6.380  14.947 -0.0893  0.2359 -0.0823
22398W        W38872   0.283   4.939   3.147 -0.2601 -0.2884 -0.2284
22399W        W38873   6.323  19.058   3.277  0.0568  0.0476 -0.0627
22400W        W38874  10.059  16.650   4.400  0.1518  0.2191  0.4273
22401W        W38875  13.598  10.412  14.607  0.1007 -0.0780  0.0831
22402W        W38876   5.661   8.799   1.534 -0.2624  0.0435 -0.2128
22403W        W38877  11.225   0.481   3.077  0.3413  0.0844  0.0365
22404W        W38878   9.473   5.665   2.543 -0.1008  0.0136 -0.2630
22405W        W38879  16.509  10.301  14.040 -0.1815  0.1143  0.3561
22406W        W38880  16.518  18.431   4.051  0.1354 -0.0854 -0.3491
22407W        W38881   7.158  13.348  11.292 -0.2364  0.1051 -0.0501
22408W        W38882   7.314   9.782   9.994 -0.0714 -0.1653  0.0345
22409W        W38883  15.684  12.569  12.089 -0.1146  0.1009  0.0238
22410W        W38884   6.036   2.936   0.959  0.4129  0.1220 -0.1545
22411W        W38885   2.236  12.341  11.709  0.1695 -0.2986 -0.1970
22412W        W38886  17.708  17.217  14.903  0.2273 -0.3521 -0.1465
22413W        W38887  16.420  16.642   0.328 -0.1198  0.0999 -0.2242
22414W        W38888  12.248  12.941  13.792  0.2591 -0.0504  0.0621
22415W        W38889   2.052   4.913  12.552  0.0537 -0.2902  0.1289
22416W        W38890   9.649   2.839   0.433  0.1044  0.0545 -0.1811
22417W        W38891  18.963   8.178   2.863 -0.0535 -0.0230 -0.1526
22418W        W38892  15.147  12.951  10.424  0.1040 -0.1794 -0.0805
22419W        W38893   3.544   8.764   2.869 -0.1460 -0.3103  0.2363
22420W        W38894   3.124   7.684   1.570 -0.1401 -0.0998 -0.0251
22421W        W38895   6.034  13.469   4.226  0.0596  0.1401 -0.1289
22422W        W38896   0.011  14.016   3.632 -0.0609  0.4164 -0.4315
22423W        W38897  15.386   7.097   2.545 -0.2541 -0.1571 -0.1224
22424W        W38898  13.187   1.209  11.409 -0.0165  0.2103 -0.1614
22425W        W38899   9.370   4.887  13.302 -0.0278  0.0560 -0.0999
22426W        W38900   1.606  13.626   3.255 -0.5376  0.0657  0.0670
22427W        W38901  17.782  14.820  14.968  0.0650  0.1095  0.1083
22428W        W38902   0.179   6.083  12.115 -0.4179  0.3512 -0.2804
22429W        W38903   7.138  15.759  12.313 -0.1370  0.0263 -0.1202
22430W        W38904  16.993  12.649   0.830 -0.5939  0.0909  0.0100
22431W        W38905   3.223  15.501   0.722 -0.1516  0.0041 -0.0836
22432W        W38906   9.428  17.743  11.076 -0.0230 -0.0008 -0.0609
22433W        W38907   4.323   4.962  12.654  0.0664  0.0515  0.0682
22434W        W38908   6.741   1.439   2.706  0.1000 -0.1308 -0.1002
22435W        W38909   2.890   8.368   0.827 -0.0882 -0.0004  0.1481
22436W        W38910   2.275   3.987   0.618  0.1094 -0.1317 -0.2180
22437W        W38911   5.377   8.744  10.053 -0.1353 -0.2247  0.0804
22438W        W38912   8.898   4.205  11.081  0.0177 -0.3504  0.0865
22439W        W38913  14.911   3.024  12.411 -0.1297  0.1973 -0.0202
22440W        W38914   3.452   2.256   4.363 -0.0949 -0.0352  0.3111
22441W        W38915  17.025   3.785   4.108  0.1647 -0.0794 -0.0148
22442W        W38916  18.467  15.787  12.013 -0.1287 -0.1581 -0.0156
22443W        W38917   5.521  10.873   0.421  0.0735  0.2080 -0.0930
22444W        W38918  12.016   7.168   2.626 -0.0673  0.0893  0.0525
22445W        W38919  15.837  12.857   2.792 -0.0512  0.2499  0.1460
22446W        W38920  10.125  17.263  13.277  0.1609  0.2716  0.0573
22447W        W38921  19.088   5.010  13.373  0.1483 -0.0845  0.1327
22448W        W38922   3.785   6.430  13.441 -0.0754 -0.1181 -0.1933
22449W        W38923  17.783   9.767  10.735  0.1540 -0.0986  0.1011
22450W        W38924   1.194  15.314  13.173 -0.1290 -0.0985  0.0518
22451W        W38925  12.908   0.262  11.723  0.0474  0.0104  0.4966
22452W        W38926  13.903   7.031  10.800  0.0744  0.0184  0.0364
22453W        W38927  13.067  13.269  10.659  0.1848  0.0002  0.1254
22454W        W38928  17.372   7.513   2.193 -0.0900  0.1412  0.1723
22455W        W38929   0.065   8.411  13.274 -0.1693 -0.0423 -0.3023
22456W        W38930  12.207   5.220  12.019  0.1247 -0.1425 -0.1156
22457W        W38931   9.688  15.221  12.433 -0.1584 -0.1034  0.2529
22458W        W38932   5.075  14.787  11.021  0.0203 -0.1755 -0.1271
22459W        W38933   3.449   0.842   3.780  0.1378  0.2932 -0.1823
22460W        W38934   8.279  10.027  13.241  0.1056  0.2768  0.1784
22461W        W38935  15.653   9.646   0.286  0.2803 -0.0825  0.0646
22462W        W38936   1.412   7.129   2.433 -0.3815  0.0446 -0.1883
22463W        W38937  16.194  11.921  11.591  0.2464  0.2884 -0.1103
22464W        W38938   7.120  10.904  14.552  0.1275  0.2122  0.3797
22465W        W38939  10.443  11.397  13.533 -0.1155 -0.1144 -0.1400
22466W        W38940  17.993  13.493   4.342  0.2251  0.2058  0.4128
22467W        W38941  15.054  14.865   3.887  0.0543 -0.0712 -0.1685
22468W        W38942  17.348   0.146   2.628  0.1395  0.1374  0.0701
22469W        W38943  18.087   2.788   3.735 -0.2259  0.0219  0.0131
22470W        W38944  10.472   4.508  11.578 -0.1523  0.0354  0.0655
22471W        W38945  17.281  13.934  14.125  0.2819  0.3792 -0.1799
22472W        W38946   7.791  11.440  15.027  0.0159  0.1855 -0.1063
22473W        W38947  10.748   9.559  12.326  0.0984 -0.1136  0.2821
22474W        W38948  13.479  13.007   2.619 -0.0160  0.0901 -0.0626
22475W        W38949   0.327   3.912  10.812  0.0787  0.0051  0.0491
22476W        W38950   5.640  15.795  14.649 -0.3691  0.0455  0.0284
22477W        W38951   5.435   2.244  11.187 -0.0744 -0.0383 -0.1672
22478W        W38952  18.494   6.890   1.961 -0.2204 -0.3374  0.2333
22479W        W38953   2.779  15.762   1.341  0.0110 -0.2954  0.2987
22480W        W38954  10.916   7.983   4.558  0.1868  0.0585 -0.0295
22481W        W38955  11.708   9.488   3.157 -0.1644  0.1364 -0.0632
22482W        W38956   6.217   1.375  12.902  0.3066 -0.0217  0.1409
22483W        W38957  10.841   3.915   4.090 -0.0159 -0.0510  0.0344
22484W        W38958  17.721   4.606  14.438  0.1104  0.0736  0.2105
22485W        W38959   5.384   8.301   0.348 -0.0116  0.1181 -0.3004
22486W        W38960  13.231  12.086   2.297 -0.7551 -0.1003  0.1825
22487W        W38961   0.670  13.128   3.107  0.2444  0.1649  0.1212
22488W        W38962   6.121   5.163  11.010 -0.1533  0.0865  0.1391
22489W        W38963  18.720  18.410   3.649 -0.5069 -0.2425 -0.1093
22490W        W38964  16.000   3.040   1.411  0.1230 -0.2861  0.1998
22491W        W38965   9.158   1.067  10.727  0.1896 -0.0387 -0.1904
22492W        W38966   5.167  13.794  10.888  0.2164  0.3783 -0.4058
22493W        W38967   3.435   4.467  11.572 -0.0990 -0.2097  0.1427
22494W        W38968  11.138  11.460  13.864  0.0312 -0.0243 -0.3787
22495W        W38969  12.129   7.572   3.076 -0.2108  0.0108  0.1525
22496W        W38970   2.839  14.110   2.344  0.1656 -0.1122 -0.0904
22497W        W38971   6.012   1.176   3.605  0.3752  0.0657  0.0713
22498W        W38972  13.143  13.798  13.833 -0.2525 -0.1343 -0.0640
22499W        W38973   3.397   3.673   1.848 -0.0040 -0.3068 -0.1570
22500W        W38974  13.343  12.513   2.066  0.3412 -0.2325  0.1454
22501W        W38975   9.947   7.561   1.979  0.1208 -0.3062 -0.1352
22502W        W38976  16.735   7.781   4.426 -0.2509  0.0475  0.1855
22503W        W38977   6.095  11.779  12.009 -0.0163 -0.1354  0.0711
22504W        W38978  15.747  14.877   0.664  0.2014 -0.0928  0.2269
22505W        W38979  15.655   7.806  13.663  0.0874 -0.1249  0.1677
22506W        W38980  13.775   7.008  12.406  0.2024  0.3782  0.3083
22507W        W38981  11.899  14.853  14.986 -0.1729 -0.3046 -0.0947
22508W        W38982  10.589   7.820   4.060 -0.0169  0.1077 -0.2300
22509W        W38983   3.785  10.481  11.835 -0.2145 -0.1649 -0.2444
22510W        W38984  14.829  10.476  12.164 -0.1694  0.0708 -0.0888
22511W        W38985   0.715  11.311  14.490 -0.1345  0.2980  0.5684
22512W        W38986   4.789  12.713   1.279  0.0662  0.3050 -0.1864
22513W        W38987   4.832   0.419  11.361 -0.1806  0.0165 -0.0938
22514W        W38988  11.773  11.858   0.304  0.2105 -0.1805 -0.1763
22515W        W38989   0.997   4.368   0.281 -0.1206  0.1078 -0.3945
22516W        W38990   3.649   8.266  11.682  0.0049 -0.0139 -0.0475
22517W        W38991   6.119   8.129  11.745  0.1123  0.1704  0.1710
22518W        W38992  18.393   8.612  11.125 -0.0112 -0.0523  0.1219
22519W        W38993   7.910   3.088   9.831 -0.1315 -0.1948  0.1811
22520W        W38994   2.174   9.081  12.995  0.0572  0.0260  0.0069
22521W        W38995  16.744   9.053   1.028  0.1015 -0.1576  0.1847
22522W        W38996   4.289  18.244   3.500 -0.1438  0.3337 -0.0800
22523W        W38997  10.608   3.453   4.231  0.0806 -0.0898 -0.0601
22524W        W38998  11.817   9.519  13.329 -0.0179 -0.1004  0.2113
22525W        W38999   9.258  18.980  11.037  0.0306  0.1469  0.3912
22526W        W39000   2.788  11.487   4.330 -0.0329 -0.1325 -0.0548
22527W        W39001   6.792   6.384  13.307  0.2029 -0.0507 -0.0652
22528W        W39002   0.811   3.491   4.654 -0.1599  0.2262  0.2147
22529W        W39003   6.084  17.859  11.432  0.2811 -0.1022 -0.1792
22530W        W39004  18.091   8.400  14.274 -0.2266 -0.1790 -0.1082
22531W        W39005  15.943  13.135  11.477 -0.0984 -0.0058 -0.0087
22532W        W39006   8.799   2.565  11.495  0.0949  0.2884 -0.0540
22533W        W39007  16.850  14.323   3.178 -0.2401 -0.0069  0.0834
22534W        W39008   6.115  13.812  11.436  0.3133  0.1533 -0.0512
22535W        W39009   4.599  17.253  10.640 -0.0405  0.0988 -0.1620
22536W        W39010  15.002  15.728  14.297 -0.3235 -0.1215  0.3502
22537W        W39011  14.952  17.002   1.748 -0.2872 -0.0384  0.3878
22538W        W39012   2.017   5.026   2.119 -0.2219  0.1918  0.2226
22539W        W39013   1.754  16.359   1.008  0.2713 -0.0139 -0.1651
22540W        W39014   0.711  12.520  11.408  0.0498  0.1109 -0.1446
22541W        W39015  15.775   0.423   2.067 -0.0592  0.0712  0.3166
22542W        W39016   9.799  15.609   5.034  0.1545  0.4371  0.0061
22543W        W39017  16.895   7.363  13.893  0.0666 -0.3140 -0.1052
22544W        W39018  18.271  17.456  11.528 -0.1567  0.1979 -0.1716
22545W        W39019  17.674   7.875   3.319  0.0249 -0.1709  0.3718
22546W        W39020  12.035   0.458   0.337  0.2886  0.0740  0.2768
22547W        W39021  10.303  18.658   1.140 -0.1358 -0.0503 -0.0526
22548W        W39022   6.878  17.885   2.635  0.3428  0.1324  0.0363
22549W        W39023   6.661  14.830   3.914  0.2078  0.1719 -0.4265
22550W        W39024   4.277   0.963   0.032 -0.3219 -0.2001 -0.4156
22551W        W39025   3.873   7.209  13.805 -0.1101  0.0337 -0.2329
22552W        W39026  10.068   7.249  10.362  0.1688 -0.2293  0.1852
22553W        W39027   4.915   6.441   1.675  0.0342 -0.0209 -0.4462
22554W        W39028  11.897  15.847  13.101  0.2394  0.2529  0.3572
22555W        W39029  11.840   7.592  11.394 -0.3478  0.0387  0.1965
22556W        W39030  17.893   1.127  14.857  0.2202  0.1263  0.1776
22557W        W39031   6.332   0.983   4.812  0.0707 -0.0099 -0.2468
22558W        W39032   7.790   4.653  12.124  0.1815 -0.0412 -0.0585
22559W        W39033   6.143   3.237  13.292  0.0766 -0.0359 -0.1874
22560W        W39034  10.960   2.105   9.770 -0.1496  0.0308  0.2202
22561W        W39035  12.781   1.404  11.782 -0.1195  0.1284 -0.3278
22562W        W39036  10.894   1.192  10.954  0.2495 -0.1581  0.0537
22563W        W39037   8.318   0.790  10.448  0.0548 -0.2128  0.0279
22564W        W39038  12.526   6.460  11.685 -0.0676 -0.0707  0.0317
22565W        W39039  10.241   1.186  15.122  0.0071 -0.3828  0.2771
22566W        W39040  17.592   7.801   1.830 -0.4125 -0.0781  0.0711
22567W        W39041  11.238   4.853  11.068 -0.1561 -0.1886  0.0349
22568W        W39042  12.523   6.273  14.326 -0.0965 -0.0730 -0.1704
22569W        W39043  18.608  19.034   1.825 -0.0859  0.0960 -0.0913
22570W        W39044   2.031  10.160  13.177  0.0390 -0.2071  0.2400
22571W        W39045   5.163  11.827   1.074  0.0692 -0.3989 -0.3290
22572W        W39046  14.020   1.728   3.495  0.0020 -0.1429  0.3060
22573W        W39047   8.701   1.715   2.850 -0.6196 -0.3573  0.1552
22574W        W39048  16.679  15.768  11.970  0.0067 -0.0835 -0.5448
22575W        W39049  11.395  10.248   5.585  0.1246 -0.1811  0.0768
22576W        W39050  13.711   1.393  14.739  0.0655 -0.0145  0.2156
22577W        W39051   8.126  17.153  10.452  0.0169  0.1900 -0.2851
22578W        W39052  10.278  14.313   0.962  0.3350  0.0556  0.1028
22579W        W39053   3.314   2.348  12.021  0.0255  0.0169  0.1679
22580W        W39054   4.951  17.986  11.624  0.1123 -0.0148  0.0568
22581W        W39055   2.421  17.667  14.394  0.2472  0.0115  0.0843
22582W        W39056   2.422  18.915   5.119  0.2736 -0.0544 -0.0068
22583W        W39057  10.060   5.309   0.014 -0.0494 -0.1307  0.1509
22584W        W39058   3.126  14.610   3.082  0.1265 -0.0468 -0.0975
22585W        W39059  12.230   5.790  10.957  0.5715 -0.0051 -0.1475
22586W        W39060  13.984   1.699   0.939  0.1729  0.1909 -0.2416
22587W        W39061  18.974  18.293   9.961  0.0244  0.0041  0.0747
22588W        W39062  13.727   5.463  11.425  0.0835  0.0617 -0.0332
22589W        W39063  13.605   8.876   4.645 -0.0585  0.0612  0.0382
22590W        W39064  10.216   7.913  12.842 -0.0928  0.1137  0.0108
22591W        W39065  18.837   0.323   4.965 -0.0050 -0.0904 -0.4461
22592W        W39066  12.651  16.161  14.577 -0.3562  0.1757 -0.0302
22593W        W39067   6.176  16.126   1.419  0.0873  0.1379 -0.0028
22594W        W39068   3.889  11.661   3.646 -0.0512 -0.1537  0.1707
22595W        W39069   6.012   1.735   1.188 -0.1588  0.0775 -0.3107
22596W        W39070   9.596   1.468  13.009  0.0052  0.3081  0.3157
22597W        W39071  10.079  18.344  11.674  0.0527  0.1566  0.1804
22598W        W39072   9.000   5.295  11.624 -0.2096 -0.3824 -0.0288
22599W        W39073   2.354   3.652   3.504 -0.0673  0.2427  0.2319
22600W        W39074  11.902  18.587  12.409  0.0880 -0.1025 -0.1452
22601W        W39075   9.306  10.961  12.573 -0.0868  0.1055  0.0521
22602W        W39076   6.883  13.722   5.138 -0.0782  0.1220  0.1339
22603W        W39077  10.319   9.480  12.640  0.0776 -0.0865 -0.3442
22604W        W39078  12.146   3.442   2.028 -0.1049  0.1107  0.1938
22605W        W39079  13.873   9.369  11.854 -0.0897 -0.0569 -0.2234
22606W        W39080  17.116   0.800  12.165 -0.0670 -0.0824  0.2772
22607W        W39081  12.936  10.161   3.261 -0.0733  0.1377  0.1957
22608W        W39082   9.559   2.019   2.407 -0.1488  0.0423 -0.1007
22609W        W39083   4.032  16.738  11.293  0.0650 -0.1153 -0.1165
22610W        W39084   8.137   4.230  12.394 -0.1347 -0.1411 -0.0233
22611W        W39085  17.753  18.630   5.034  0.0709 -0.2748 -0.1876
22612W        W39086  15.477  14.936   4.823 -0.2818  0.0889 -0.2066
22613W        W39087  10.467   0.018   1.522 -0.1128  0.0745 -0.0291
22614W        W39088  10.736   2.027   1.693  0.2863 -0.0058 -0.0918
22615W        W39089   7.294   9.047   0.216 -0.0565 -0.0508 -0.0834
22616W        W39090  14.849   7.719  14.476 -0.1963  0.0260 -0.1802
22617W        W39091  18.951  17.256   3.285  0.1777  0.2662  0.0456
22618W        W39092   3.433   5.807   3.240  0.0806 -0.1223 -0.2519
22619W        W39093   9.914  11.368  13.493 -0.1551 -0.2194  0.2177
22620W        W39094  15.238  17.955   4.116 -0.2104 -0.1072 -0.3913
22621W        W39095  11.362   9.623   4.794  0.0569 -0.2723 -0.0327
22622W        W39096   4.449   1.523   5.133  0.0130  0.3119 -0.1969
22623W        W39097   5.391  10.039  14.523 -0.0094  0.1311 -0.0578
22624W        W39098  19.085  15.950  14.463  0.1714 -0.1539  0.0904
22625W        W39099   3.800   0.923  14.020  0.2005 -0.0449 -0.0123
22626W        W39100   5.660  16.667   3.177  0.1736  0.5589 -0.0446
22627W        W39101   0.103  13.502   5.031 -0.1518  0.1200  0.1437
22628W        W39102   5.077  10.744   2.410 -0.2982 -0.0806  0.0924
22629W        W39103  12.013   9.048   5.197 -0.1632 -0.2982  0.2178
22630W        W39104   1.001  16.351  11.356  0.0322  0.1563  0.1347
22631W        W39105  10.190  12.831  14.691  0.4669  0.0323 -0.0709
22632W        W39106   1.123   6.344  11.147 -0.0580 -0.2136 -0.0623
22633W        W39107  12.873  13.356   0.222 -0.1158 -0.0773  0.0871
22634W        W39108  13.777   5.079  13.731  0.1189 -0.0146 -0.2523
22635W        W39109  16.759  17.923  13.679 -0.0309 -0.0346  0.0078
22636W        W39110  10.956   1.555   1.564 -0.0582 -0.1273 -0.1099
22637W        W39111   6.853  10.410   3.739  0.3632 -0.0210 -0.3131
22638W        W39112  13.419   7.797  15.115 -0.0065  0.1343  0.2641
22639W        W39113  18.247   4.777  10.114 -0.2849  0.1966 -0.3505
22640W        W39114  13.170   5.416  15.004 -0.2106 -0.2788  0.0420
22641W        W39115   6.114  13.205   1.392 -0.0723 -0.1939  0.1395
22642W        W39116  16.863   0.653   4.802  0.0092 -0.4962 -0.2338
22643W        W39117  13.671   2.780  14.514  0.1361 -0.2788 -0.0535
22644W        W39118   4.196   5.496  13.920 -0.3195 -0.3124  0.2572
22645W        W39119   8.217  17.790   1.403  0.2862 -0.0550  0.1148
22646W        W39120  18.627  14.655   2.989  0.1236 -0.0927  0.1511
22647W        W39121   9.449   5.321   0.441 -0.1017  0.1824  0.1247
22648W        W39122  15.029   4.228   3.573  0.3837  0.1427 -0.2592
22649W        W39123   8.036   8.757   4.261  0.3859  0.3185 -0.0286
22650W        W39124   5.078  10.311  11.790 -0.2848  0.3435 -0.0292
22651W        W39125  18.786   8.906  12.630  0.0540 -0.1408  0.0304
22652W        W39126  17.140   4.704   2.831 -0.2788 -0.5017  0.2544
22653W        W39127   4.501   2.126   2.030 -0.1397  0.1116  0.0212
22654W        W39128   7.795   5.379  11.712 -0.1355  0.0416  0.2067
22655W        W39129   6.190  14.878  12.680  0.1496 -0.0411  0.0038
22656W        W39130   9.445  14.650  10.076  0.0081 -0.1732 -0.1860
22657W        W39131  12.056   0.632   2.947  0.0363 -0.0404  0.2645
22658W        W39132   7.685  16.713   0.540 -0.0378 -0.0017  0.1846
22659W        W39133   2.459   6.047   0.960 -0.2273 -0.1804  0.2906
22660W        W39134  18.934  15.756   5.268  0.0716 -0.3843  0.3030
22661W        W39135   1.539  18.145   4.895 -0.3904 -0.4222 -0.0955
22662W        W39136   6.488  10.197  14.857 -0.0136 -0.0852 -0.2416
22663W        W39137  19.035  15.282  14.659 -0.0170 -0.1775 -0.3826
22664W        W39138   4.972   3.116   3.524  0.0010  0.2513 -0.1934
22665W        W39139  13.026  11.848  11.442 -0.0195 -0.4051 -0.3130
22666W        W39140  18.382   3.904   3.139  0.0226 -0.1511 -0.3547
22667W        W39141   2.043  19.154   2.777 -0.1282 -0.1774  0.0238
22668W        W39142  13.248   0.941  10.468 -0.2024 -0.2012  0.0233
22669W        W39143   6.829   0.618   2.903  0.0127  0.5180  0.1424
22670W        W39144   9.576   3.751   3.949  0.0305  0.2702 -0.2423
22671W        W39145   5.155   0.717   3.629  0.0654  0.1496  0.0296
22672W        W39146   0.585  16.266   1.514 -0.2066  0.0754  0.0428
22673W        W39147   3.348  13.624  10.788  0.0732 -0.0219 -0.1647
22674W        W39148  16.162   6.287  12.526  0.0616 -0.1866  0.0681
22675W        W39149  13.410  17.684  11.883 -0.0033 -0.0797  0.1764
22676W        W39150   7.816  16.456  14.251 -0.0362 -0.0862  0.0113
22677W        W39151  17.685   0.458  10.971  0.0501 -0.0197 -0.0717
22678W        W39152  14.415   3.920  13.523  0.0990 -0.1242 -0.1229
22679W        W39153   9.563  17.337   0.514  0.3395 -0.1282 -0.0860
22680W        W39154   0.776   0.387   1.594  0.2087  0.1743  0.1667
22681W        W39155  11.749  16.950  11.480  0.0015  0.1411 -0.2486
22682W        W39156   2.211   4.184   1.734  0.0999  0.3227  0.1986
22683W        W39157  16.947  12.539   2.987 -0.2063  0.2177  0.0759
22684W        W39158   7.454  11.826   4.696  0.0845 -0.0967  0.0198
22685W        W39159   5.832   7.180  14.017  0.1431  0.0537 -0.0756
22686W        W39160  17.230   5.330   3.626 -0.4834  0.1239  0.0956
22687W        W39161   0.425  13.189  14.574  0.1251 -0.4090  0.2530
22688W        W39162   7.308  12.772  13.961 -0.4862 -0.1788 -0.0238
22689W        W39163   7.539  18.911  15.079 -0.2355  0.0965 -0.0205
22690W        W39164   0.099   3.958   4.954  0.0634  0.0200  0.2186
22691W        W39165   9.313  13.280   3.666 -0.2757 -0.0882  0.1506
22692W        W39166   2.040  16.579   5.110 -0.1410 -0.0994 -0.3185
22693W        W39167  14.090   2.923   3.295  0.0308  0.0906  0.1535
22694W        W39168   9.573  19.045   1.733 -0.1919  0.2258  0.2440
22695W        W39169  14.001  13.729   4.200  0.2817  0.2466  0.1022
22696W        W39170   5.865   5.947   1.577  0.0434 -0.0784  0.0822
22697W        W39171   5.015  15.248  10.570  0.0317 -0.4197  0.1064
22698W        W39172   9.247   1.846  13.318 -0.0014  0.0537  0.0168
22699W        W39173   7.410   6.970   0.135  0.0321 -0.2052  0.1370
22700W        W39174  18.834  14.709  12.505  0.0120  0.1576  0.2073
22701W        W39175   9.507  18.826  14.003  0.3510 -0.1819 -0.1854
22702W        W39176  14.256   8.765   5.019  0.0881  0.1873 -0.0086
22703W        W39177  15.471  12.510  12.522 -0.3687 -0.2104 -0.0200
22704W        W39178  18.400  18.111   0.781 -0.0915 -0.0602 -0.1256
22705W        W39179   8.260   3.744  12.287 -0.2986 -0.1059  0.2549
22706W        W39180   9.514  14.632   4.536  0.0560 -0.2638  0.0289
22707W        W39181   8.013  18.576   0.677 -0.2222  0.2822  0.1531
22708W        W39182   8.093   5.141   4.601 -0.2616  0.0420  0.0456
22709W        W39183  15.248  14.169  13.349  0.2375 -0.0113  0.2163
22710W        W39184  14.896  17.570  13.142  0.0072  0.3149  0.0324
22711W        W39185  17.357  15.335   4.140 -0.1365  0.0696 -0.0770
22712W        W39186   1.201   2.093   0.303 -0.0601 -0.0277  0.2247
22713W        W39187  12.217  16.360  11.007 -0.3557 -0.1537  0.0503
22714W        W39188   4.740   3.820   2.690  0.0548 -0.2798 -0.0655
22715W        W39189  11.828  17.161   4.975  0.0136  0.3814 -0.0132
22716W        W39190   2.810   3.247   5.199 -0.1870  0.1563  0.1011
22717W        W39191   4.318   3.971   1.721  0.2967 -0.1484 -0.2335
22718W        W39192  10.819   9.490   3.355  0.2782 -0.3200  0.0682
22719W        W39193   5.889  16.212   0.418 -0.0629 -0.1614  0.0970
22720W        W39194   1.979  10.953  12.087  0.1714 -0.4272  0.0143
22721W        W39195  15.357  10.550  14.478  0.1371 -0.0448 -0.0920
22722W        W39196  11.293   6.431   1.312  0.1883  0.1518 -0.0057
22723W        W39197  15.437   7.692  12.803 -0.0497  0.1182 -0.1453
22724W        W39198   9.761  15.836  11.456  0.1384  0.2203  0.0855
22725W        W39199   6.890   8.047  12.298  0.1466 -0.1263  0.0435
22726W        W39200   5.686   9.458  14.072 -0.2132  0.0214  0.3751
22727W        W39201   2.428   0.554   2.636  0.0786 -0.0971 -0.0504
22728W        W39202  16.635  16.678  13.492  0.1183 -0.0276  0.0964
22729W        W39203   3.883   4.699  11.108 -0.2865 -0.0828  0.0577
22730W        W39204  10.874   5.942  11.849  0.1122  0.1331 -0.2155
22731W        W39205  18.101  12.032  10.897 -0.1762 -0.0348 -0.0599
22732W        W39206   7.893  12.434   5.578 -0.0967  0.0560  0.1606
22733W        W39207  18.381  13.298   1.856  0.2124  0.1823  0.3244
22734W        W39208  12.212  16.558   1.733 -0.0663  0.1359 -0.0206
22735W        W39209  18.930   7.155   4.642 -0.3057  0.3129 -0.2569
22736W        W39210   7.891   3.396   2.584 -0.1350 -0.5784  0.7930
22737W        W39211   3.412  10.045   0.595 -0.0056  0.0124  0.0152
22738W        W39212  17.334  16.782   0.706 -0.0131 -0.1395  0.1394
22739W        W39213   7.451   2.328   3.468 -0.0766  0.0409 -0.2220
22740W        W39214   1.610   4.933  13.970  0.0471 -0.0142 -0.0573
22741W        W39215  12.058  13.973   1.677  0.0155 -0.0963  0.1755
22742W        W39216   3.352   7.673  14.393 -0.0212  0.1250  0.1627
22743W        W39217  11.153   0.934   4.598  0.0573 -0.1131 -0.1105
22744W        W39218  14.250   3.734  11.059 -0.1104 -0.1282 -0.0929
22745W        W39219  11.728   9.949  11.652 -0.3163  0.0216  0.0775
22746W        W39220   8.346  18.325  13.924 -0.0592 -0.3314 -0.0113
22747W        W39221  13.066   1.353   2.014 -0.0834 -0.0677  0.2752
22748W        W39222  14.349   7.686   1.656 -0.2038  0.2624  0.2236
22749W        W39223   1.410   7.766  14.225 -0.0601 -0.2094  0.2405
22750W        W39224   7.688  18.999   3.663  0.0150  0.2724  0.4438
22751W        W39225  14.332  11.841  12.080  0.2906  0.0041  0.0449
22752W        W39226   7.917   0.919  11.875 -0.1049  0.1011  0.1646
22753W        W39227  15.173   4.510  10.103  0.2168 -0.0954 -0.0537
22754W        W39228  15.892  13.707   0.860  0.0486 -0.3953  0.1446
22755W        W39229  15.649  17.013   5.442  0.0864 -0.1662  0.0259
22756W        W39230  16.291   7.956  12.837  0.0672  0.1580  0.3213
22757W        W39231   1.081  17.093   2.978 -0.0879 -0.2619  0.4067
22758W        W39232  15.517  15.364   5.684  0.2939  0.2264  0.1967
22759W        W39233   5.887  11.067  11.808 -0.2517 -0.1443  0.2674
22760W        W39234   8.964  12.805   2.041  0.1303 -0.2545 -0.2024
22761W        W39235   6.923  16.880  13.358  0.1250 -0.2612 -0.0422
22762W        W39236  18.775  15.023   1.252 -0.2155  0.0598  0.2727
22763W        W39237   4.612  15.839   4.283  0.0708  0.5351 -0.0171
22764W        W39238   0.674   9.832   2.676  0.0643 -0.2081  0.5168
22765W        W39239  14.438   2.318  14.725  0.0793 -0.0764  0.1336
22766W        W39240  13.280   9.607   2.242 -0.1320  0.1856 -0.1934
22767W        W39241  12.606  14.211  13.112 -0.2631 -0.0175 -0.2096
22768W        W39242  18.092   0.783   2.350  0.0480 -0.0102 -0.2225
22769W        W39243  10.779  11.810   4.893 -0.2261 -0.1666 -0.3790
22770W        W39244  16.017  16.830   3.408  0.1682 -0.0538 -0.2044
22771W        W39245   8.425   0.691  12.418 -0.0200 -0.2168 -0.4021
22772W        W39246   4.449  18.792  12.454  0.0659 -0.0807  0.1918
22773W        W39247  14.919  10.268   1.516 -0.2096 -0.0602  0.0036
22774W        W39248   1.235   2.186   0.959 -0.3019  0.2401  0.1855
22775W        W39249  10.888   9.984   5.186 -0.3112  0.2797 -0.1966
22776W        W39250   4.754  12.319   1.626  0.0002 -0.0452 -0.1484
22777W        W39251   3.054  16.801   0.011  0.0215 -0.0134  0.2237
22778W        W39252   4.262   4.281   0.951  0.2382 -0.1268 -0.1849
22779W        W39253  11.083  17.870   2.214 -0.2870 -0.0154 -0.1016
22780W        W39254   6.509   5.823   3.741 -0.0197  0.0637  0.1273
22781W        W39255   9.381   3.383   5.366  0.0440  0.4997 -0.0920
22782W        W39256   1.511   8.126   4.345  0.1687  0.3382  0.0374
22783W        W39257  11.060  11.164   0.040  0.0910  0.1590  0.0063
22784W        W39258   6.242   5.309  12.355  0.2478  0.0328  0.0263
22785W        W39259  10.574   7.384  14.312 -0.3187  0.1433  0.1324
22786W        W39260  13.752   3.683  11.562  0.2998 -0.0965 -0.1925
22787W        W39261   6.778   1.328   0.805 -0.0775 -0.1754 -0.3567
22788W        W39262   4.860   9.742  12.749  0.0738  0.2210  0.4725
22789W        W39263   3.985  16.440   5.151  0.0166 -0.0079 -0.0294
22790W        W39264  14.117  18.927  12.577 -0.0002 -0.2945 -0.0455
22791W        W39265   9.098   1.481   1.790  0.0993  0.0682 -0.0442
22792W        W39266  15.913  10.939   1.302 -0.1769  0.0930 -0.0587
22793W        W39267  13.470  15.634   0.355 -0.1736  0.2165  0.1804
22794W        W39268   4.860   5.396  14.750  0.0179 -0.0472 -0.1127
22795W        W39269   6.435  14.963  13.614  0.0658 -0.0032 -0.1533
22796W        W39270  18.487   7.185   2.490  0.1245 -0.2012 -0.3178
22797W        W39271  16.956   4.072   3.271  0.0529 -0.0991 -0.0995
22798W        W39272   9.004   9.664  10.715 -0.0240 -0.3322  0.0103
22799W        W39273   2.207   2.517   1.334  0.1314  0.3828 -0.0517
22800W        W39274  16.117  16.352   2.572 -0.1023 -0.2224  0.0124
22801W        W39275   7.819   5.731  12.114  0.1025  0.1982 -0.5692
22802W        W39276  11.015   3.768   2.947 -0.2304 -0.2159  0.0080
22803W        W39277   9.607  12.511  11.296 -0.5295 -0.0482 -0.0891
22804W        W39278   7.431  16.126   0.819 -0.3041 -0.2247 -0.1264
22805W        W39279  10.193   0.423   3.914  0.2773  0.2424  0.0178
22806W        W39280  10.132   9.658   0.620 -0.0487 -0.0800 -0.1313
22807W        W39281   8.094   6.326  12.660 -0.1225  0.2541 -0.0903
22808W        W39282  12.866   8.370   5.184 -0.1515  0.0072  0.3740
22809W        W39283   4.424  14.311  10.420  0.1744 -0.0098 -0.0088
22810W        W39284  10.325  14.304   1.928  0.2328 -0.1292  0.0372
22811W        W39285   7.531  12.236   4.031  0.1606  0.2795  0.2856
22812W        W39286   1.771  13.096  12.113 -0.1038 -0.1405 -0.2738
22813W        W39287  18.904   0.710   0.852  0.0428 -0.0916  0.1054
22814W        W39288   1.003  18.128  11.781  0.0164  0.1087 -0.1002
22815W        W39289  10.257   3.787   1.990 -0.0443  0.1674 -0.2265
22816W        W39290   7.939  18.576   1.275 -0.1466  0.1251  0.3576
22817W        W39291  13.162   3.471   2.664 -0.1145  0.0186 -0.1469
22818W        W39292   5.082   4.516   0.494  0.1404  0.3582 -0.1147
22819W        W39293  16.476  11.715   3.965 -0.0727  0.3062 -0.2386
22820W        W39294   3.124  16.757   4.464 -0.0653 -0.0178  0.1008
22821W        W39295   4.562   8.060   2.218 -0.3695 -0.0370 -0.1749
22822W        W39296  14.972  13.100   2.597  0.2264 -0.1300  0.3058
22823W        W39297  10.038   4.875  10.665 -0.1865  0.2789  0.1150
22824W        W39298  17.653  17.654   1.650  0.3015  0.1357 -0.1079
22825W        W39299  17.438   2.415  12.915 -0.3188  0.2191  0.0468
22826W        W39300  18.018   8.379  13.459 -0.1537 -0.0836  0.0471
22827W        W39301   5.512   4.850  13.025 -0.1947  0.2270 -0.3490
22828W        W39302   6.479  18.312  11.744 -0.0343 -0.2316  0.2632
22829W        W39303   5.257  11.074   1.394  0.1323 -0.4186  0.2005
22830W        W39304   4.973  16.341  14.205 -0.0450  0.1301 -0.3321
22831W        W39305   6.264  16.907   0.120  0.0937  0.0036 -0.1486
22832W        W39306   7.791  12.100  11.800 -0.2841  0.2844 -0.0598
22833W        W39307  16.197  10.157   4.961 -0.1121  0.1800 -0.2574
22834W        W39308   1.880  16.592  11.081  0.1193  0.1752 -0.1360
22835W        W39309   4.180  19.001   1.945 -0.0790 -0.1430  0.0705
22836W        W39310   8.820  10.430   4.567  0.1870 -0.0461 -0.0481
22837W        W39311  11.787  14.228  13.594 -0.2557  0.1559  0.1427
22838W        W39312   0.233  14.292  12.088  0.3952 -0.4073 -0.1948
22839W        W39313  14.962   4.060   4.420 -0.2682  0.2672  0.4782
22840W        W39314   9.074   3.329  10.234 -0.3770 -0.0490 -0.0565
22841W        W39315   5.216  17.127  11.175 -0.0116 -0.3004  0.0323
22842W        W39316   5.413  10.021  10.588  0.2444 -0.1433 -0.2573
22843W        W39317   2.329  13.511  13.111  0.1389 -0.3813  0.1028
22844W        W39318   1.016  13.165   4.607 -0.0618  0.1966  0.0109
22845W        W39319  16.118   8.454   5.184 -0.0423  0.2887 -0.0165
22846W        W39320   2.798  12.625  12.489  0.0331  0.0811  0.0883
22847W        W39321   5.899   7.902  13.250 -0.1323 -0.3298 -0.3356
22848W        W39322   4.301  10.149  13.498 -0.0827 -0.0505  0.2408
22849W        W39323   1.315  13.902   1.274 -0.0891  0.4228 -0.2441
22850W        W39324   1.251   5.109  11.832 -0.0997  0.0908  0.1575
22851W        W39325  10.056   8.905   4.832  0.1170  0.0255  0.0872
22852W        W39326  13.800  10.648  11.249 -0.1703 -0.2634 -0.0877
22853W        W39327   0.223   1.321  13.844  0.0342 -0.0860 -0.3635
22854W        W39328  12.251  15.962   2.881 -0.0378 -0.1565  0.0970
22855W        W39329   9.946  11.310  14.028 -0.1071 -0.0186  0.0879
22856W        W39330   9.432   8.044   4.770  0.1595  0.2554  0.0814
22857W        W39331  11.166   6.238   2.292  0.3421  0.1099 -0.2159
22858W        W39332   4.460   7.918   0.167  0.1076 -0.3889 -0.3394
22859W        W39333   8.208   9.791   5.297  0.4366 -0.1728 -0.1071
22860W        W39334  12.710   4.803   2.412 -0.1301  0.0989  0.0590
22861W        W39335  18.584  18.153  10.707 -0.1490 -0.0522 -0.0296
22862W        W39336   1.492  16.263  11.116  0.0735  0.3588 -0.0018
22863W        W39337   1.157   1.211   1.256 -0.0162 -0.2733 -0.0522
22864W        W39338  16.201  15.990  14.672 -0.3387 -0.2995 -0.0757
22865W        W39339   6.788  11.415   4.752  0.2041  0.0662 -0.0761
22866W        W39340   8.823   0.229  14.669  0.0795  0.1515 -0.0380
22867W        W39341   7.693   7.764  11.530 -0.0831  0.4788  0.2012
22868W        W39342   9.349  15.184   3.580 -0.1825 -0.0788 -0.2340
22869W        W39343  10.266   6.404   5.034  0.2445 -0.0596 -0.0647
22870W        W39344   1.579  11.870  12.270  0.0563 -0.3467  0.2379
22871W        W39345  18.967  12.951   0.711  0.0693  0.1311 -0.0800
22872W        W39346   7.162   9.255   2.003 -0.1032  0.4679 -0.1260
22873W        W39347   2.966   7.221  12.199  0.0393 -0.1851 -0.2077
22874W        W39348   4.026   0.286   2.122 -0.2801  0.1033  0.1335
22875W        W39349  15.128   9.402   1.235  0.0671  0.3359  0.2419
22876W        W39350   3.636  19.123   4.651  0.3340  0.0344  0.2678
22877W        W39351  14.906   4.536   2.437  0.2132  0.0404 -0.0112
22878W        W39352  17.998   9.829  13.556 -0.1855  0.1551 -0.1251
22879W        W39353  14.489  17.542   2.975  0.1626  0.3924 -0.1834
22880W        W39354  15.630   4.796  11.446 -0.1277 -0.0577  0.0477
22881W        W39355  19.038   2.975  13.307  0.2739  0.1125  0.1573
22882W        W39356   3.368   6.449  11.985  0.0596  0.1837  0.3430
22883W        W39357  17.304  15.623   9.784  0.1048 -0.0719  0.4118
22884W        W39358   2.340   4.318  12.447  0.0083 -0.3642 -0.0316
22885W        W39359  10.497   2.171  11.743 -0.0546 -0.0948 -0.2880
22886W        W39360   7.356  11.136   4.023 -0.0485 -0.2142 -0.0142
22887W        W39361  14.921   4.239  11.020  0.0379 -0.0375 -0.0389
22888W        W39362  13.640  15.827  15.087  0.1231  0.0703 -0.2316
22889W        W39363   7.897  16.173  11.747 -0.2152  0.3099 -0.0038
22890W        W39364   7.413  12.480  14.894 -0.2464  0.0772 -0.0304
22891W        W39365  17.827   4.685   3.907  0.0525 -0.2606  0.4306
22892W        W39366   9.895   5.896  11.046 -0.0929 -0.3690 -0.1205
22893W        W39367   2.440   6.623   0.382  0.1162  0.3147 -0.0839
22894W        W39368   9.147  17.629  12.427 -0.1222  0.1700  0.0190
22895W        W39369   6.097   4.501   4.146 -0.2198  0.3252  0.0816
22896W        W39370   5.344   1.864  13.909 -0.1181  0.3802 -0.1997
22897W        W39371  17.760   1.814  11.223 -0.1060  0.1165  0.2339
22898W        W39372  11.203  11.757  13.378 -0.3836 -0.0828  0.4918
22899W        W39373   4.035   7.287   3.288 -0.0308 -0.0890  0.0520
22900W        W39374  13.263   4.906   0.565  0.3498 -0.1978 -0.0885
22901W        W39375   3.215  15.479   3.304  0.0753  0.0507  0.2507
22902W        W39376   1.879   1.445  11.327 -0.2460  0.0023 -0.1070
22903W        W39377  11.812  16.559  12.361  0.0812 -0.1933 -0.2141
22904W        W39378   3.825  12.117   1.770  0.0250  0.0301 -0.0491
22905W        W39379  10.205   0.962   1.153  0.1928  0.0514  0.4524
22906W        W39380   6.959   9.835  14.723  0.2957  0.0045  0.4526
22907W        W39381   7.911   6.755   3.019 -0.1221 -0.1417 -0.1546
22908W        W39382  10.822   5.477   3.684 -0.4000 -0.2722  0.0945
22909W        W39383   8.783   5.855  13.524  0.2451  0.0396 -0.0224
22910W        W39384   6.509  13.433   4.390 -0.1594  0.0845  0.0835
22911W        W39385  12.845  14.510  13.411  0.3979  0.4728  0.0179
22912W        W39386  15.470   7.306  13.670 -0.0495  0.0654  0.1985
22913W        W39387  12.486   0.021  11.397 -0.0110  0.1208  0.1671
22914W        W39388   1.366   2.322   3.619  0.0183  0.0800 -0.1244
22915W        W39389  18.382  10.358  14.199  0.3162 -0.1229 -0.0639
22916W        W39390   1.546   1.679  14.049 -0.0381  0.1161  0.0884
22917W        W39391  12.601   0.048   1.596 -0.0358  0.0162  0.4611
22918W        W39392   9.467  13.748   2.416 -0.1257 -0.0029  0.0339
22919W        W39393  14.215  19.147   3.431 -0.1136  0.0256 -0.1408
22920W        W39394   4.798   1.273   0.816 -0.0346 -0.1741 -0.0064
22921W        W39395  16.221   4.969   0.868 -0.1605  0.1536 -0.0968
22922W        W39396   5.067   6.331   3.273  0.3815 -0.4812  0.1204
22923W        W39397  18.819  11.201   3.453 -0.1380 -0.2398 -0.0022
22924W        W39398  13.885   8.026  13.973  0.0548 -0.1120  0.3109
22925W        W39399  18.255   7.351   1.745 -0.0354 -0.3031  0.2079
22926W        W39400   1.478  12.566   1.402  0.1624 -0.1079 -0.1977
22927W        W39401   8.574  15.262  14.166 -0.1040 -0.1648 -0.0687
22928W        W39402   6.042  11.919   2.664  0.1242 -0.2362 -0.1500
22929W        W39403   9.979   7.651   4.652  0.1709 -0.1634 -0.0242
22930W        W39404  18.934   0.018   4.289  0.3188  0.0526  0.0969
22931W        W39405   8.201  10.879   4.488 -0.1792 -0.2352 -0.4045
22932W        W39406   6.630   8.447   0.853 -0.0498  0.0671  0.1022
22933W        W39407  13.386  15.484   4.342  0.0419  0.0748 -0.4159
22934W        W39408  16.135  10.766   3.538 -0.0648  0.2570  0.2316
22935W        W39409  14.322   9.661  14.677  0.2104  0.1668  0.4789
22936W        W39410   6.859  16.036  12.035  0.2314  0.3781  0.1579
22937W        W39411  18.073   1.687   5.681 -0.0886 -0.1284 -0.1062
22938W        W39412  13.889  15.806  12.268 -0.2547  0.0012  0.1630
22939W        W39413  11.169   0.549   1.544 -0.1144  0.0424 -0.1205
22940W        W39414   0.172  12.644   0.574  0.0367 -0.3113  0.0881
22941W        W39415  16.387   1.937  12.965  0.3565 -0.1147  0.1584
22942W        W39416   1.901  14.936   5.478 -0.0767 -0.0970 -0.2762
22943W        W39417  15.603   0.196  13.262 -0.1083 -0.2978  0.0330
22944W        W39418  10.761  14.804   4.245 -0.0649  0.1735 -0.0577
22945W        W39419  13.091  14.913   2.397  0.2244 -0.0109 -0.0763
22946W        W39420  15.410   3.372   1.130 -0.1286 -0.0080  0.1884
22947W        W39421   6.197  15.626   1.692  0.2622 -0.3120 -0.2231
22948W        W39422  18.545   1.433   2.770  0.1903 -0.0794 -0.3362
22949W        W39423   4.791  17.179  13.123 -0.1450 -0.0119  0.1698
22950W        W39424  15.364  12.566  14.683 -0.0336 -0.1682  0.6222
22951W        W39425  15.385  15.381  12.628 -0.0971  0.0088 -0.3285
22952W        W39426   5.100   0.809  11.918  0.1157 -0.0163 -0.1278
22953W        W39427  10.914  16.947  11.091 -0.0707  0.1250  0.0409
22954W        W39428   9.386   2.555  10.799 -0.0698  0.1060 -0.0447
22955W        W39429  12.023  13.539  14.971  0.1825 -0.1205 -0.2825
22956W        W39430   5.453  14.149   3.033 -0.0925  0.1267  0.0864
22957W        W39431  14.819  13.642   1.269 -0.0451  0.0377 -0.0960
22958W        W39432   0.198   1.121   1.759  0.2963  0.1060  0.1409
22959W        W39433   4.004  10.797   0.133 -0.1006  0.2252 -0.3306
22960W        W39434  17.239   2.865  13.146 -0.0238 -0.2056  0.2859
22961W        W39435   0.317   0.039   4.160 -0.0246 -0.2528 -0.0291
22962W        W39436  16.660   6.052  14.197 -0.0259  0.0527  0.0629
22963W        W39437   8.042  12.591   1.459 -0.4106 -0.1213 -0.0312
22964W        W39438   9.798  17.261   3.239  0.0682  0.0581  0.0901
22965W        W39439   7.178   8.945  14.864 -0.2293 -0.1113  0.0692
22966W        W39440   0.908  17.687   0.296 -0.4274  0.0353 -0.0018
22967W        W39441   1.360   6.101   3.478 -0.0896  0.0448 -0.5280
22968W        W39442   0.558   0.557  11.519  0.0008  0.0769 -0.0317
22969W        W39443   2.819  19.139   5.316  0.1702  0.2004  0.0085
22970W        W39444   7.902   1.588   0.811 -0.1637 -0.0504  0.1348
22971W        W39445  13.917  16.692   4.510 -0.1890  0.1328  0.0292
22972W        W39446  16.229   8.574  14.880  0.0072 -0.1540  0.1278
22973W        W39447   5.657   2.626  12.908  0.2047 -0.2877  0.0775
22974W        W39448   0.187   0.433   0.004 -0.1234 -0.2017  0.0900
22975W        W39449  16.481  12.876   2.130  0.0747 -0.0436 -0.1197
22976W        W39450   8.035  10.295  13.686 -0.1394 -0.3703  0.0233
22977W        W39451   4.368   8.155   0.640  0.2834 -0.3211  0.2763
22978W        W39452  10.123  10.085  13.646  0.2593  0.0434  0.2226
22979W        W39453  17.796   8.441   3.269  0.1189  0.2738  0.1511
22980W        W39454  15.448  15.253   1.828 -0.4430  0.0661 -0.2094
22981W        W39455   8.726   3.558   9.897 -0.1708  0.0005 -0.0519
22982W        W39456   0.450  13.899  14.148  0.1767  0.1642 -0.1278
22983W        W39457   7.891   9.557   4.642  0.4472 -0.0571 -0.1132
22984W        W39458   7.967  15.258   4.746 -0.0979 -0.0928  0.2025
22985W        W39459  18.853  16.174  12.079  0.2382 -0.1300 -0.0515
22986W        W39460  15.935   0.589   5.494  0.2001 -0.0426  0.1759
22987W        W39461   2.604  13.419  10.432  0.0814  0.1421  0.2930
22988W        W39462   6.708  17.354  14.569  0.2362  0.1170 -0.0348
22989W        W39463   1.287  10.476   9.833 -0.0433 -0.1082  0.0195
22990W        W39464   6.542   7.721  14.146  0.2082  0.0521 -0.4053
22991W        W39465   7.059   8.150   1.565 -0.0124  0.2137  0.2898
22992W        W39466   3.700   2.273  10.783  0.3003 -0.2139 -0.4839
22993W        W39467   9.941   6.546   3.567  0.0968 -0.3061  0.0798
22994W        W39468  13.505  11.942   2.665  0.0934  0.0619  0.0469
22995W        W39469   5.107  11.147   3.390 -0.1072  0.1877  0.2652
22996W        W39470  18.378  10.982   0.885  0.1628  0.2701 -0.0663
22997W        W39471   4.823   3.523  10.622 -0.0418  0.3764 -0.0307
22998W        W39472  18.112   3.183   5.163 -0.2425 -0.0961 -0.0958
22999W        W39473  12.410  14.771   4.139  0.2506  0.1659 -0.1326
23000W        W39474  14.429   7.104  11.928  0.0012  0.2537 -0.0763
23001W        W39475  10.125   2.530  12.075 -0.2143  0.1394  0.0656
23002W        W39476   9.750   7.286  14.564 -0.3181  0.0082 -0.0166
23003W        W39477   0.820  15.950  14.349  0.0782 -0.2644 -0.0496
23004W        W39478   2.051   3.788   4.780 -0.0301  0.2861  0.0743
23005W        W39479  11.430  18.879  10.321 -0.1525 -0.0381 -0.0569
23006W        W39480   4.969  15.832   3.927  0.1853  0.0100 -0.2129
23007W        W39481   8.976  14.346   2.127  0.1008  0.1989  0.2289
23008W        W39482   6.642   9.845  12.804 -0.3834 -0.2471 -0.0504
23009W        W39483  13.058   3.987  14.585  0.0923 -0.0413  0.1402
23010W        W39484   5.787  16.680   1.891  0.0122 -0.4310  0.0790
23011W        W39485  15.341   4.718   5.434 -0.1942  0.1445  0.1689
23012W        W39486  11.406   3.103   4.704 -0.0265 -0.0961 -0.3003
23013W        W39487  11.732   0.071  13.613 -0.2969 -0.0502  0.2697
23014W        W39488   1.891  10.283  14.432 -0.1581 -0.0298 -0.0875
23015W        W39489  12.584   4.394  13.432  0.0524 -0.1475  0.2177
23016W        W39490   0.589   1.892  13.444  0.0854 -0.2797  0.0840
23017W        W39491  13.721  17.543  10.305 -0.5598 -0.6336  0.1739
23018W        W39492  14.657   5.395   2.746  0.1066 -0.1615 -0.0184
23019W        W39493   0.537  16.468  13.445 -0.0624  0.2146 -0.1212
23020W        W39494   5.828   4.990  10.034 -0.2208  0.2252  0.3819
23021W        W39495   5.011  17.184  14.570  0.1369 -0.3234 -0.2208
23022W        W39496  11.854   8.457   2.882  0.1833 -0.4334 -0.3045
23023W        W39497   9.948  12.489   0.661 -0.0346 -0.0072  0.0582
23024W        W39498   5.924  14.206  13.913 -0.3891  0.0504  0.0999
23025W        W39499  16.335  15.186   4.165  0.0212  0.2129  0.0561
23026W        W39500  15.136  17.226  11.457  0.0838  0.1317  0.5029
23027W        W39501   5.970   0.440   1.514  0.1124  0.1020  0.2377
23028W        W39502  14.012   9.434   3.551 -0.0409  0.0352 -0.1386
23029W        W39503   4.451   0.370   3.584 -0.1029 -0.0030 -0.2944
23030W        W39504   4.143   5.245   1.470  0.3865 -0.0651 -0.1094
23031W        W39505   6.531   1.165   1.723 -0.1038 -0.2368  0.0301
23032W        W39506   7.318  14.038   2.191  0.0174  0.1292 -0.1565
23033W        W39507  10.119   8.149   3.272 -0.2073  0.0193  0.1566
23034W        W39508  17.017  16.055  12.209 -0.1929  0.4036 -0.1062
23035W        W39509   9.088  11.872  14.789 -0.0666 -0.0641 -0.2949
23036W        W39510   0.167   8.394  11.956 -0.0289 -0.0267 -0.1915
23037W        W39511   7.533  14.065   1.763  0.2766 -0.0699  0.0977
23038W        W39512  14.001   4.316  13.933 -0.1365  0.0545 -0.0943
23039W        W39513  15.929  13.540  13.784  0.0118 -0.2007  0.1963
23040W        W39514   6.133  17.394  14.452 -0.2397 -0.1386 -0.0415
23041W        W39515  15.197  13.731   5.514 -0.0477 -0.0935 -0.0139
23042W        W39516   0.866  12.215  13.556  0.3131  0.2017 -0.1866
23043W        W39517   3.073  18.345  13.802  0.0766 -0.2429  0.1060
23044W        W39518  11.235   7.130  13.192 -0.0473 -0.1102  0.1703
23045W        W39519   1.802  17.240   4.177  0.1520  0.0414 -0.2590
23046W        W39520  15.779   4.529  13.320 -0.0484 -0.0518  0.2669
23047W        W39521   0.386   0.340   2.066 -0.0042  0.1695 -0.0583
23048W        W39522  11.516   1.490   9.993 -0.1092 -0.2196  0.0930
23049W        W39523  13.587   7.216  14.119 -0.0030 -0.0797  0.2788
23050W        W39524   1.379  10.977  11.487 -0.3842 -0.0277  0.2677
23051W        W39525  15.010  12.720   3.978  0.5236 -0.0290  0.0077
23052W        W39526  11.865   1.830  10.201 -0.1537  0.0899  0.1453
23053W        W39527  12.863  15.776   9.420 -0.0375  0.1991  0.0469
23054W        W39528   2.750  18.693  14.286  0.2192  0.1827 -0.2298
23055W        W39529   4.069   0.280   5.691 -0.3087 -0.2187 -0.0944
23056W        W39530  17.924   5.416  13.737 -0.0497  0.0073 -0.1974
23057W        W39531  12.114   3.166  11.905  0.1817 -0.2136 -0.3762
23058W        W39532  13.249   7.930  11.612  0.1530 -0.1006  0.0637
23059W        W39533   8.791  15.276   1.864 -0.2344 -0.2319  0.1537
23060W        W39534  13.440  12.172   1.120  0.3188  0.3721  0.0232
23061W        W39535  16.268  15.600   5.694  0.0270 -0.2100  0.0139
23062W        W39536   4.143  15.952   1.848 -0.2614  0.1523  0.1885
23063W        W39537  19.021  10.434   0.935 -0.0299  0.0595  0.0796
23064W        W39538  12.643  15.893  13.854  0.2250 -0.2054 -0.3377
23065W        W39539   5.222   2.342   4.060 -0.0303  0.0088 -0.2868
23066W        W39540   3.574   0.087  10.210 -0.0073 -0.0504  0.2251
23067W        W39541   2.530  17.377   4.544 -0.0818  0.2577 -0.3304
23068W        W39542  16.001   1.945   1.711 -0.0525 -0.2113 -0.0614
23069W        W39543   0.058   0.659  12.726 -0.3010  0.1920 -0.0418
23070W        W39544  18.191  17.443   3.265 -0.0887  0.0131 -0.3898
23071W        W39545   7.680   9.398   1.106 -0.2415 -0.0373  0.2684
23072W        W39546  18.983   1.495  12.356  0.0471 -0.0563 -0.1096
23073W        W39547   1.872  10.078   2.079  0.1761 -0.1427  0.1251
23074W        W39548   2.703  15.863  13.462  0.0812  0.0535  0.2345
23075W        W39549   8.714   9.499   2.492  0.1088 -0.2803 -0.0294
23076W        W39550  11.084   4.099  13.327 -0.2819  0.1117 -0.1966
23077W        W39551   5.324  12.990  14.137 -0.4447 -0.1057  0.0750
23078W        W39552  17.401   7.241   1.193  0.0170 -0.0956  0.1297
23079W        W39553  14.966  16.693  11.623  0.0091 -0.5857  0.2949
23080W        W39554   1.364  11.332   2.618  0.0341 -0.0198  0.0586
23081W        W39555   0.477  11.394   1.917 -0.2340  0.3294  0.0303
23082W        W39556  12.701   9.613  12.695  0.3026 -0.0667 -0.0502
23083W        W39557  17.906  19.098   4.565  0.1327 -0.1661  0.2593
23084W        W39558  10.527  14.518   2.602  0.1475  0.0152 -0.1422
23085W        W39559   8.675  12.827  10.021 -0.1960 -0.0670 -0.0984
23086W        W39560  13.966   1.694  10.980  0.2246 -0.2302 -0.1332
23087W        W39561  18.931   1.069  12.609  0.0636  0.0460  0.1848
23088W        W39562  13.977  16.506  11.494  0.2782 -0.0206  0.1404
23089W        W39563   0.889   0.443   2.094 -0.1198  0.3434 -0.0660
23090W        W39564   1.688   9.837   1.471 -0.1211  0.2270 -0.0660
23091W        W39565   2.701   6.832  13.925  0.3102  0.0297  0.0197
23092W        W39566   0.802   8.198   3.648 -0.0998 -0.0070 -0.4796
23093W        W39567  16.979  14.480  14.956  0.0796  0.1888  0.2148
23094W        W39568  16.244   8.558   1.717  0.0759  0.3228 -0.1479
23095W        W39569  11.749   6.277   4.451 -0.4739 -0.1468  0.0476
23096W        W39570   8.980  12.523  11.811 -0.3144 -0.0204 -0.2339
23097W        W39571  14.353   7.152   5.025 -0.1654 -0.0844  0.0805
23098W        W39572  15.228  13.799  14.277  0.1285 -0.1975  0.2211
23099W        W39573  16.697   5.787   3.299  0.2436 -0.0002  0.2172
23100W        W39574   1.406   9.655  13.774 -0.2768 -0.0753  0.3933
23101W        W39575   5.907   0.804   2.448 -0.1535  0.0968 -0.1945
23102W        W39576   9.833  16.478   3.416 -0.1640 -0.1051  0.0575
23103W        W39577   8.285   5.629   4.452 -0.0426  0.1557 -0.0635
23104W        W39578   8.831   0.754  10.621  0.2540  0.0591  0.0845
23105W        W39579  15.989   6.417   1.868  0.0041  0.0931 -0.0882
23106W        W39580  13.734   0.571   2.369 -0.0514  0.0379  0.1842
23107W        W39581   2.714  13.667  11.611  0.0324  0.0410 -0.0442
23108W        W39582   0.863  16.601  14.493 -0.0498  0.3642 -0.1344
23109W        W39583  13.943  16.068   2.556  0.1216  0.0668  0.1287
23110W        W39584  12.559  12.761   3.653  0.0562  0.2060 -0.2554
23111W        W39585   1.952  10.910   0.621  0.2931 -0.0981  0.0831
23112W        W39586  13.086  17.775  13.286  0.0549 -0.1991 -0.0257
23113W        W39587  13.500  15.352  12.187  0.0920  0.2836  0.0339
23114W        W39588  16.981   2.114   3.168  0.0004 -0.1846 -0.1257
23115W        W39589   8.568   8.065  12.948 -0.0768 -0.0467  0.0028
23116W        W39590   7.538  14.587  12.812 -0.0964  0.0436 -0.0603
23117W        W39591   8.667  19.104   4.806  0.2719 -0.3937  0.0949
23118W        W39592   4.742   7.576  12.913  0.3935  0.0536 -0.1232
23119W        W39593  11.948   0.748  13.842  0.2036  0.0137  0.0602
23120W        W39594   8.497  13.220   0.080  0.0243 -0.0513  0.2526
23121W        W39595  13.322   7.796  13.267  0.2573  0.0376 -0.0107
23122W        W39596  10.232  11.886   2.990 -0.4448 -0.1390 -0.2825
23123W        W39597   2.458   9.263   4.198  0.0432 -0.0114 -0.1210
23124W        W39598   1.391  18.631   5.029 -0.1398  0.1539 -0.0300
23125W        W39599   3.940   3.623  13.171  0.3003  0.1761  0.0912
23126W        W39600   1.948   1.370   0.079 -0.0313 -0.1317  0.0847
23127W        W39601  11.317  16.399   0.119  0.0307  0.2970 -0.0506
23128W        W39602   6.427   1.924   3.379 -0.0113  0.3751 -0.0988
23129W        W39603  13.981   7.533   3.272  0.2999  0.0504 -0.0985
23130W        W39604  17.019   1.627   1.963  0.0613  0.4043  0.1795
23131W        W39605  12.049  17.620  12.658  0.0562  0.3302 -0.2316
23132W        W39606   0.622   0.316   2.640  0.2523  0.0629  0.0627
23133W        W39607  13.816  13.114  14.282 -0.1766  0.0911 -0.2548
23134W        W39608  16.411  17.060   2.941 -0.0507 -0.0508 -0.0284
23135W        W39609   3.730   6.885  14.485 -0.0127  0.0650 -0.0710
23136W        W39610   2.714   2.010  12.485 -0.0621  0.0850 -0.0933
23137W        W39611   9.446  16.922  12.949  0.0940 -0.0311  0.2113
23138W        W39612  18.542   6.501   1.650  0.2748 -0.2335 -0.0861
23139W        W39613  17.285  15.729   1.081 -0.0151 -0.0805  0.0049
23140W        W39614  15.358  16.785  10.705 -0.2308 -0.1863  0.0376
23141W        W39615  10.981   9.796  13.967  0.1704  0.0127  0.2133
23142W        W39616  10.477  15.833   0.662  0.1804  0.3175 -0.0601
23143W        W39617   6.018  14.177   4.307  0.1156  0.2312  0.0494
23144W        W39618   8.921  19.100   9.564 -0.2774  0.2137  0.1528
23145W        W39619   1.344  12.851  11.923  0.0158  0.2923  0.0903
23146W        W39620   0.967  16.872  13.043  0.1878 -0.0897 -0.0822
23147W        W39621  13.938   9.202  14.585 -0.0476  0.0646 -0.0074
23148W        W39622   3.149   1.139   2.477 -0.1858  0.1965  0.0559
23149W        W39623  16.151   5.685   5.056 -0.2054  0.3796 -0.3071
23150W        W39624   9.493   9.588   4.507  0.1429 -0.1190 -0.1563
23151W        W39625   8.746  12.986   4.802 -0.1396 -0.0919  0.0334
23152W        W39626   2.011  15.336   1.533 -0.3143  0.1004 -0.0435
23153W        W39627   0.245   8.584   0.688 -0.1963  0.0413 -0.1060
23154W        W39628  13.793  13.323  11.691 -0.1228 -0.1896  0.0071
23155W        W39629  10.062   1.719  11.684  0.0866 -0.1830 -0.0416
23156W        W39630  13.707   0.304  14.023  0.0386 -0.2581  0.0473
23157W        W39631  11.542   5.156  14.090  0.0696  0.2871  0.1052
23158W        W39632  18.908   3.587  13.625  0.1720 -0.0883  0.1540
23159W        W39633  17.013  12.070  10.960 -0.0452 -0.0468 -0.0697
23160W        W39634  17.651  14.479  13.039  0.2034 -0.3185 -0.2774
23161W        W39635   3.551   7.238  11.073  0.1601  0.3016  0.0951
23162W        W39636  10.297  14.191   5.109  0.2329 -0.1352 -0.0697
23163W        W39637   2.547  12.906  13.399 -0.1514 -0.1521  0.0081
23164W        W39638   5.447  18.349   1.733 -0.1732  0.1036 -0.0859
23165W        W39639   2.666  18.981  11.049  0.1567  0.1146  0.1532
23166W        W39640  18.687   0.143  14.012  0.1893 -0.2000 -0.0183
23167W        W39641  19.050  10.571  10.858 -0.2568 -0.1411 -0.1300
23168W        W39642  14.866   3.808  14.776 -0.0789  0.0532  0.1740
23169W        W39643   1.799  10.388   3.853 -0.0875 -0.0842  0.1834
23170W        W39644  14.811   9.853  15.079 -0.3060  0.0853 -0.1095
23171W        W39645   0.675   9.128   1.714 -0.1452  0.0324  0.5393
23172W        W39646  18.058  17.294   4.324  0.2672 -0.0516 -0.1655
23173W        W39647  15.883  16.494  12.918  0.0788  0.1589  0.1075
23174W        W39648  14.941   6.546   3.325  0.2460 -0.1000 -0.0082
23175W        W39649  16.555  14.279  15.150 -0.3620  0.1411  0.1296
23176W        W39650   2.647  12.309  14.658 -0.2093 -0.1744  0.0204
23177W        W39651   7.891  17.681  10.612  0.0209  0.1767  0.0849
23178W        W39652   4.945  10.109   1.611 -0.0136  0.2207  0.1917
23179W        W39653  12.887   3.304  13.061 -0.0056  0.5056  0.0040
23180W        W39654   7.481   8.947   3.587 -0.0678 -0.2200  0.2303
23181W        W39655   1.418  13.612  14.575  0.2181  0.0263 -0.1031
23182W        W39656   6.118   1.713   2.521  0.3853  0.1009 -0.1924
23183W        W39657  13.865  15.411  13.598 -0.0684  0.1328  0.2668
23184W        W39658   1.190  18.048  14.706  0.1658  0.0878 -0.0108
23185W        W39659   1.054   9.705   3.692  0.5455  0.3155  0.5443
23186W        W39660   4.020  10.050  11.111  0.0425  0.0425 -0.1428
23187W        W39661  17.887  17.752   3.469  0.3097 -0.2588 -0.1708
23188W        W39662   4.544  17.582  13.370 -0.1622 -0.3904  0.0337
23189W        W39663  13.008   2.735  14.056  0.1002 -0.1511 -0.2324
23190W        W39664   2.888  11.120   1.139  0.2169 -0.0283  0.2132
23191W        W39665   4.052   6.784  11.414  0.3406 -0.2352 -0.0431
23192W        W39666   7.747  18.305  13.244 -0.1352 -0.1310  0.3903
23193W        W39667  13.243  17.747   2.562 -0.0200  0.2886  0.0610
23194W        W39668  17.679  17.263   3.456  0.1900  0.1135  0.3160
23195W        W39669  19.157  15.274   4.242  0.1961 -0.0340  0.2193
23196W        W39670   4.546  11.153  12.682 -0.0669  0.1611 -0.1238
23197W        W39671  15.615  11.764   2.699 -0.4157  0.2103  0.3730
23198W        W39672   1.258   8.546   3.498  0.1915  0.3892 -0.1187
23199W        W39673  16.901  15.898   2.490  0.1278 -0.0330 -0.3776
23200W        W39674   7.825  10.656   2.808  0.2156 -0.0323  0.0453
23201W        W39675   8.225   8.591  14.634  0.1104 -0.1004 -0.0931
23202W        W39676  15.945   4.023   0.463  0.1961 -0.0818  0.1020
23203W        W39677   3.614  16.821   0.126 -0.0669 -0.4218  0.0009
23204W        W39678   8.422   1.366   3.099  0.3299  0.3477  0.1668
23205W        W39679   1.532  16.086  12.068 -0.0466  0.1484  0.0608
23206W        W39680   4.869  16.964   5.097 -0.0491  0.0762 -0.0776
23207W        W39681  14.948  13.262   4.203  0.3317 -0.0597  0.0552
23208W        W39682   6.448   9.229  12.341 -0.3283 -0.2688 -0.1302
23209W        W39683   0.827   7.311   3.319  0.1292 -0.2114 -0.1417
23210W        W39684  13.350   0.965  13.332  0.4978 -0.1584  0.1997
23211W        W39685  12.104   7.357  12.807 -0.0757 -0.1938 -0.0765
23212W        W39686  14.331  11.531   1.888  0.0753 -0.1079 -0.3253
23213W        W39687   2.643   0.329  11.626 -0.1672 -0.0809  0.2232
23214W        W39688  11.691  12.004  13.125 -0.4643 -0.0972  0.3070
23215W        W39689  17.120  14.616  12.011  0.0750 -0.0678  0.0889
23216W        W39690   7.251  12.423  10.500  0.0001 -0.0593 -0.0643
23217W        W39691   8.428  15.532   3.678  0.1889  0.0235 -0.1160
23218W        W39692  14.258   3.556  11.619  0.0695 -0.2240  0.4432
23219W        W39693  18.224  13.931  11.455  0.1669 -0.2332  0.0452
23220W        W39694   1.887   2.809   2.426  0.0210 -0.0459  0.0464
23221W        W39695   9.978  16.462  12.258  0.0644  0.0950  0.2775
23222W        W39696  10.374   9.350   0.128  0.1539  0.1661 -0.0873
23223W        W39697   0.137   6.843  10.365 -0.2572 -0.3256  0.4111
23224W        W39698  13.178   7.058  13.668  0.1439 -0.0982  0.1446
23225W        W39699  16.385  13.858   4.689 -0.3402 -0.1478  0.1122
23226W        W39700   2.791   0.960  13.931 -0.3878 -0.2837 -0.0328
23227W        W39701   0.957  14.036   4.780 -0.0077  0.3332  0.1927
23228W        W39702   2.649  16.206  14.447  0.1360 -0.1191  0.1814
23229W        W39703   2.668   6.874   3.672  0.5359 -0.3476  0.1304
23230W        W39704  10.692   7.180   2.240  0.1576  0.1501  0.1949
23231W        W39705   1.930  15.454  12.243  0.0996 -0.2751 -0.0764
23232W        W39706  14.077  13.582   4.907 -0.0508  0.0028  0.2054
23233W        W39707   2.429  11.262   1.902 -0.1539  0.3438 -0.2051
23234W        W39708   8.931   1.237   2.911 -0.0283  0.4043  0.2774
23235W        W39709   6.337   1.433  12.103  0.2877  0.1063 -0.0831
23236W        W39710  17.534  12.730  14.261  0.1036 -0.0351  0.1696
23237W        W39711  18.870  10.452  10.402  0.0688  0.2357 -0.0666
23238W        W39712  11.680   1.970   2.547 -0.0066 -0.3021  0.0265
23239W        W39713   6.262   1.284   2.693  0.1674  0.1890  0.1691
23240W        W39714  10.370  15.649   4.520  0.0187 -0.1117  0.0913
23241W        W39715   2.466  16.800   3.461  0.2139  0.2228 -0.1867
23242W        W39716  12.142  12.426   1.913  0.0881 -0.2031  0.4007
23243W        W39717   6.648   9.204  12.844  0.1530 -0.1960 -0.1297
23244W        W39718   8.533   3.261  11.978  0.4202 -0.1963  0.0333
23245W        W39719   8.454   2.791  11.163  0.0094  0.3571  0.1272
23246W        W39720  18.532  15.598   2.969  0.3762 -0.2089 -0.4813
23247W        W39721  13.552  12.950  10.778  0.1020  0.1390  0.0201
23248W        W39722  18.422  13.798  14.817 -0.0470  0.1167 -0.1431
23249W        W39723   5.118   7.110  10.990  0.2118  0.2357  0.5060
23250W        W39724   8.448   2.590   5.001 -0.2152  0.2688 -0.2317
23251W        W39725  14.859  14.318   4.730 -0.3448 -0.1032 -0.0435
23252W        W39726  16.607  17.671  11.499 -0.0040  0.0442 -0.1118
23253W        W39727  13.194   6.906   3.781 -0.0731  0.0435 -0.0393
23254W        W39728   5.824  18.585   0.915  0.1544  0.3018 -0.1812
23255W        W39729   2.524   5.245  14.617 -0.1071 -0.0533 -0.2724
23256W        W39730  11.073  18.416  13.359 -0.0087 -0.0599  0.0787
23257W        W39731  15.823  12.336   1.177 -0.0555  0.2228  0.0848
23258W        W39732  12.454   6.486  13.888  0.1719  0.1563 -0.3639
23259W        W39733   8.109  18.175   0.338  0.1264 -0.3992 -0.2304
23260W        W39734  17.083  12.172   0.666 -0.1642 -0.1536 -0.0466
23261W        W39735  12.678  15.522  14.208  0.0978  0.2531  0.0053
23262W        W39736   3.503  13.635   0.870 -0.0515  0.1149  0.2770
23263W        W39737   6.112  12.270  12.062  0.1859  0.3572  0.1685
23264W        W39738   6.066   9.300  10.281 -0.1049  0.3907  0.3501
23265W        W39739  13.794   5.285  14.472  0.1819  0.0856  0.0144
23266W        W39740   4.305   5.627  14.772 -0.1230 -0.1071 -0.3507
23267W        W39741   9.472  12.653   2.242  0.4961  0.5315 -0.0467
23268W        W39742  13.026  18.666  10.873 -0.0700  0.2934 -0.3305
23269W        W39743  17.314   2.769   3.947  0.0499  0.1180 -0.0851
23270W        W39744   8.641   7.058   2.283  0.3005 -0.2193  0.0102
23271W        W39745  14.806  11.823  14.376 -0.2376 -0.1815 -0.0356
23272W        W39746  16.839   2.467  15.019  0.0924  0.1720 -0.0419
23273W        W39747   2.097  13.862   5.097 -0.0855  0.2181  0.0296
23274W        W39748   7.251   3.061   4.383 -0.0670  0.5004  0.1172
23275W        W39749  14.563   9.956   1.593  0.0683 -0.0188 -0.1406
23276W        W39750  10.616   1.397  13.364  0.0273 -0.1770  0.0781
23277W        W39751  14.205   9.208   2.764  0.0051  0.2447  0.1544
23278W        W39752  15.536   0.392  13.702  0.0764 -0.1492  0.0920
23279W        W39753  14.227   6.793   1.024  0.2589  0.0644  0.0030
23280W        W39754  16.773  11.941  11.498 -0.1015 -0.0463 -0.1602
23281W        W39755   2.605   1.195   3.441  0.2583  0.4086 -0.0776
23282W        W39756   8.409  17.766  11.997 -0.0546 -0.0769  0.2904
23283W        W39757   0.254  18.185  11.322  0.1651 -0.5193 -0.1308
23284W        W39758  11.357  14.797   2.658  0.1914  0.0738 -0.0263
23285W        W39759   9.009  14.449   0.555  0.0372 -0.2202  0.0261
23286W        W39760  10.303  16.568  11.386 -0.1618  0.1086  0.2167
23287W        W39761   0.088   6.480  12.952  0.0376 -0.1720 -0.1707
23288W        W39762   5.137   4.941   3.051 -0.0799 -0.3739  0.0432
23289W        W39763   9.380   5.562  12.473 -0.1232 -0.0166 -0.4406
23290W        W39764   9.583  16.384   0.854  0.0071  0.0271 -0.0685
23291W        W39765  10.150   8.110  10.597 -0.1749  0.3970 -0.1999
23292W        W39766   8.773   8.217   5.986  0.2711  0.0190  0.2621
23293W        W39767   8.978   0.046   2.954  0.2255 -0.0384  0.0228
23294W        W39768   7.596   8.902   1.197 -0.0882  0.0775  0.0303
23295W        W39769  15.409   9.600  13.943  0.0555  0.2842  0.4402
23296W        W39770   2.974  13.722   4.625  0.2081 -0.2577  0.0017
23297W        W39771  14.216   6.605   4.990 -0.1130  0.2561  0.1103
23298W        W39772   1.082   8.242  13.388 -0.1364 -0.2396  0.0862
23299W        W39773  17.184  16.224  14.259  0.0186  0.2668 -0.1237
23300W        W39774   2.907  13.081  10.279 -0.1165 -0.0156 -0.0919
23301W        W39775  17.598   5.141  13.178 -0.1878  0.2872  0.2256
23302W        W39776   2.006   4.547  10.635 -0.1916  0.0428  0.0366
23303W        W39777  13.113  18.617  13.470 -0.1924 -0.0220  0.0633
23304W        W39778   2.914   8.538   2.764 -0.2193 -0.2076  0.0165
23305W        W39779   0.771   3.035   1.303 -0.1694 -0.0535  0.2285
23306W        W39780   0.282  16.088   4.225  0.0838 -0.0799 -0.2021
23307W        W39781   2.712  14.119   1.361  0.2676  0.2168 -0.3118
23308W        W39782  16.923   6.239   3.450  0.0159 -0.2485 -0.0848
23309W        W39783   4.494   4.429   1.952  0.2612 -0.0064 -0.3735
23310W        W39784   8.692   7.811  14.295  0.1625 -0.2195  0.4047
23311W        W39785  15.233   6.081  11.278  0.0129 -0.0845 -0.0883
23312W        W39786  11.315  14.599   1.417 -0.0727  0.2159 -0.3087
23313W        W39787  18.896  12.689  13.067  0.0299 -0.0165 -0.2685
23314W        W39788   8.931   1.122  13.306 -0.3908 -0.0880  0.4487
23315W        W39789   3.621  15.014  12.899  0.2139  0.1623 -0.2979
23316W        W39790  12.242  15.936  10.823  0.1999 -0.1048 -0.2345
23317W        W39791  17.825   6.698   2.453  0.2863 -0.0953 -0.0736
23318W        W39792  14.676  16.417  10.950  0.0398 -0.0009  0.3985
23319W        W39793  13.187  10.599  12.924 -0.1847 -0.1783  0.0442
23320W        W39794   7.480   0.333  12.858  0.0269 -0.1609  0.0495
23321W        W39795   4.594   4.064  12.613  0.1701  0.1695 -0.2873
23322W        W39796  14.574  16.912  12.331 -0.0931  0.2429 -0.0198
23323W        W39797   3.205   9.578  14.789 -0.1852 -0.1192 -0.1024
23324W        W39798   5.544   3.282   2.655 -0.0284 -0.2511  0.0598
23325W        W39799   1.403  12.520   4.035  0.0430  0.1298 -0.0054
23326W        W39800   5.630   8.032  12.025 -0.1986 -0.0332  0.0992
23327W        W39801   4.515   4.440  14.567  0.0926  0.0642  0.1451
23328W        W39802  12.479   0.831   3.144 -0.2792 -0.2095 -0.1296
23329W        W39803   5.942   3.587   9.628 -0.4996  0.0665 -0.0990
23330W        W39804   2.927  11.709  13.637 -0.0186 -0.2073  0.1538
23331W        W39805  13.865  17.574   3.279 -0.0924 -0.3626  0.0806
23332W        W39806   0.584  11.909   4.513 -0.1498  0.2269  0.0243
23333W        W39807   8.092   9.839   2.349 -0.0259 -0.0473 -0.0191
23334W        W39808  12.843   6.148   1.023  0.2082  0.0232 -0.0500
23335W        W39809   5.501   3.931   3.174  0.0993  0.0768 -0.1607
23336W        W39810   5.394  16.117   1.515 -0.0252 -0.1300 -0.0783
23337W        W39811  17.162   6.996  13.181  0.0761 -0.1730  0.2716
23338W        W39812  12.749   8.807  14.623  0.2073  0.1400  0.1926
23339W        W39813  12.534   1.259   2.823  0.0892  0.0585 -0.1046
23340W        W39814   2.604   2.566  11.256  0.1382  0.2219  0.0162
23341W        W39815  16.811   7.459   9.425  0.0136  0.1334 -0.1648
23342W        W39816   3.291   0.849  11.336 -0.0632 -0.0936  0.0146
23343W        W39817   2.882   6.095   1.303  0.0438 -0.0056  0.4790
23344W        W39818   0.964  11.523   1.907  0.0634 -0.4195  0.0444
23345W        W39819   8.576   6.511   1.038  0.2071  0.2010  0.0373
23346W        W39820   1.074   6.188  10.687 -0.1481  0.1901  0.1159
23347W        W39821   6.511  13.199   2.264 -0.0162 -0.3611 -0.2696
23348W        W39822   8.512   5.599   3.486 -0.0565  0.4686 -0.0487
23349W        W39823   4.036  12.902   4.203  0.1810  0.2308  0.0860
23350W        W39824  16.628  12.703   4.343  0.0309 -0.2455  0.2740
23351W        W39825  11.482   0.545  11.189  0.0109  0.4221 -0.0518
23352W        W39826  12.134  13.130  13.340  0.0086 -0.1269  0.0012
23353W        W39827  10.128  18.902   1.934  0.4247  0.1155 -0.2717
23354W        W39828   7.232  16.561   2.065  0.1806 -0.0301  0.0154
23355W        W39829   2.906  14.550  15.025  0.0479 -0.1219  0.1422
23356W        W39830  10.839   7.506   4.606 -0.0982 -0.1546  0.0438
23357W        W39831  16.103  10.242   3.336  0.1402  0.0914 -0.1987
23358W        W39832   6.882   8.050   1.037  0.3839 -0.2301  0.1524
23359W        W39833  12.406   0.475  11.734 -0.0815 -0.1887 -0.2227
23360W        W39834   0.994   5.105   2.589  0.3114 -0.3547 -0.2086
23361W        W39835   6.358  18.820   0.090 -0.2885 -0.2900  0.1707
23362W        W39836  16.355  12.007  12.376  0.0931  0.1905  0.1070
23363W        W39837   5.431   7.966  15.100  0.1060 -0.1180 -0.1590
23364W        W39838  11.011   5.045   3.390 -0.2270  0.1127 -0.1896
23365W        W39839  11.124  12.789   1.830 -0.1076  0.1835  0.1059
23366W        W39840   0.939  15.039  10.584  0.1403  0.1311 -0.3445
23367W        W39841  11.690   7.481  13.128 -0.2626  0.0225  0.0926
23368W        W39842  16.538   3.026   1.135  0.1620  0.0475 -0.1519
23369W        W39843   8.330  18.364  11.203  0.0806 -0.0353 -0.2034
23370W        W39844   6.128  12.938   0.087 -0.2266 -0.0062  0.2001
23371W        W39845  10.723   8.248  13.917  0.4246 -0.0927  0.1715
23372W        W39846  18.623  14.371  12.800 -0.1992 -0.1268  0.0765
23373W        W39847  14.635  12.378   5.366 -0.1880 -0.0352 -0.1338
23374W        W39848   9.237   7.182  12.221 -0.2919  0.1687 -0.0942
23375W        W39849  12.801   1.621  11.319  0.2057  0.1545 -0.0006
23376W        W39850  16.177   6.782   2.974 -0.0386 -0.1071 -0.2960
23377W        W39851  14.537  11.888  14.979 -0.1603 -0.1532  0.0482
23378W        W39852   9.890  13.561  12.235  0.3278  0.0116  0.2020
23379W        W39853  15.076   3.406  14.492  0.0203 -0.1070  0.1477
23380W        W39854   9.647  11.988  14.867  0.1431  0.2617 -0.1363
23381W        W39855   6.132   3.587   5.522 -0.0952 -0.3329  0.1227
23382W        W39856  14.450   1.908   3.358 -0.0385  0.1300  0.1946
23383W        W39857   8.858  17.812   3.042 -0.0700 -0.0813  0.0996
23384W        W39858   2.804   3.400   3.325  0.3162 -0.0010 -0.0256
23385W        W39859   3.179  17.471   2.549 -0.0794 -0.0024 -0.0055
23386W        W39860  13.219   5.705   1.180 -0.2502  0.0358 -0.1231
23387W        W39861  10.484   2.870  12.294 -0.0250 -0.0051 -0.1491
23388W        W39862   4.892   0.813   0.555  0.1672  0.0906 -0.2304
23389W        W39863   4.847   6.547   4.703  0.0508 -0.1244 -0.0764
23390W        W39864  15.253   6.334  13.500  0.0291 -0.1381 -0.0663
23391W        W39865  18.200   3.265   3.786 -0.0213  0.2880  0.2445
23392W        W39866   0.050  19.147   0.172  0.0710  0.3032 -0.0058
23393W        W39867   0.297   7.226  15.031 -0.0123  0.0962  0.1829
23394W        W39868  11.728  17.902   4.337  0.3592 -0.2377  0.1091
23395W        W39869   2.739   5.697  11.156 -0.2074  0.4990 -0.1925
23396W        W39870  12.990  15.787   0.236  0.1083  0.0769 -0.1416
23397W        W39871   5.227   1.227   1.624 -0.0666 -0.1840 -0.4090
23398W        W39872   6.078   8.049   0.855  0.1079 -0.4118 -0.1218
23399W        W39873  12.057   3.025   2.954  0.0716 -0.0082 -0.0228
23400W        W39874  13.209  11.271  11.451 -0.0839 -0.1637 -0.0525
23401W        W39875   2.131   5.666  14.513 -0.0873  0.1728  0.0454
23402W        W39876   7.914  11.292   4.934 -0.1321 -0.0422 -0.1254
23403W        W39877   3.055  14.117  10.737 -0.0003 -0.0482 -0.1101
23404W        W39878   8.578  11.742  14.694 -0.1012 -0.1873 -0.1042
23405W        W39879   6.850  14.731  14.907  0.2539 -0.0059 -0.1892
23406W        W39880  10.361   8.945  11.626  0.2058  0.1249 -0.1593
23407W        W39881   2.851  15.704  12.164  0.0379 -0.0806 -0.0782
23408W        W39882  11.049   3.078  10.064 -0.0709 -0.0068 -0.1345
23409W        W39883   9.373   8.053  11.260  0.1499  0.0028 -0.4047
23410W        W39884  15.916  12.062   1.584  0.0595  0.0460 -0.0392
23411W        W39885  12.080  11.505   3.247 -0.0514 -0.0027  0.0919
23412W        W39886  13.846  17.312  15.046 -0.1030 -0.1552 -0.1376
23413W        W39887   0.953  12.555   1.104 -0.1888 -0.0767  0.1356
23414W        W39888  11.607   7.529   1.201 -0.2984 -0.1061  0.1020
23415W        W39889   8.970  14.883  13.762  0.0325 -0.0673  0.0863
23416W        W39890  19.092  10.929   3.751  0.0062 -0.0198 -0.0526
23417W        W39891  17.474  14.379  10.751  0.0275 -0.1460 -0.1950
23418W        W39892   6.236  14.762   3.703  0.3158  0.2400  0.3346
23419W        W39893   0.460  19.018   2.870 -0.0234  0.3824 -0.0865
23420W        W39894   3.872  13.105  10.313 -0.0043 -0.1279 -0.0894
23421W        W39895  18.699   9.113   4.157  0.1346 -0.3064 -0.2154
23422W        W39896   9.994   1.376  13.360 -0.2291 -0.1807  0.1769
23423W        W39897   8.420   4.720   1.375  0.1767  0.2709  0.0371
23424W        W39898   7.560   4.553   5.227 -0.0684 -0.1181 -0.2440
23425W        W39899   8.379   8.187   1.119 -0.1718  0.3301 -0.0536
23426W        W39900  19.141   4.972  14.860  0.5174 -0.0339  0.2142
23427W        W39901  17.373   3.031  11.295  0.0164  0.0011  0.0284
23428W        W39902   7.323   1.822  14.394 -0.2353 -0.3187 -0.3155
23429W        W39903  18.003   0.650  15.094 -0.0142  0.2280 -0.0887
23430W        W39904  18.855  17.944  13.577  0.0533  0.0084  0.2617
23431W        W39905  10.629  17.079   0.214  0.4166 -0.3233  0.1032
23432W        W39906  12.157  10.634   4.896 -0.2642  0.0827  0.1272
23433W        W39907   6.504   2.869   2.242 -0.0231 -0.0553  0.0039
23434W        W39908   8.736   9.215   3.374  0.2752 -0.0689 -0.0416
23435W        W39909   6.672  16.573   5.153  0.1568  0.1829  0.3506
23436W        W39910   0.071   3.869   3.347  0.0275  0.1143  0.2418
23437W        W39911   9.838  15.069   2.834 -0.1734 -0.1610  0.1195
23438W        W39912  15.417  13.858   1.930  0.0440 -0.1397  0.1225
23439W        W39913  17.082   5.681   1.958  0.0472  0.4443 -0.0239
23440W        W39914   2.244  17.253   0.605 -0.0479  0.1147 -0.1410
23441W        W39915   6.951   2.437  13.531 -0.3244  0.1782  0.0261
23442W        W39916  16.041  11.698  11.153 -0.0137 -0.1409  0.2546
23443W        W39917   1.922   5.061   3.776 -0.0451  0.0266  0.2761
23444W        W39918  18.047  16.941   1.535 -0.5099 -0.4080 -0.0867
23445W        W39919   6.500   1.709   1.014  0.3407  0.1409 -0.1064
23446W        W39920   7.781   3.971   3.792 -0.0555 -0.1643  0.2170
23447W        W39921   5.213   0.152  14.633 -0.2269  0.2121  0.2604
23448W        W39922   8.299   7.416   3.368  0.0112  0.3456  0.1941
23449W        W39923  13.868  13.263   2.424  0.1403 -0.1688  0.3103
23450W        W39924   1.191   8.254  10.792  0.3560  0.2615 -0.2522
23451W        W39925  13.233  12.231   4.304  0.0890 -0.0114  0.0686
23452W        W39926   5.133  10.244  12.272 -0.0872  0.3067  0.0924
23453W        W39927   5.086  12.370  12.081 -0.1886  0.4386  0.1813
23454W        W39928   2.912  17.813  15.138 -0.0126 -0.0318  0.2783
23455W        W39929  17.611  19.140  14.233  0.1783  0.1430 -0.0784
23456W        W39930  12.810  10.818  13.377  0.1305 -0.0671  0.1539
23457W        W39931  14.812  11.895  10.378  0.0353 -0.2284 -0.3952
23458W        W39932  13.785  15.171   4.325  0.0633  0.1382  0.2666
23459W        W39933   5.156   2.678  14.810  0.2614  0.0217  0.1645
23460W        W39934   5.433  12.478  14.043  0.4581 -0.4752  0.1172
23461W        W39935   5.987  11.071   3.131 -0.1132 -0.1456 -0.1213
23462W        W39936   2.514   6.758   2.669  0.0643  0.0564 -0.0588
23463W        W39937   2.697   1.675  13.389 -0.2418  0.0320  0.2285
23464W        W39938  11.186   2.488   5.580 -0.2045  0.1987 -0.1041
23465W        W39939   7.526   4.109   2.048  0.0694 -0.1505 -0.1209
23466W        W39940   5.908  18.304  11.825  0.2434 -0.2851 -0.0668
23467W        W39941   7.011  11.627  13.027  0.1031 -0.1956  0.0074
23468W        W39942   9.747  11.778   3.974 -0.1576  0.1672 -0.2659
23469W        W39943  10.782   5.390   0.448  0.0076  0.1632 -0.3555
23470W        W39944   2.847  17.151   4.239 -0.1548 -0.2787 -0.0425
23471W        W39945  18.225  12.345   3.860  0.1349  0.5263  0.0246
23472W        W39946  13.110  13.803  12.004  0.2670  0.2643  0.1004
23473W        W39947  11.777  15.414  12.130 -0.1170  0.0641 -0.1346
23474W        W39948  18.043   3.379  15.013 -0.0595  0.0576  0.1375
23475W        W39949   3.420  14.246  13.636 -0.2682 -0.1416  0.1221
23476W        W39950  11.886   5.063   0.405 -0.2859  0.3734 -0.4063
23477W        W39951   4.867  14.333   9.162  0.0410  0.1109  0.0386
23478W        W39952  13.773  17.089   2.544  0.2069  0.0711  0.1324
23479W        W39953   3.061  15.942   4.285  0.2917  0.4276 -0.3280
23480W        W39954   0.858  14.256  10.494 -0.0748  0.1697  0.0568
23481W        W39955   6.224  12.047   4.439 -0.0195 -0.0456  0.2264
23482W        W39956   1.325   0.783   0.766 -0.0573 -0.1764  0.1312
23483W        W39957   7.645  17.868   0.154 -0.6545  0.3947  0.0439
23484W        W39958   0.887  17.271  13.479  0.0543  0.0653  0.0977
23485W        W39959   8.324   4.708   4.550  0.1130  0.0047 -0.1006
23486W        W39960   5.914  14.644  13.045  0.1555  0.0125  0.1657
23487W        W39961   8.218  16.783   0.723 -0.2289 -0.0523  0.0983
23488W        W39962  11.567   4.371   3.152 -0.0169 -0.0157 -0.1440
23489W        W39963  11.386  18.044   1.817 -0.1321 -0.0827 -0.1662
23490W        W39964   1.239  12.867   1.806 -0.2371  0.1431 -0.1934
23491W        W39965  11.110   4.790  10.583 -0.0175  0.2578 -0.1170
23492W        W39966   8.506  10.857  13.405  0.3877 -0.0408 -0.1152
23493W        W39967   2.872  14.299  11.768  0.1530  0.3275  0.0938
23494W        W39968   2.148   0.249   5.510 -0.0008 -0.2446 -0.3022
23495W        W39969   8.895   1.773   0.389  0.0901  0.0644 -0.0383
23496W        W39970   9.382   0.528  10.712 -0.1772 -0.0626 -0.2992
23497W        W39971   7.489  16.302   0.375  0.0512 -0.2666  0.1759
23498W        W39972   2.722   8.565  14.300 -0.2168 -0.4045  0.2157
23499W        W39973   7.857   3.064  10.576  0.2603  0.1733 -0.0811
23500W        W39974  11.711  11.114   3.266 -0.4271  0.1865 -0.2291
23501W        W39975  11.389  15.731   0.772 -0.2237  0.3768  0.2067
23502W        W39976  15.415   3.110   9.277  0.1307  0.2865  0.1973
23503W        W39977  10.967  11.781   3.451  0.1605 -0.1454  0.1314
23504W        W39978   5.524   1.992   9.629  0.1072 -0.1712 -0.1196
23505W        W39979   6.456  12.467  11.611 -0.1218 -0.2063 -0.3353
23506W        W39980   1.587   8.833   2.688 -0.0495 -0.1373 -0.0472
23507W        W39981   5.828   0.590   1.950 -0.0737 -0.1205  0.0252
23508W        W39982  10.307   7.836   2.815  0.2391 -0.3002 -0.0587
23509W        W39983  10.626   8.000  12.018  0.0678 -0.2305  0.0314
23510W        W39984  17.520  16.493  13.900 -0.0226  0.0136 -0.1144
23511W        W39985  11.835   4.035   3.915 -0.0439 -0.1621 -0.1419
23512W        W39986   1.764  15.960  14.313 -0.0124  0.1396 -0.0134
23513W        W39987  11.084  14.032   1.452  0.2077  0.0039  0.3978
23514W        W39988   4.039   2.948   0.831 -0.2505  0.1101 -0.2335
23515W        W39989  12.732  15.832   1.910 -0.0613 -0.0666  0.0004
23516W        W39990  10.584   3.623   3.099  0.1920  0.1401  0.2557
23517W        W39991   1.256   9.831   1.819 -0.0469  0.1924 -0.0528
23518W        W39992   1.193   1.061   0.339  0.0636 -0.0464  0.0089
23519W        W39993  16.816   2.847   4.612 -0.1835 -0.4105  0.1171
23520W        W39994  16.033   9.597  13.805 -0.0304 -0.0747 -0.0080
23521W        W39995  16.529  12.030  13.025  0.1101  0.4487 -0.1137
23522W        W39996  13.785   6.146  13.720 -0.0796 -0.2687 -0.1492
23523W        W39997   7.597   2.330  11.895  0.0389 -0.1532 -0.0251
23524W        W39998   2.517  12.099   2.359  0.2214 -0.0507 -0.0064
23525W        W39999  15.132  16.625   3.136 -0.2173  0.4231 -0.0190
23526W        W40000   3.486   3.573  14.040 -0.1635 -0.0004 -0.0943
23527W        W40001  15.787   1.912  14.316  0.0491 -0.0814  0.0790
23528W        W40002  15.047  18.076   0.323 -0.2623  0.0992  0.3499
23529W        W40003   6.769  17.140  10.206  0.1353 -0.2455 -0.0248
23530W        W40004   5.630   7.148   5.521 -0.1123 -0.1404 -0.1262
23531W        W40005   5.443   0.514   0.546 -0.3042 -0.2804 -0.1645
23532W        W40006   0.075  10.701   4.562 -0.0041 -0.0913 -0.0793
23533W        W40007   3.759  10.220   3.985 -0.0798  0.0546 -0.1864
23534W        W40008  16.209   5.597  13.640  0.0866  0.2715  0.0661
23535W        W40009  14.669  14.743   3.142  0.2410 -0.3276  0.0743
23536W        W40010   7.550   1.661  13.282 -0.1121 -0.0266 -0.0965
23537W        W40011  16.849   0.797   1.450 -0.0507 -0.1437  0.1224
23538W        W40012   4.995  15.071  13.177  0.0056 -0.0313 -0.0397
23539W        W40013  12.331  13.978   2.556  0.0674 -0.3153 -0.1192
23540W        W40014   0.021  13.883   0.432  0.0904 -0.1803 -0.0221
23541W        W40015   3.507   2.192   2.095  0.2545 -0.0614 -0.1625
23542W        W40016  13.045   1.532  14.922 -0.2628  0.2484 -0.2984
23543W        W40017  15.261  12.505  11.903 -0.2765  0.0034 -0.0079
23544W        W40018  13.678   4.817   1.607 -0.3413  0.2179  0.1234
23545W        W40019   6.310   0.094  11.880  0.1290  0.3036  0.0093
23546W        W40020  18.356   7.369   3.086 -0.0563  0.0532  0.2629
23547W        W40021  16.347   3.349  11.901 -0.0561  0.3004 -0.0047
23548W        W40022  10.149  14.420  13.173 -0.1624 -0.0317 -0.0455
23549W        W40023  12.208   3.132  12.392 -0.0272  0.0482 -0.0132
23550W        W40024   6.041  10.902  14.392 -0.0274 -0.3501  0.2668
23551W        W40025  11.415  16.227  12.081  0.3869  0.0492 -0.2903
23552W        W40026   4.857  12.062  10.393  0.1966 -0.1504 -0.0977
23553W        W40027  17.596   1.013   0.764 -0.1691 -0.0461 -0.0504
23554W        W40028   1.945  10.723   1.110  0.0637 -0.2365 -0.3482
23555W        W40029   6.860  16.775  12.101 -0.3762 -0.3448 -0.0636
23556W        W40030  12.716   0.901  10.412  0.0977 -0.0525  0.0952
23557W        W40031   5.463   7.370   0.433  0.1553 -0.0415 -0.0857
23558W        W40032  12.667   0.922   1.582 -0.0675  0.0149  0.1334
23559W        W40033   4.679  13.019   2.806  0.2675 -0.1311 -0.0212
23560W        W40034  18.190  16.128   1.577  0.4105 -0.0387  0.2027
23561W        W40035   9.580   8.160   0.199 -0.0191 -0.1720  0.2862
23562W        W40036   6.371   8.357  12.119  0.0212  0.2341 -0.2288
23563W        W40037   9.233  16.630   3.697 -0.2168 -0.1071  0.0551
23564W        W40038  10.918  13.512  14.847 -0.0052  0.1983  0.0444
23565W        W40039   7.629   3.095   4.063  0.1023 -0.0917 -0.2384
23566W        W40040  17.397   8.957  14.970  0.2091  0.0110  0.1525
23567W        W40041   5.930   4.456  15.090  0.2107 -0.3263 -0.0265
23568W        W40042  14.432   2.318  13.515 -0.0528  0.0154 -0.0096
23569W        W40043  13.113  15.771   0.734  0.2535  0.3955  0.2475
23570W        W40044   9.223   3.954   2.518 -0.0658  0.3236  0.0902
23571W        W40045   4.481  13.640   0.442 -0.1428  0.2974 -0.1877
23572W        W40046  18.194   5.595   4.404  0.0352  0.0366 -0.0869
23573W        W40047  12.818  15.047   3.977 -0.0802  0.4055  0.2823
23574W        W40048  12.134  14.042  13.168 -0.1088  0.1721  0.0603
23575W        W40049   5.176   6.210  12.085  0.0252 -0.3650 -0.2274
23576W        W40050  15.045  14.168  12.857  0.1879 -0.0127  0.1376
23577W        W40051  12.577   6.151  14.831  0.6147 -0.0542 -0.1609
23578W        W40052   0.331   9.573  10.519  0.0317  0.0615  0.2327
23579W        W40053   8.334  10.072   0.991 -0.1628 -0.4051  0.2986
23580W        W40054   3.680   4.148  10.523  0.3938 -0.2809  0.2078
23581W        W40055  18.843   8.432  10.907 -0.2349 -0.2027 -0.1824
23582W        W40056   7.104   6.960   1.194 -0.1059  0.2115 -0.1340
23583W        W40057   4.557  11.452  13.533 -0.1874  0.0993 -0.0988
23584W        W40058  13.784   0.717  13.716  0.1628  0.1823 -0.2462
23585W        W40059  19.157  12.592  13.885 -0.0699  0.1168 -0.0676
23586W        W40060  17.178   8.600  12.866 -0.2996 -0.1629 -0.1279
23587W        W40061  14.398  12.946  12.489  0.0390 -0.1274  0.2637
23588W        W40062   8.321   6.258   2.408  0.2139 -0.2031  0.3215
23589W        W40063   6.249   8.096   2.283  0.0702  0.1163  0.0914
23590W        W40064  13.636  14.952  13.482 -0.1793  0.0343 -0.1119
23591W        W40065   3.005  15.701  13.099 -0.0817  0.1166  0.0293
23592W        W40066   9.391   7.890  13.332 -0.0841  0.0600 -0.2372
23593W        W40067  18.584  10.920  12.863  0.3464  0.1301 -0.0439
23594W        W40068  17.040  18.013  13.235  0.1146 -0.1479 -0.0464
23595W        W40069  12.620  13.360  14.438 -0.0062 -0.0972  0.1894
23596W        W40070   2.576  17.479  11.859  0.1287  0.0314 -0.2830
23597W        W40071  10.373  10.242   0.758  0.5052 -0.0471 -0.0156
23598W        W40072  10.639   0.289   0.977 -0.1494  0.2949  0.0453
23599W        W40073   9.903  15.067   1.562  0.1377 -0.1136  0.0752
23600W        W40074  15.097  10.086  11.774 -0.0170  0.1165  0.1657
23601W        W40075   8.234  10.129   3.918  0.2546 -0.0433 -0.1252
23602W        W40076   7.896   6.509  14.477  0.0548 -0.1910 -0.1663
23603W        W40077  14.584  11.608  13.927 -0.2044 -0.1008  0.2580
23604W        W40078   3.015   1.183  14.421  0.1006  0.0990  0.1163
23605W        W40079   8.183   6.903  10.200  0.0282  0.0959 -0.1143
23606W        W40080  11.919   2.086   3.095  0.3458  0.0308 -0.1739
23607W        W40081  14.215   9.542   4.288  0.2275  0.2274 -0.0896
23608W        W40082  18.717  15.354  11.674 -0.2878  0.3002  0.0247
23609W        W40083  11.514  12.924   2.557 -0.0338 -0.1607  0.1554
23610W        W40084   7.671  15.485  11.459  0.1318  0.1792  0.0045
23611W        W40085  17.485   9.697  14.419 -0.2036  0.2723  0.3441
23612W        W40086  12.552   3.450  12.103 -0.1881  0.0773  0.1368
23613W        W40087  15.694  16.657   0.663  0.2882  0.0452 -0.1070
23614W        W40088  17.334  18.911   3.742 -0.1512 -0.2819  0.2803
23615W        W40089  17.545   8.472  10.950 -0.1227 -0.0186 -0.3001
23616W        W40090  10.342  17.630  11.200 -0.1357  0.0442  0.0924
23617W        W40091   6.494  10.625   5.138  0.1865 -0.0628 -0.1684
23618W        W40092   2.704  16.836  11.247 -0.1364  0.2053  0.0445
23619W        W40093   6.837  11.634   3.300  0.1678  0.0885  0.0187
23620W        W40094   0.771  12.887  11.781  0.0501 -0.0475  0.1375
23621W        W40095   6.475  18.573   3.256  0.3454 -0.0714 -0.0443
23622W        W40096   5.962   8.975   3.341  0.2009  0.0785  0.1556
23623W        W40097  11.519  17.488  10.837  0.1434 -0.3125  0.2158
23624W        W40098  15.981   5.474  12.363  0.1113  0.2179  0.0984
23625W        W40099  13.397   4.307   2.454 -0.0238  0.4333  0.0056
23626W        W40100   7.199   0.143  13.983 -0.5543 -0.0292  0.0674
23627W        W40101   9.687   9.460  11.479 -0.1882 -0.1235 -0.1426
23628W        W40102   8.463  13.370   2.073 -0.1867  0.1296  0.1046
23629W        W40103  11.306   9.428  13.691  0.1521  0.0232 -0.1432
23630W        W40104  10.986   0.414  11.358 -0.2704  0.0607 -0.2775
23631W        W40105   3.760   0.091   0.710  0.2431 -0.2155 -0.0842
23632W        W40106   0.546   9.421  13.848  0.0645 -0.3900 -0.2837
23633W        W40107  18.799  14.933   0.324  0.0021 -0.3490  0.0164
23634W        W40108   9.822   2.313   1.404 -0.1567  0.0768  0.2850
23635W        W40109   4.825   8.889   2.387 -0.1563  0.0716 -0.1116
23636W        W40110   2.548   7.981  14.415  0.1828  0.0104 -0.1676
23637W        W40111   4.897   0.362   3.329 -0.2911 -0.1992 -0.1700
23638W        W40112  17.245   0.772   2.667 -0.1076  0.2084 -0.0821
23639W        W40113   2.281   8.838  11.933 -0.0406 -0.1640  0.0395
23640W        W40114  15.435  14.884  13.968 -0.2465  0.1502 -0.2473
23641W        W40115  11.317   6.874   2.033 -0.1942 -0.0828 -0.1033
23642W        W40116   7.977   3.850  13.296  0.2328 -0.0924  0.1864
23643W        W40117  16.669  14.344   0.473  0.0052  0.3737  0.0136
23644W        W40118  10.113  18.408   4.812 -0.0207  0.0508  0.0062
23645W        W40119  15.526   2.151   0.810 -0.0767 -0.0558 -0.3321
23646W        W40120   0.057   7.211   2.842 -0.2465 -0.1748  0.1614
23647W        W40121   9.576   2.693   4.437 -0.2820 -0.2626  0.5100
23648W        W40122  14.626  17.336  13.629  0.4167 -0.0501 -0.0826
23649W        W40123  10.899  14.917   3.330  0.2162  0.0784  0.1318
23650W        W40124   1.322   2.105   1.467 -0.0545 -0.0378  0.3140
23651W        W40125   0.243  17.262   1.174  0.1177 -0.3958  0.1784
23652W        W40126   5.855   5.053   1.894  0.1011 -0.1365  0.0178
23653W        W40127  12.739  13.056   4.017 -0.0216 -0.4555 -0.2879
23654W        W40128  15.363  17.527   3.787  0.0343  0.1566 -0.2232
23655W        W40129  13.070  13.582   2.549  0.0635 -0.1136 -0.2317
23656W        W40130  17.839   6.449  13.417  0.0235  0.2022 -0.0556
23657W        W40131   4.800   5.166  13.852  0.0693 -0.2551 -0.1108
23658W        W40132  10.316   2.195   2.821  0.0293 -0.1429 -0.3093
23659W        W40133   3.743   4.035  13.948 -0.1465 -0.4287 -0.1991
23660W        W40134   4.361   1.698   0.108 -0.0795  0.1198  0.1054
23661W        W40135  10.458   6.949  12.610 -0.0975 -0.1472  0.0577
23662W        W40136  14.839   3.473   3.806 -0.0197  0.1496 -0.0732
23663W        W40137  16.209   2.483   2.225 -0.0574 -0.2769  0.1646
23664W        W40138   2.369   8.455  13.704  0.2284  0.0158  0.1928
23665W        W40139  13.441  16.852   2.860 -0.0457 -0.2712 -0.1224
23666W        W40140  16.760  15.020   2.222  0.1794 -0.2310 -0.2209
23667W        W40141   6.933   4.805  12.023  0.0513 -0.0410 -0.1798
23668W        W40142  18.706   2.372   5.909 -0.0035  0.3361 -0.1561
23669W        W40143   3.681  17.454   2.540  0.1724 -0.0014  0.0071
23670W        W40144  12.981   6.363   3.882  0.1442  0.2540  0.1277
23671W        W40145  15.094  15.930  11.810  0.2775  0.0882 -0.0578
23672W        W40146  11.967   1.387  12.880  0.0910 -0.1021  0.1780
23673W        W40147  16.725  10.062  13.708 -0.0711  0.0074  0.2477
23674W        W40148   3.247  10.363  11.944 -0.2113  0.1209  0.0005
23675W        W40149  18.358   5.135   2.124 -0.2567 -0.0904 -0.0513
23676W        W40150   7.512   7.421  12.324  0.1327 -0.4092 -0.2485
23677W        W40151  13.197  14.316  13.780  0.2401 -0.0069 -0.0198
23678W        W40152  16.998   5.771   2.526 -0.0124 -0.2094  0.1841
23679W        W40153   3.901  14.944   3.145 -0.0440 -0.0081 -0.3330
23680W        W40154   1.052  12.062   9.825 -0.0541  0.1925 -0.1859
23681W        W40155  16.823   2.865   4.083  0.3381 -0.1923  0.2279
23682W        W40156  12.668  15.582   1.412  0.4783  0.5335  0.1253
23683W        W40157   7.112   1.623  12.962 -0.1099  0.1358  0.0717
23684W        W40158   5.054   4.536  14.415 -0.1052  0.1640  0.2575
23685W        W40159   1.167  15.995   0.101 -0.0265  0.1344 -0.2600
23686W        W40160  18.002  16.482   1.242  0.2057 -0.2248 -0.0834
23687W        W40161   0.924  14.928  10.052  0.0068 -0.1515 -0.3306
23688W        W40162   2.809   0.336  12.228 -0.1676  0.0583  0.2812
23689W        W40163  14.806  15.532   1.061  0.0298  0.1097 -0.1006
23690W        W40164  10.453   2.547   8.959 -0.2033  0.1124 -0.0412
23691W        W40165  11.970  14.796   0.450 -0.1480 -0.0673 -0.2007
23692W        W40166   0.497  12.289   5.561  0.1444 -0.2694  0.0041
23693W        W40167   3.425   2.338  13.079 -0.2570  0.1116 -0.0517
23694W        W40168   8.128  14.199  11.911  0.0260  0.4586  0.0791
23695W        W40169   3.011  18.719  11.880 -0.1759 -0.1302 -0.0400
23696W        W40170   9.712   1.272  14.950 -0.5330 -0.3501 -0.0841
23697W        W40171  11.798   1.439   2.211 -0.3858 -0.0421 -0.0933
23698W        W40172  13.582  18.010   2.270  0.2850 -0.2856  0.0786
23699W        W40173   6.022  15.863   2.896 -0.0964  0.4503 -0.0711
23700W        W40174   9.651   9.891   0.521 -0.2475  0.1203  0.2206
23701W        W40175   3.931   4.541   3.599  0.0395 -0.0183  0.4533
23702W        W40176   7.774   4.872  10.249  0.1369  0.2612  0.0085
23703W        W40177  15.226  12.898  12.221  0.0273  0.2924 -0.2769
23704W        W40178   6.172  13.791   1.463  0.0352  0.0724 -0.0647
23705W        W40179  17.639  18.073   0.462 -0.2805  0.3142 -0.0107
23706W        W40180   7.323  18.964   3.246 -0.2279 -0.0366 -0.0576
23707W        W40181   0.869   4.335   9.831 -0.2699 -0.2405 -0.4409
23708W        W40182  11.316  13.631   4.396 -0.2358 -0.1014 -0.1755
23709W        W40183   9.570  14.049  11.562 -0.4241  0.2730 -0.0720
23710W        W40184  18.485   7.720  14.008 -0.1690  0.1050  0.1612
23711W        W40185   7.818  11.443   3.921 -0.3175  0.2875 -0.1351
23712W        W40186   2.213   9.338   4.649 -0.0675 -0.0224  0.1763
23713W        W40187  14.949   3.230  13.650  0.0371  0.1744  0.3433
23714W        W40188  12.642   9.454   5.083  0.2532  0.1124  0.1843
23715W        W40189  15.247  11.070   5.313  0.4070 -0.3500 -0.0309
23716W        W40190   1.201   0.706  14.943  0.3332  0.1095 -0.0421
23717W        W40191   1.092  10.329   1.620  0.1836  0.1194 -0.0368
23718W        W40192  14.077   3.953   4.253  0.3344  0.1555  0.1302
23719W        W40193  14.908   9.105   5.541 -0.2793 -0.0452  0.2800
23720W        W40194   8.568  13.006   3.784  0.1251  0.3622  0.1901
23721W        W40195   1.835   4.130  10.817 -0.1425 -0.0681 -0.3454
23722W        W40196   7.829  14.514   0.210 -0.1269  0.0921  0.1560
23723W        W40197   6.792  10.643  14.892 -0.2087  0.1451  0.3082
23724W        W40198  18.107   6.724  13.806 -0.0959 -0.1619  0.0703
23725W        W40199   3.852  18.147  14.043 -0.0638  0.2152  0.0262
23726W        W40200   9.473   3.627   0.653 -0.1355 -0.2615 -0.0804
23727W        W40201  14.815  11.984   1.973  0.0525  0.4668 -0.2133
23728W        W40202  16.767  10.389  13.297 -0.0216  0.0627  0.3493
23729W        W40203  12.388   4.447   0.725  0.0284 -0.0499  0.0585
23730W        W40204  14.337   3.101  10.813 -0.3748 -0.1465 -0.3650
23731W        W40205  17.858   4.015  12.170  0.0158  0.0892  0.1569
23732W        W40206  16.503   3.617   2.114 -0.1277  0.0676  0.0153
23733W        W40207  11.879  12.402  14.275 -0.1668 -0.1049 -0.3536
23734W        W40208   2.386   5.885  12.467 -0.0309 -0.2392  0.1291
23735W        W40209   8.182   6.563  13.061 -0.1783 -0.5186 -0.2212
23736W        W40210   8.437   1.627  10.797  0.2252  0.1958  0.1559
23737W        W40211   1.953   5.201   4.451  0.2139  0.1120 -0.2377
23738W        W40212  14.295   3.172  12.830 -0.0418  0.0882  0.0318
23739W        W40213   1.852  17.926  11.523  0.1733  0.1228  0.2923
23740W        W40214  12.061  16.991   3.076 -0.1554  0.2826 -0.1953
23741W        W40215   9.435   5.818  12.933  0.0201  0.0064  0.0439
23742W        W40216   4.969  16.062   0.260  0.2381  0.0214 -0.2580
23743W        W40217   4.554   5.831   0.381 -0.1633  0.1338  0.1566
23744W        W40218  12.341   2.460  12.342 -0.0695  0.0018  0.0232
23745W        W40219   1.582   1.370   3.661 -0.0848  0.0887  0.1176
23746W        W40220  12.692  18.507  11.316 -0.0796 -0.1973 -0.4291
23747W        W40221   7.659  13.652   1.568 -0.0772 -0.1926 -0.1168
23748W        W40222   1.333   8.271  12.854 -0.1221 -0.4509 -0.0450
23749W        W40223  11.880   9.278  10.968  0.0445 -0.0674  0.0882
23750W        W40224   8.024   1.163   2.243  0.0481  0.1799 -0.2231
23751W        W40225   5.575  11.532   4.660 -0.2873  0.3381 -0.4722
23752W        W40226  12.264   1.072  12.521  0.0197  0.2515  0.2861
23753W        W40227  12.546  15.194   3.141 -0.2624  0.1887 -0.0119
23754W        W40228  18.026  15.657   0.444 -0.0117 -0.3334  0.1533
23755W        W40229   0.014   0.185  13.622  0.0979  0.2991 -0.2141
23756W        W40230   1.809   0.505   2.666 -0.1721 -0.0943 -0.2337
23757W        W40231   4.607  11.741   2.334  0.0462  0.3175 -0.2707
23758W        W40232  12.710  17.965   2.313  0.1829  0.1500 -0.0018
23759W        W40233   9.902  18.240   0.739  0.1452 -0.1201  0.2324
23760W        W40234  12.814  13.914   3.699  0.0035 -0.1910  0.0304
23761W        W40235   7.283   2.789  14.193 -0.2982 -0.0118 -0.1197
23762W        W40236  12.106  18.294  13.324 -0.2792  0.1329 -0.2743
23763W        W40237   2.901   0.463   1.216  0.1928 -0.3782  0.2628
23764W        W40238  15.815   8.394   4.657  0.1470  0.2410 -0.4297
23765W        W40239   3.202   6.594   3.694 -0.1132  0.3318 -0.2727
23766W        W40240  17.353   0.132  14.635  0.3399 -0.1053  0.0542
23767W        W40241  11.601  10.995   1.867 -0.0472 -0.0152 -0.0250
23768W        W40242  13.834  10.425  12.570 -0.3676 -0.0665 -0.0803
23769W        W40243  14.330   1.399   5.067 -0.1782  0.0182  0.3980
23770W        W40244   6.512  18.047   2.309  0.0440 -0.1658 -0.3727
23771W        W40245   3.130   2.427   4.918  0.0324 -0.1652 -0.1213
23772W        W40246  11.789   9.042   1.450  0.3690 -0.1726 -0.1683
23773W        W40247  16.307  11.158   1.030 -0.1802 -0.1838  0.2055
23774W        W40248  13.998  13.189  12.236  0.0844 -0.1823 -0.2269
23775W        W40249  12.990   6.098  14.466 -0.2723  0.1452  0.0371
23776W        W40250   9.636  10.523   1.202  0.2068 -0.0964 -0.0828
23777W        W40251   0.780  10.699   2.402 -0.3571 -0.1133 -0.1867
23778W        W40252  11.813  13.734   4.271  0.0598 -0.0332  0.1505
23779W        W40253   7.439   4.129  11.537  0.1194 -0.1063  0.0382
23780W        W40254  11.012   2.033   1.285 -0.0365 -0.0781  0.0575
23781W        W40255   6.616   6.665  14.267  0.1509 -0.0319  0.0349
23782W        W40256   1.833   3.145  12.651  0.0886  0.1231  0.1066
23783W        W40257   9.692  19.089  11.282  0.2293 -0.1762  0.2902
23784W        W40258   8.032   0.250   1.273 -0.0828  0.1350  0.0410
23785W        W40259  15.368   3.864  10.756 -0.1715  0.2824  0.2570
23786W        W40260   4.234  14.677  14.380  0.2177  0.0070  0.1408
23787W        W40261   8.530   7.274  10.105  0.1046  0.0380 -0.0755
23788W        W40262   0.579   9.695  11.880  0.1247 -0.1359  0.0409
23789W        W40263   8.161  15.606  13.356  0.0175 -0.3100 -0.2169
23790W        W40264   3.204  16.598  13.845 -0.1548 -0.1486 -0.1040
23791W        W40265   7.560   3.085  12.401  0.1774  0.1992  0.0085
23792W        W40266   0.716   1.206  12.683  0.1319 -0.1554  0.5497
23793W        W40267  16.769   7.345   4.848 -0.0717  0.0425  0.1912
23794W        W40268   6.448  14.983   2.448 -0.3353 -0.4021 -0.2076
23795W        W40269  17.726  11.656   0.817 -0.1870  0.2983  0.1847
23796W        W40270  18.496   7.808   9.897 -0.0937 -0.0778  0.0080
23797W        W40271  16.397   8.846   4.344 -0.1368 -0.0915  0.2844
23798W        W40272   6.056  13.224   4.649 -0.2766 -0.1986 -0.0845
23799W        W40273   3.634  17.564  12.991  0.1695  0.1589 -0.1278
23800W        W40274   4.267   2.191  14.665  0.2431  0.2689  0.0884
23801W        W40275  10.204   4.834  12.396  0.3296  0.0637 -0.0131
23802W        W40276   6.763   6.351  10.457  0.2053 -0.2951  0.0558
23803W        W40277  15.638   1.651   1.471  0.0366  0.0280  0.0929
23804W        W40278   1.646  17.421  13.212 -0.2519  0.0728  0.1710
23805W        W40279  16.596  17.257   2.503  0.3591  0.1397 -0.2261
23806W        W40280   6.199  15.334   3.043 -0.1077  0.2381  0.2668
23807W        W40281  10.184   2.588   9.357 -0.1040  0.0159  0.1007
23808W        W40282   3.059   7.023  14.246  0.0719  0.3251 -0.0276
23809W        W40283   5.641   9.608  14.621 -0.1887  0.0736  0.3544
23810W        W40284   8.700   1.551   9.967  0.0270  0.1441  0.1066
23811W        W40285   1.640  13.521   5.036 -0.1328  0.2559  0.0791
23812W        W40286   8.290  15.611   2.604  0.1517 -0.0539 -0.2355
23813W        W40287   8.695   4.720  10.039  0.2770  0.1474 -0.0784
23814W        W40288   2.929   4.405   3.905 -0.0284 -0.0779  0.1448
23815W        W40289  13.977   8.263   0.428  0.0088 -0.0337  0.3672
23816W        W40290   7.237   6.006   0.080 -0.1658  0.2248 -0.1096
23817W        W40291  14.519   1.378  12.594  0.2709 -0.1136 -0.1237
23818W        W40292  13.581  13.868  11.955 -0.0839  0.1309  0.1941
23819W        W40293   6.101   4.392   2.559  0.0471  0.5537 -0.0765
23820W        W40294   2.434  15.773   3.618 -0.2084  0.2805  0.1428
23821W        W40295  10.108  11.374   2.073  0.1265  0.0631 -0.1550
23822W        W40296  14.855   1.060   4.583 -0.2567  0.2832  0.2115
23823W        W40297  10.160  12.449   1.529 -0.1355 -0.3183 -0.1111
23824W        W40298  11.253   2.379   2.651  0.0693  0.0191 -0.1091
23825W        W40299   2.141   0.976  14.631 -0.0873 -0.1940 -0.0180
23826W        W40300   6.276   0.942   2.089  0.0254 -0.1106  0.0136
23827W        W40301   0.007   2.754  12.199  0.1584  0.2526 -0.0023
23828W        W40302   8.162   6.231   2.874  0.4460 -0.0718  0.1191
23829W        W40303  12.770   2.502   9.602 -0.0388 -0.0679 -0.3923
23830W        W40304  16.695   7.115   3.721  0.2462  0.0865  0.2092
23831W        W40305  17.569   6.701   3.188  0.0701  0.4022  0.1867
23832W        W40306   1.477  18.130  11.827  0.1478 -0.0003  0.1687
23833W        W40307   2.520  15.140   2.321  0.2153  0.1638  0.1972
23834W        W40308   6.747   4.209   3.205 -0.1197 -0.0010 -0.0226
23835W        W40309   9.082  18.472   0.400  0.2351  0.1202  0.0502
23836W        W40310  11.112   0.852   0.053 -0.2497  0.3325  0.1511
23837W        W40311  18.878   3.180  11.726 -0.1244  0.1114 -0.1860
23838W        W40312   6.779  17.538   4.456  0.0150  0.1847  0.1363
23839W        W40313   3.289   5.262   3.409 -0.0105  0.1608 -0.1039
23840W        W40314   5.379  14.953  14.574  0.1804 -0.0999  0.0046
23841W        W40315  16.538  13.639  11.236 -0.0544  0.0530 -0.2659
23842W        W40316  16.203  10.644   3.030  0.1379  0.1044 -0.1413
23843W        W40317   0.785   8.201  12.989 -0.0419  0.0352  0.2310
23844W        W40318  16.992   8.134  11.536  0.3237 -0.2560  0.3693
23845W        W40319   3.989  10.122  14.822 -0.0378 -0.1057  0.0609
23846W        W40320  12.166  12.857  14.311  0.2272  0.1324 -0.1082
23847W        W40321   0.144  15.864   3.744 -0.1041  0.1293 -0.1663
23848W        W40322  18.833  10.022   0.118  0.2781  0.1780 -0.2726
23849W        W40323  15.458   0.777  12.488  0.2166 -0.0989  0.4076
23850W        W40324  14.452  16.978  13.987 -0.2250 -0.1443  0.0772
23851W        W40325  12.490   8.893   3.962  0.0348  0.0448  0.0862
23852W        W40326   4.888   3.009  11.846  0.1935 -0.2658  0.0993
23853W        W40327   4.989  15.687  11.388  0.0196 -0.1916  0.0078
23854W        W40328  15.074  17.155  10.255  0.3417 -0.0818  0.0957
23855W        W40329  10.011  16.773   1.801  0.2149  0.1568 -0.2811
23856W        W40330  10.226  17.766   9.381  0.1201 -0.1726  0.0596
23857W        W40331  11.859   4.171   2.688  0.0863 -0.0118 -0.0739
23858W        W40332  13.283  17.082  12.746  0.2833  0.0388  0.0036
23859W        W40333   7.759   2.165  10.700 -0.0976  0.0038 -0.0428
23860W        W40334   5.612   1.158  10.381  0.1917 -0.3156  0.4375
23861W        W40335  15.821  19.051   3.754  0.0313 -0.0592 -0.0358
23862W        W40336  13.114  14.371  11.179  0.0383  0.1179  0.1226
23863W        W40337  11.707   6.344   2.448 -0.0819 -0.2038  0.2654
23864W        W40338   4.231   0.234   0.384  0.0240  0.1677 -0.1095
23865W        W40339   1.820  19.157   4.100  0.0252 -0.0307  0.2281
23866W        W40340   6.342   2.285  11.963 -0.0064 -0.1187 -0.2920
23867W        W40341  10.082  11.936   2.050 -0.1251  0.1926  0.2620
23868W        W40342   5.247  11.450   3.729  0.4718  0.1400  0.1286
23869W        W40343  12.848  12.364  10.779 -0.0316  0.0299  0.0348
23870W        W40344   8.351   0.714   4.860 -0.2044 -0.1916 -0.0655
23871W        W40345   7.545  18.017  11.820  0.1694  0.0967  0.1395
23872W        W40346   1.315  18.916   3.297 -0.2507  0.0246  0.0540
23873W        W40347  15.771  18.638  10.750 -0.0995  0.0767 -0.2955
23874W        W40348  16.969  16.165  11.625 -0.1046 -0.1730  0.0602
23875W        W40349   3.625  17.174  12.635 -0.2068 -0.1571 -0.1740
23876W        W40350   3.394  17.609   0.089  0.1687  0.1049  0.4317
23877W        W40351   3.777   1.997  11.483 -0.1598 -0.0318  0.0374
23878W        W40352  16.215   4.951   0.265  0.3043 -0.1094  0.1007
23879W        W40353   2.019   2.646  12.653  0.3628 -0.2498  0.0051
23880W        W40354  10.233  13.600  13.196  0.0110  0.1418  0.2634
23881W        W40355  16.402   5.306  12.208  0.0133  0.0615  0.0870
23882W        W40356   0.479   8.141   0.362 -0.1026  0.1885  0.0128
23883W        W40357   0.268   1.091   5.877 -0.2052 -0.2076 -0.2246
23884W        W40358  14.602  15.948   3.716 -0.1056  0.0405  0.1887
23885W        W40359   2.736  11.649  12.823 -0.2475  0.1154 -0.0566
23886W        W40360  11.723  10.771   4.236  0.5033  0.3107 -0.0980
23887W        W40361   6.457   5.322  14.621 -0.1908  0.1002  0.0675
23888W        W40362   9.952  16.066   1.271  0.2962 -0.2076  0.2460
23889W        W40363   3.415  19.118  12.852  0.0934  0.3123 -0.1090
23890W        W40364   3.039   6.724  12.892  0.0698  0.1385 -0.0087
23891W        W40365  10.583   0.438   0.194  0.1240 -0.0552  0.2201
23892W        W40366  13.283  10.783  14.768 -0.2483 -0.0723  0.0687
23893W        W40367  11.863   4.117  14.104  0.1059  0.3966 -0.1813
23894W        W40368  17.645  11.860  12.040  0.0854  0.1264 -0.1415
23895W        W40369  18.987  15.004  14.265  0.2911 -0.0098  0.2103
23896W        W40370   1.120  17.541  12.608 -0.0948  0.2411  0.2160
23897W        W40371  18.594   9.578   1.269 -0.6063  0.0393 -0.1567
23898W        W40372  15.856   2.841   1.829 -0.2316  0.1966  0.3299
23899W        W40373  14.497   9.035  14.694  0.1694  0.3119 -0.0242
23900W        W40374   9.174   5.823  10.667  0.1497  0.1293 -0.1116
23901W        W40375   0.355   9.899  13.009 -0.0926 -0.2320 -0.0728
23902W        W40376  17.150   3.116  10.855  0.2688 -0.0104 -0.1465
23903W        W40377  17.207   5.090  15.139 -0.2315  0.1699 -0.0638
23904W        W40378  17.874  11.039   2.105 -0.1055 -0.0162  0.1034
23905W        W40379  15.917  13.819  15.029 -0.1105 -0.1523  0.1511
23906W        W40380  12.458   1.131  13.127  0.0053  0.1220  0.1907
23907W        W40381   3.472  14.035  11.043  0.2902  0.2780  0.0854
23908W        W40382   3.244  14.783   0.140 -0.2570 -0.1041 -0.1550
23909W        W40383  15.934   6.307  14.184  0.0523 -0.1115  0.0790
23910W        W40384   7.401   2.648   2.731  0.0099  0.2480  0.0055
23911W        W40385  14.920   2.072  12.552 -0.1162 -0.2406  0.2032
23912W        W40386   4.428   7.379   1.884 -0.2015 -0.3281 -0.1672
23913W        W40387   7.439   4.856   1.595 -0.0559 -0.1839 -0.1874
23914W        W40388   7.081   8.866   4.155 -0.0985 -0.1085 -0.1613
23915W        W40389   5.719   3.324  13.612  0.3080  0.2089  0.1331
23916W        W40390  15.543  12.891  11.684 -0.0915  0.0228  0.0645
23917W        W40391   4.844  18.421  14.054 -0.1360 -0.0269  0.1102
23918W        W40392  14.197  18.303   4.165 -0.1671 -0.0637 -0.0553
23919W        W40393  18.053  16.845   3.529  0.0984  0.1373  0.0748
23920W        W40394   1.585  11.790   1.059 -0.1319 -0.0197  0.2723
23921W        W40395  13.407   6.748   5.108 -0.0923  0.3073  0.0899
23922W        W40396   0.514   4.815  12.739 -0.0955 -0.0773  0.2002
23923W        W40397  18.863  13.078   1.848  0.1434 -0.1444 -0.2686
23924W        W40398  12.126  11.920  12.278 -0.1075  0.0695  0.2850
23925W        W40399   1.835  11.595   4.810  0.0539  0.2055 -0.0186
23926W        W40400  11.968   2.762   2.021 -0.2034  0.1936 -0.2194
23927W        W40401   0.131   7.893  12.456 -0.2449 -0.1303 -0.0469
23928W        W40402   2.001   7.293   2.257  0.0735 -0.1548  0.3343
23929W        W40403   0.577  14.950  14.886 -0.1012 -0.2904  0.1050
23930W        W40404   3.488   8.468   0.938  0.1397  0.0638  0.0219
23931W        W40405  15.800  14.971  11.453 -0.1938  0.0694  0.2963
23932W        W40406   2.933   2.457  12.339 -0.1939 -0.4565 -0.1140
23933W        W40407  18.133  14.229  11.855 -0.0303  0.1565  0.0482
23934W        W40408   2.464   0.769   1.024 -0.0028 -0.1727 -0.2537
23935W        W40409   8.937   9.315   5.304  0.4982  0.0631 -0.1841
23936W        W40410   7.171  15.392  11.338  0.4997  0.1833 -0.0646
23937W        W40411  13.412  18.488  10.616  0.0633  0.0849 -0.1929
23938W        W40412   3.414   2.347  11.226  0.0706  0.1212 -0.1604
23939W        W40413  18.466  11.920   2.664  0.3114  0.0930  0.1469
23940W        W40414  15.719   4.266  11.460 -0.0037 -0.0219 -0.4272
23941W        W40415  14.035  14.682  14.492  0.0266  0.1754  0.1242
23942W        W40416   7.615  18.451  10.061  0.0088  0.1298 -0.0974
23943W        W40417   7.569   1.216   2.439  0.0886  0.0441  0.2681
23944W        W40418  15.582   3.663  12.337  0.3808 -0.3021 -0.1103
23945W        W40419   1.659   8.270   0.020 -0.0050  0.0299 -0.2485
23946W        W40420   1.435  13.327   1.935 -0.0610 -0.1506  0.4925
23947W        W40421   5.675   9.185   1.913 -0.1767  0.0467 -0.2766
23948W        W40422   6.879   3.651  12.648 -0.0945 -0.3220  0.0742
23949W        W40423  15.830  14.365  14.612  0.0861  0.2725  0.1770
23950W        W40424   1.098  11.848   4.941  0.2612 -0.0432  0.0184
23951W        W40425   7.474  14.862   0.371 -0.0931  0.0558  0.0472
23952W        W40426  15.843  18.598  11.270 -0.1868  0.3536  0.3182
23953W        W40427   9.859  18.269   3.598  0.0628 -0.2201 -0.0688
23954W        W40428   8.618   3.354   1.641  0.1484  0.1036 -0.0173
23955W        W40429  11.832   5.556   0.454 -0.0571 -0.1076  0.1231
23956W        W40430   6.401  10.913   9.473 -0.0230 -0.0087 -0.3114
23957W        W40431  15.405  14.100  11.322  0.2906 -0.1757  0.3295
23958W        W40432  15.246   3.412  14.000 -0.1968 -0.4056 -0.2403
23959W        W40433  16.193   7.981  10.716 -0.1396  0.3725  0.0264
23960W        W40434  15.044   8.349   2.463  0.1723 -0.1401  0.0177
23961W        W40435  15.634  14.797  12.699  0.1643 -0.1041 -0.0802
23962W        W40436   9.967  13.643   2.674  0.1854 -0.2235 -0.1977
23963W        W40437   0.344  16.265   1.922  0.0603 -0.3189 -0.0492
23964W        W40438   5.063   3.161  12.465 -0.0283  0.3269 -0.4617
23965W        W40439   0.748  15.255   0.600  0.1687  0.2627  0.0847
23966W        W40440   0.212  18.446  12.308 -0.1113 -0.0964  0.0645
23967W        W40441  12.644   5.940   1.441 -0.1112  0.2044  0.2194
23968W        W40442  18.319  15.931  10.826  0.2451  0.1012 -0.2794
23969W        W40443   5.439  10.421   2.650 -0.1633 -0.0706  0.1980
23970W        W40444   2.618  16.980  11.772 -0.0464  0.1459 -0.0709
23971W        W40445   6.498   2.394  13.238  0.3437  0.2847 -0.1673
23972W        W40446   3.034   4.007   4.814  0.0715  0.2265 -0.0171
23973W        W40447   3.154   8.982  12.844  0.1927  0.2565  0.0493
23974W        W40448   3.286   9.136  11.024  0.1942 -0.1127  0.1816
23975W        W40449   9.150   9.818   0.485 -0.1454 -0.2747 -0.0802
23976W        W40450   5.712  17.588  11.733 -0.0627  0.1611  0.0009
23977W        W40451   1.796   9.238   0.900  0.0979  0.0903 -0.1705
23978W        W40452   0.818   0.698   5.842  0.0847 -0.4408  0.0581
23979W        W40453   7.767   3.491   3.797  0.0379 -0.6028  0.2006
23980W        W40454  18.024   7.794   1.414  0.0003 -0.1911  0.2529
23981W        W40455  16.414  13.225   4.458 -0.1576 -0.3192  0.2079
23982W        W40456  11.064   1.078   1.595  0.0900 -0.1894  0.1379
23983W        W40457  11.488  10.281   2.607 -0.2931 -0.3368  0.0874
23984W        W40458   2.983   8.897  11.337  0.3272  0.0060 -0.1503
23985W        W40459  14.623  13.230   4.682  0.2299  0.1393 -0.3064
23986W        W40460  12.922  16.522  15.074  0.1893 -0.1208 -0.1609
23987W        W40461  17.419   1.552   4.422 -0.0189  0.4319  0.2005
23988W        W40462  13.474   1.470   3.050  0.1974  0.3247  0.0842
23989W        W40463  13.553  16.272  13.298 -0.0813 -0.0956 -0.1269
23990W        W40464   5.429   7.021   5.103 -0.0476 -0.2368 -0.0548
23991W        W40465  18.797  12.257  14.062  0.0495  0.0664 -0.0217
23992W        W40466  14.895   7.049  12.220 -0.0013  0.4185 -0.0412
23993W        W40467  18.908   1.721   0.013  0.0725 -0.1370  0.3177
23994W        W40468   3.880   2.138  13.295  0.0801 -0.4214  0.0617
23995W        W40469   8.402  16.041   1.001 -0.0755 -0.1018 -0.1762
23996W        W40470   5.168  17.428  13.367 -0.0037 -0.4124  0.0834
23997W        W40471   1.015   6.715   2.902 -0.3380  0.0808 -0.1634
23998W        W40472   7.519  12.658   4.559 -0.0635  0.1590 -0.2853
23999W        W40473  11.306  15.565  13.220 -0.1668 -0.0149  0.1358
24000W        W40474   9.929   6.767  12.834  0.3055 -0.0618  0.1021
24001W        W40475  10.967   2.795   0.141  0.0309 -0.0508  0.0261
24002W        W40476  11.206  15.411   1.857 -0.0346 -0.2331 -0.3270
24003W        W40477   2.489   1.802   0.661  0.0816 -0.3064 -0.1737
24004W        W40478  10.708   6.106   3.744 -0.2817  0.0238 -0.1700
24005W        W40479   8.151   1.372   4.187  0.1019  0.2862 -0.0529
24006W        W40480   2.575  12.631  12.905  0.3427  0.0075 -0.0860
24007W        W40481   5.696  17.020  13.968 -0.0589 -0.1204 -0.2013
24008W        W40482  11.660  11.402  14.855  0.0481 -0.1209  0.2538
24009W        W40483  10.750  15.900  14.649 -0.0053  0.0422  0.1065
24010W        W40484  13.134   5.024  12.426  0.0130  0.2167  0.1350
24011W        W40485  17.402  15.858  10.399  0.0710 -0.0870 -0.1027
24012W        W40486  10.521   3.087   9.863  0.1342 -0.1600  0.0827
24013W        W40487  18.657  12.685  10.885  0.1026 -0.2320 -0.1239
24014W        W40488  11.535   6.589   0.869 -0.2664  0.0252  0.0678
24015W        W40489  13.440  12.491  10.893  0.1155  0.0431 -0.1719
24016W        W40490   7.757   0.818  12.921  0.2085  0.0314  0.1858
24017W        W40491  14.762   7.889  13.419  0.4746  0.0525 -0.4003
24018W        W40492   3.083  18.740   1.328  0.2171  0.1619 -0.1646
24019W        W40493   9.485   2.368   5.436  0.2404 -0.0071 -0.2612
24020W        W40494   4.965   5.871  10.549 -0.1031 -0.1913 -0.1428
24021W        W40495   5.204  18.413  14.440  0.0852  0.0475 -0.2811
24022W        W40496   2.441   2.068  13.883  0.2102 -0.0905  0.3150
24023W        W40497   8.743  14.011  11.659  0.0532  0.3639 -0.0647
24024W        W40498   7.404  17.509  12.713  0.0554 -0.1838  0.0565
24025W        W40499  19.116   9.349  12.860 -0.1877  0.2625 -0.1084
24026W        W40500  15.073  13.378   4.732 -0.4338 -0.2177 -0.2071
24027W        W40501  11.342   3.742   4.321  0.1920 -0.3056 -0.2254
24028W        W40502   5.163  10.733   2.906 -0.1106 -0.0933 -0.0124
24029W        W40503   6.211  15.834   4.294  0.1468  0.2180 -0.1274
24030W        W40504  19.049   2.675  10.878  0.1156 -0.0286  0.0053
24031W        W40505  19.009  10.223   1.923  0.2259  0.1440 -0.1120
24032W        W40506  13.831   4.854  14.168  0.0090  0.2194  0.0155
24033W        W40507  12.282  10.912  10.021  0.1702  0.3185  0.1420
24034W        W40508  12.095  18.216   1.854  0.2462 -0.2615  0.0046
24035W        W40509   0.634   6.707   1.600  0.0182  0.0049 -0.1355
24036W        W40510   4.558  15.964   0.048 -0.3621  0.3158  0.2660
24037W        W40511  12.949   5.133  14.650  0.1594  0.0174 -0.2014
24038W        W40512   0.552   3.066   4.592 -0.0588 -0.1666 -0.0690
24039W        W40513   7.712   6.568   9.266 -0.1960  0.1781  0.3784
24040W        W40514   8.231  16.383   1.642 -0.1642 -0.1814 -0.0774
24041W        W40515  11.975   2.129  10.633  0.1176  0.0629  0.3379
24042W        W40516  14.423   7.657   1.192  0.0432  0.1524  0.1148
24043W        W40517  18.050   0.139   5.097 -0.0424  0.0284 -0.4965
24044W        W40518  11.571   9.532  14.878  0.3729  0.2315  0.1559
24045W        W40519   9.874   1.719   4.705 -0.2479  0.5002 -0.0117
24046W        W40520  18.951   4.271   4.182  0.0466  0.4802  0.0067
24047W        W40521  15.315   7.523  14.483 -0.0150  0.2490 -0.1987
24048W        W40522   1.994  11.747  11.101  0.5293  0.0225 -0.2489
24049W        W40523   7.168  18.714   4.519 -0.2167  0.1348  0.2194
24050W        W40524   4.530   6.932  13.370 -0.0069 -0.2482 -0.2252
24051W        W40525   7.805  17.732   2.299  0.0568  0.2230 -0.2324
24052W        W40526  14.591   1.377  13.725 -0.0507 -0.0574  0.2053
24053W        W40527  13.094   7.602   5.481 -0.1432 -0.0756 -0.0145
24054W        W40528   2.218   2.123  11.969  0.0689  0.1928 -0.4414
24055W        W40529  14.176   4.862   0.063  0.2341 -0.1207 -0.0459
24056W        W40530   3.579   5.535  13.139 -0.0289  0.0870 -0.1372
24057W        W40531   2.397  14.875   1.824  0.4236 -0.1621  0.2633
24058W        W40532   4.093  16.702   0.486  0.1188 -0.1555 -0.2520
24059W        W40533   4.079   4.068   2.303 -0.2687 -0.3609  0.1134
24060W        W40534  15.657  12.837  10.685 -0.1774 -0.1736  0.0207
24061W        W40535   7.494  17.360  12.159  0.1303 -0.2749 -0.3374
24062W        W40536   5.679   0.914  12.063  0.1974  0.3251  0.0861
24063W        W40537   9.436   1.931  12.806 -0.1880  0.0424  0.3361
24064W        W40538  11.110   4.265   4.490 -0.1332 -0.1215  0.1067
24065W        W40539   5.200  11.215   2.369 -0.0183  0.0538 -0.1123
24066W        W40540   1.362  12.146  12.630 -0.1129  0.0995  0.3151
24067W        W40541   3.282  11.498   0.311 -0.1564 -0.0457 -0.1902
24068W        W40542   9.629  10.510  13.584 -0.2122 -0.0009 -0.1783
24069W        W40543   4.248  18.380  14.293 -0.0962  0.0203 -0.0547
24070W        W40544  17.105  14.660   1.858  0.1874 -0.2563 -0.0027
24071W        W40545  10.386   3.638   3.803  0.3814  0.2542 -0.1053
24072W        W40546  11.211  12.624   3.435 -0.1518 -0.0002 -0.0774
24073W        W40547   0.988  11.421   0.614 -0.0685 -0.1005 -0.0479
24074W        W40548  14.068  17.859  14.086 -0.4725 -0.2387  0.3214
24075W        W40549  17.232   7.822   3.500  0.3737 -0.0782 -0.1382
24076W        W40550  11.579  11.555   1.992 -0.0891 -0.1577 -0.3630
24077W        W40551  10.828   2.972   4.368  0.2815  0.2318 -0.1437
24078W        W40552   7.635   1.132   0.576 -0.0939 -0.0644  0.1668
24079W        W40553   6.352  14.710  14.936 -0.3512  0.2421 -0.2223
24080W        W40554   9.541  10.124   5.573  0.3520 -0.0152 -0.0436
24081W        W40555  18.010  11.734  13.107 -0.3340 -0.4084 -0.2236
24082W        W40556  18.117   0.118  13.060  0.1858  0.2392 -0.2067
24083W        W40557  17.189   8.038   4.678 -0.0296  0.0192  0.1060
24084W        W40558   1.273  17.155   3.902 -0.1536  0.0777 -0.3317
24085W        W40559   7.199   4.758   3.675 -0.1426  0.1041  0.2650
24086W        W40560   0.726  18.924   4.246 -0.1421 -0.0992 -0.0294
24087W        W40561  18.231   7.442  12.860 -0.0150 -0.0291 -0.0930
24088W        W40562   0.506  10.490   4.479 -0.0305 -0.0973 -0.0945
24089W        W40563  15.211   0.476  13.199 -0.0593 -0.1147 -0.0974
24090W        W40564  11.976   1.196  11.736  0.0697  0.1386  0.1764
24091W        W40565  11.378  16.822   0.913 -0.1289 -0.1055 -0.1566
24092W        W40566   7.939   2.414   1.540  0.2480  0.0979  0.1460
24093W        W40567   4.096  13.400   0.759 -0.1579 -0.2884  0.0891
24094W        W40568   7.302  18.568  13.145 -0.0909  0.0025 -0.0565
24095W        W40569  15.053   7.386   2.962  0.0729  0.0177 -0.2237
24096W        W40570   9.645  15.348  11.525  0.1556  0.1535 -0.1755
24097W        W40571  10.900   6.421  11.088  0.0079 -0.1312 -0.1478
24098W        W40572  11.103  16.911   0.283  0.0207  0.1631 -0.2453
24099W        W40573   8.411  16.571   2.243  0.1540 -0.2753 -0.1563
24100W        W40574   5.579   0.995   2.771  0.3900 -0.1027  0.1523
24101W        W40575   4.377   7.312   9.446 -0.0828 -0.1930 -0.5001
24102W        W40576  11.793  12.546   0.976 -0.1744  0.1041 -0.4555
24103W        W40577  18.818   5.611  14.024 -0.1025 -0.2102 -0.1525
24104W        W40578  13.523   3.626   3.085  0.0663  0.0652  0.0691
24105W        W40579   0.376   3.478  12.972 -0.1932  0.2911 -0.1640
24106W        W40580   2.317   3.260  13.764  0.0305 -0.2847  0.0054
24107W        W40581  14.905   8.685  14.832 -0.0210 -0.2952 -0.1394
24108W        W40582  18.387   4.642   2.273  0.0909  0.1858  0.0912
24109W        W40583  15.116  17.038  12.383  0.2482  0.2442 -0.0025
24110W        W40584   0.962  11.150   4.507  0.1047  0.2588 -0.0614
24111W        W40585   2.429  11.869   0.737  0.0397 -0.0500 -0.0659
24112W        W40586   0.069  17.189  11.382 -0.5996 -0.1762 -0.2144
24113W        W40587  16.480  10.687   1.081  0.0582 -0.0213 -0.2314
24114W        W40588   4.645   8.786   1.572  0.0512  0.0588  0.2356
24115W        W40589   6.949  18.449  13.673 -0.0957 -0.1461 -0.2923
24116W        W40590   4.867   6.593   3.815  0.1477  0.3175 -0.1290
24117W        W40591   1.641   0.131   2.334 -0.2551  0.2554 -0.0369
24118W        W40592  16.967  13.192  11.672 -0.0087  0.3422  0.1335
24119W        W40593   5.935  12.394   1.490 -0.1793 -0.3083  0.0988
24120W        W40594   9.904   7.596  10.671 -0.0692  0.0860 -0.1927
24121W        W40595   3.233  14.392   0.528 -0.3388  0.0367  0.2640
24122W        W40596  10.540   2.470   1.483  0.1279  0.0081  0.0636
24123W        W40597   0.666   8.523   2.584 -0.1135  0.1586 -0.1383
24124W        W40598  17.911  11.242   1.036  0.0809 -0.2029  0.1563
24125W        W40599  17.503  12.044   2.145 -0.2049  0.1524  0.0802
24126W        W40600  17.140   1.903   3.596 -0.1188  0.3006 -0.1528
24127W        W40601  19.070  12.189   1.897 -0.3425  0.2385 -0.1002
24128W        W40602   1.031   7.469  12.532 -0.0529  0.0422 -0.0488
24129W        W40603  13.221  11.826  14.454 -0.1734 -0.0408 -0.1773
24130W        W40604   4.612  12.210   4.229 -0.2869  0.0484  0.1187
24131W        W40605  17.825  17.424  10.553  0.1129 -0.3638 -0.0901
24132W        W40606  18.177  10.586   3.767  0.0599 -0.0159  0.1034
24133W        W40607  13.706  10.929   2.705  0.1484  0.1359  0.0244
24134W        W40608   5.260   0.947  11.122  0.0490  0.2086  0.1892
24135W        W40609   9.952   9.038   0.116 -0.3611  0.0084  0.1464
24136W        W40610  12.083   0.859  11.401  0.0322 -0.1821 -0.0067
24137W        W40611   6.828  14.513   2.739  0.2811  0.0608 -0.1756
24138W        W40612  17.226  15.748   4.924 -0.2105  0.5605  0.0472
24139W        W40613   9.679   2.036  12.337 -0.2841  0.1109 -0.1785
24140W        W40614   5.849   8.645  13.842 -0.0403  0.0279 -0.1509
24141W        W40615   0.030   7.530  12.150 -0.0759  0.1198 -0.0081
24142W        W40616  17.037   3.830   1.349 -0.1978 -0.0993 -0.2398
24143W        W40617   3.414   2.136   5.299 -0.0813 -0.3435 -0.2491
24144W        W40618  10.750  15.148  13.656 -0.1245  0.2575  0.3437
24145W        W40619   8.903   1.919   4.761 -0.1294  0.0140  0.1500
24146W        W40620  15.190  16.869  12.944 -0.0686  0.2619  0.1312
24147W        W40621  11.200   6.322  12.734 -0.1455  0.3455 -0.1643
24148W        W40622   3.383   5.415   1.213  0.2292 -0.0391 -0.0258
24149W        W40623   3.098  18.199   5.143 -0.3434  0.0227 -0.1846
24150W        W40624  13.304  10.993   0.273  0.1979 -0.2466 -0.3103
24151W        W40625  12.342   1.138  13.605  0.3008 -0.1399 -0.1835
24152W        W40626  16.300   8.882   3.547 -0.1400 -0.1116  0.0844
24153W        W40627   4.416   2.927   4.353 -0.0251 -0.1245 -0.0048
24154W        W40628  16.170  11.101   3.944 -0.0234  0.0339 -0.2443
24155W        W40629   6.821  18.582   3.629  0.1824  0.0166 -0.0382
24156W        W40630  18.203   4.582   0.860  0.3480 -0.0156  0.0391
24157W        W40631  14.478  10.963   4.399  0.1265 -0.1862  0.0260
24158W        W40632  13.164  16.488   1.359 -0.0595  0.2581  0.2428
24159W        W40633  16.866  16.964   4.756 -0.1582  0.1039  0.1707
24160W        W40634   3.884  14.339  14.425 -0.0603 -0.3324  0.1285
24161W        W40635   1.086  18.718   3.739  0.0755 -0.0563 -0.0849
24162W        W40636   4.546   3.305   5.251 -0.0362  0.0339  0.0629
24163W        W40637   1.784   9.833  12.840 -0.0381 -0.3883 -0.2153
24164W        W40638   6.645   8.868   4.414 -0.0509  0.3286 -0.1978
24165W        W40639   5.345  17.091  15.111 -0.0386 -0.1170  0.4059
24166W        W40640  14.462  17.169   1.730  0.1747 -0.3360  0.0476
24167W        W40641   4.250   5.474  12.432 -0.1755 -0.0377  0.1843
24168W        W40642  18.509   6.887   3.328  0.2105 -0.1081  0.1359
24169W        W40643   5.336  11.064   4.679  0.0486  0.1966 -0.0618
24170W        W40644  10.491   7.653   1.222 -0.0348  0.0980  0.3192
24171W        W40645  15.338   0.092   3.938  0.0943  0.0371 -0.0624
24172W        W40646  11.955  18.198  11.640  0.2023 -0.1669  0.2201
24173W        W40647   5.111   7.280   0.105  0.0633  0.0202 -0.0347
24174W        W40648  18.303  14.701   0.822  0.0172 -0.1401  0.0235
24175W        W40649  17.018  11.947  14.308 -0.1352  0.0065  0.4975
24176W        W40650   6.847  18.663  11.793 -0.2380  0.1210 -0.1626
24177W        W40651   2.060  18.571  14.914 -0.0989 -0.0308  0.1932
24178W        W40652  18.471  16.680  14.977  0.0124  0.0398 -0.2010
24179W        W40653  11.454   2.345   1.301 -0.3773  0.1791  0.0850
24180W        W40654   3.952  10.680   0.674  0.5060 -0.1907 -0.0871
24181W        W40655   7.175   8.916  14.334 -0.4837 -0.2623 -0.0970
24182W        W40656   2.500  16.395   1.925  0.5386 -0.0391  0.0045
24183W        W40657   1.455   2.606   1.357  0.0657  0.2646 -0.4567
24184W        W40658   6.850  17.365   2.583 -0.1888  0.1553  0.1870
24185W        W40659   7.303   7.372   0.438 -0.1295  0.0315 -0.2067
24186W        W40660  15.293  11.373   3.714  0.1042 -0.1632  0.0853
24187W        W40661   7.330   3.068   1.118 -0.0282  0.0098  0.0490
24188W        W40662   2.210  12.746   2.984  0.1329 -0.1849 -0.0026
24189W        W40663  10.970  18.877   4.272 -0.3158 -0.0633 -0.0138
24190W        W40664  17.134  15.116  14.292  0.0080 -0.1375 -0.0407
24191W        W40665  12.836  11.933  13.056  0.1951 -0.0999  0.0386
24192W        W40666  11.537   9.779   1.146 -0.1612 -0.0243  0.0801
24193W        W40667  11.318   4.318  11.497  0.2059  0.1929 -0.0062
24194W        W40668   6.585  12.292  13.693  0.0424 -0.1075 -0.0577
24195W        W40669  12.649   3.650  14.586 -0.1816 -0.1091  0.2078
24196W        W40670  11.146  18.734   0.761 -0.0294 -0.0026  0.1849
24197W        W40671  18.582  12.662   2.711 -0.0352  0.1361 -0.1885
24198W        W40672  13.368  14.833  13.916 -0.1009  0.2606 -0.3497
24199W        W40673   3.629  11.926  11.760  0.2627 -0.0461 -0.0505
24200W        W40674   5.523  16.018   2.066 -0.1617 -0.2153 -0.1985
24201W        W40675   9.078  13.573   1.553 -0.1882  0.1719 -0.0836
24202W        W40676   2.866   1.512   2.424  0.2635  0.1654 -0.4277
24203W        W40677   7.101  11.887   2.739 -0.2572  0.2101 -0.0602
24204W        W40678   4.841  10.056   2.091 -0.1350  0.2180 -0.1864
24205W        W40679  12.901   5.501   3.413 -0.1172 -0.0509 -0.0147
24206W        W40680  15.850  12.105   0.426  0.1187 -0.1224  0.1563
24207W        W40681   3.888  15.978   2.825  0.3371 -0.0987  0.3700
24208W        W40682   7.085  16.774   4.904 -0.0935 -0.1681 -0.0984
24209W        W40683  18.923  10.939  10.499 -0.3839 -0.5666 -0.0483
24210W        W40684   6.598   2.210   0.981 -0.0320 -0.0765  0.0632
24211W        W40685  16.544  18.758   5.111 -0.1729  0.1877  0.3211
24212W        W40686   3.568   1.911  11.973  0.0816  0.2026 -0.0049
24213W        W40687  10.478   0.296   4.950  0.3658  0.1474  0.2869
24214W        W40688   1.057   3.317   3.198  0.0508  0.1617 -0.0588
24215W        W40689   4.511  15.219   5.291 -0.0978  0.0726 -0.1055
24216W        W40690   0.934  17.309  14.037  0.0657 -0.5467  0.2656
24217W        W40691  12.039  11.017  10.945 -0.1072  0.0555  0.0423
24218W        W40692  13.639  16.182  14.762  0.2805  0.0295  0.2222
24219W        W40693   4.024  10.771  13.099 -0.3393 -0.0342 -0.0231
24220W        W40694   7.518   9.453   0.399 -0.0828 -0.0816 -0.1717
24221W        W40695   7.383   3.343  14.076  0.0584 -0.0328  0.0629
24222W        W40696  14.011   5.044  12.751  0.3562  0.1859  0.2689
24223W        W40697  16.876  12.817   3.404 -0.0258  0.1862  0.0349
24224W        W40698   7.404  11.866  12.287  0.3062 -0.1183  0.3158
24225W        W40699  14.626  12.376   4.280 -0.2303 -0.1226  0.2959
24226W        W40700  14.729   5.363  14.740  0.1869  0.1341  0.2400
24227W        W40701  11.128  12.480   0.397 -0.2541  0.3261  0.1216
24228W        W40702   8.750   0.808   4.249 -0.1223  0.5541  0.3097
24229W        W40703   8.107   2.679   5.533  0.1284 -0.3585  0.3470
24230W        W40704  14.093  14.329  11.970 -0.1178  0.1932 -0.0656
24231W        W40705  18.478  16.534  10.900 -0.2214  0.0528 -0.0574
24232W        W40706   4.063  18.804   0.492 -0.0802  0.0249  0.0778
24233W        W40707  18.150   3.833  14.104  0.0111 -0.0673  0.0153
24234W        W40708   1.062   0.177   2.454 -0.1915 -0.1804 -0.2401
24235W        W40709   1.484   3.491   3.606 -0.1051 -0.0080 -0.1583
24236W        W40710   1.899  15.104   2.332 -0.0913 -0.2071  0.2560
24237W        W40711   1.459  14.880  13.375 -0.1349 -0.0061 -0.2841
24238W        W40712  15.440  12.518   0.214  0.0540 -0.2337  0.1280
24239W        W40713   1.269  18.994  12.094  0.2631  0.0806 -0.1688
24240W        W40714   4.694  14.679  14.128 -0.0463 -0.3405  0.0544
24241W        W40715   0.956   9.600   9.839 -0.2581  0.0713 -0.3475
24242W        W40716   9.474  15.987   1.325  0.1465 -0.2376  0.1369
24243W        W40717   9.773  18.514  12.179  0.0872 -0.2598  0.0811
24244W        W40718  15.735  10.994  13.809  0.1886  0.2209  0.0508
24245W        W40719  10.462   5.639  11.681 -0.0886  0.1095  0.0044
24246W        W40720   0.744   3.554  12.392 -0.0713  0.1233 -0.1843
24247W        W40721  14.768   6.646  13.648  0.1038 -0.0642  0.0503
24248W        W40722   7.704  16.570  13.126 -0.2339 -0.3519  0.1260
24249W        W40723   7.263   0.118   2.624  0.2494  0.6102 -0.1174
24250W        W40724   9.793   1.864  13.210 -0.0676  0.0076 -0.2833
24251W        W40725  18.814  14.898   3.477  0.0923  0.0944 -0.0595
24252W        W40726   8.712   8.231  14.702 -0.1760 -0.5209 -0.0131
24253W        W40727   5.673  10.587  14.628 -0.0651 -0.0562  0.1938
24254W        W40728  18.112  16.562   1.775 -0.0351  0.1608  0.6167
24255W        W40729  18.112   3.565   5.913 -0.1514 -0.0065 -0.3054
24256W        W40730  18.457  14.627  12.069  0.1448  0.1891 -0.2242
24257W        W40731  17.592  17.354  14.374  0.2902 -0.1159 -0.4188
24258W        W40732   2.507  13.739   2.648 -0.2842 -0.0211  0.0956
24259W        W40733   4.458  10.547   4.480 -0.0717 -0.0394 -0.0246
24260W        W40734   6.726   7.858  11.168  0.1119  0.1179 -0.1246
24261W        W40735   7.982  18.807  11.111  0.2565  0.0779  0.4131
24262W        W40736  16.552  10.551  14.963 -0.0197 -0.1445 -0.0293
24263W        W40737   2.132   9.890  14.830  0.0590  0.2152 -0.1193
24264W        W40738  14.272   7.767  14.403 -0.0813  0.0294 -0.0935
24265W        W40739  18.372  18.924  14.818  0.2076 -0.1716  0.1049
24266W        W40740  11.325  11.836  12.877  0.1829  0.0951 -0.2474
24267W        W40741  15.664  17.727   4.134 -0.2093  0.3834 -0.0906
24268W        W40742   3.394  10.314  12.397  0.0872  0.3073  0.0906
24269W        W40743   3.814  13.730  11.205  0.1136 -0.1653 -0.2896
24270W        W40744   5.422  12.381   3.781  0.2096 -0.1387 -0.1100
24271W        W40745   0.577   7.445   2.081 -0.0306  0.0891  0.1199
24272W        W40746  16.049   9.546   2.617 -0.0824  0.0375  0.0734
24273W        W40747  12.241   2.535  10.748 -0.1069 -0.0347  0.2930
24274W        W40748  11.296  12.055   5.384 -0.1295 -0.0532  0.0978
24275W        W40749   2.608  11.697   2.008  0.3801 -0.0163 -0.2211
24276W        W40750   9.754  13.691   3.533  0.0810  0.2774  0.1802
24277W        W40751   1.437  17.223  12.681 -0.2140  0.1246  0.1489
24278W        W40752  11.980  14.854  12.904  0.3779  0.1973 -0.0965
24279W        W40753  16.120  17.026   0.552  0.2304 -0.1238  0.1150
24280W        W40754  15.237   4.858   4.673  0.1047  0.0365  0.1647
24281W        W40755   6.016  12.659  11.726  0.2363  0.1830 -0.2962
24282W        W40756   8.372   9.795   0.366  0.1592 -0.0425  0.3422
24283W        W40757  12.409  18.333   0.849  0.0423  0.0151  0.0090
24284W        W40758  18.092   0.938  13.418  0.4647 -0.2879 -0.0679
24285W        W40759  11.339   0.274   9.345 -0.0356 -0.0150 -0.1774
24286W        W40760  18.309   9.193  12.784 -0.2489 -0.0779 -0.0673
24287W        W40761   9.723   2.541  11.172  0.0388  0.0968  0.2443
24288W        W40762  18.151   9.648   3.372  0.0203  0.1019 -0.3376
24289W        W40763  15.980  15.693   3.332 -0.1981 -0.1497 -0.3636
24290W        W40764   1.290  10.210  13.746  0.2343 -0.0072 -0.1708
24291W        W40765  10.031   5.253  14.662 -0.1975 -0.1664 -0.2619
24292W        W40766   3.443   0.342   1.402 -0.0684  0.0310  0.0009
24293W        W40767  16.533   0.600  11.606 -0.1787 -0.1230 -0.0936
24294W        W40768  10.928  18.819  13.684 -0.1312 -0.0748  0.1988
24295W        W40769  11.642  16.340   2.673  0.0915 -0.0445  0.1279
24296W        W40770   6.772  18.443  11.306 -0.1288  0.0746 -0.0772
24297W        W40771   0.234  13.709   2.005 -0.1031  0.2386  0.1051
24298W        W40772  15.021  12.222   4.054 -0.0961  0.2510 -0.1251
24299W        W40773   6.194   9.835   0.241 -0.1308 -0.0728 -0.2789
24300W        W40774  13.104  15.435  12.850 -0.0822 -0.1816 -0.1175
24301W        W40775   0.171   1.554  12.012 -0.2776  0.0330  0.0155
24302W        W40776  16.646  16.515  14.135  0.1411 -0.1859 -0.3019
24303W        W40777  10.063  12.475   2.818  0.0561 -0.0486 -0.0299
24304W        W40778   0.527   3.828   0.532  0.2083  0.1631  0.0681
24305W        W40779  12.622   7.570   2.201  0.0393 -0.0691  0.1035
24306W        W40780   9.970   4.714   9.643 -0.0870 -0.1291 -0.0638
24307W        W40781   5.154  11.596   3.204 -0.3992 -0.1140 -0.2238
24308W        W40782  17.652  16.426  14.535 -0.1453 -0.1644 -0.1729
24309W        W40783   8.255  15.588  11.082  0.1306  0.2995 -0.0437
24310W        W40784  10.782  12.893   2.155  0.1889  0.0985  0.1263
24311W        W40785  18.785  13.569   3.148 -0.0200 -0.0608  0.3638
24312W        W40786  15.906  15.510  12.895 -0.0756 -0.0597  0.0018
24313W        W40787   0.840  14.491   1.079  0.1487 -0.1275 -0.1441
24314W        W40788  16.408   9.720  14.062 -0.0802  0.1911 -0.1072
24315W        W40789   1.096   1.858  11.834 -0.1304 -0.1086 -0.0592
24316W        W40790   0.394  13.070   4.231  0.0865  0.1332  0.1142
24317W        W40791  11.832  10.157  14.015 -0.0219  0.1063 -0.2797
24318W        W40792   4.203   2.170  12.882  0.3465 -0.1246  0.2375
24319W        W40793  12.985  19.083   4.581  0.1560 -0.0350 -0.2023
24320W        W40794   6.235   9.096  13.099 -0.0652 -0.1621 -0.0997
24321W        W40795   7.979   7.416   2.910 -0.2738  0.2703 -0.0702
24322W        W40796   0.440   0.348   3.762  0.2323 -0.5474 -0.0881
24323W        W40797   9.194   9.199   1.592 -0.1462  0.2145 -0.0352
24324W        W40798  11.133  13.755  11.283 -0.0362  0.0459  0.1172
24325W        W40799   2.697  11.408  11.370  0.0457  0.1089 -0.0576
24326W        W40800   4.728  16.776  11.907  0.1212 -0.2555  0.0235
24327W        W40801   2.160  16.425  12.678  0.7860 -0.1017  0.0227
24328W        W40802  16.146   3.141  10.911  0.1078 -0.0835  0.2799
24329W        W40803   2.203  11.560   3.624  0.0263  0.0714 -0.0185
24330W        W40804   5.708   1.282   3.236 -0.0191  0.2335  0.0227
24331W        W40805  10.781  17.937   1.113 -0.1278  0.3527  0.2342
24332W        W40806  17.014  10.789   1.063 -0.1133 -0.1464 -0.0539
24333W        W40807  13.498  16.677  14.624 -0.1550  0.1326  0.3272
24334W        W40808   1.657  11.547   3.282 -0.1454  0.0211  0.0529
24335W        W40809   9.489   9.998  12.021 -0.1087 -0.0870  0.1764
24336W        W40810   6.765  16.767  14.421 -0.1054  0.2315  0.0334
24337W        W40811   3.422  17.526   0.772 -0.0575 -0.2299  0.0426
24338W        W40812  10.151  11.754  13.283 -0.0964 -0.0684  0.0398
24339W        W40813   8.535  19.000  14.078 -0.1430  0.1798 -0.0381
24340W        W40814  10.800   3.136  11.260 -0.0523  0.3580  0.0905
24341W        W40815   3.625  10.933   1.661  0.4221  0.0175  0.1330
24342W        W40816   2.357  13.447   4.082 -0.1833  0.0553 -0.1923
24343W        W40817   7.226   0.764  12.929  0.0858 -0.0070 -0.0215
24344W        W40818   3.176   0.804   4.449  0.0319 -0.1824  0.0099
24345W        W40819   9.981   9.607   4.427 -0.1448  0.0674  0.2404
24346W        W40820   1.378  18.491   4.444  0.1201  0.3167  0.0143
24347W        W40821   4.159   4.793  12.188  0.2229 -0.1335  0.1020
24348W        W40822  18.212   3.502   9.684  0.2601 -0.0100  0.1201
24349W        W40823  15.077  10.505  10.842  0.0669 -0.2474  0.0690
24350W        W40824   4.856   4.159   1.626 -0.0943 -0.0921  0.3834
24351W        W40825   2.423   8.429  10.581 -0.1014  0.0098  0.3988
24352W        W40826  13.789   2.202  11.837 -0.3520  0.0827  0.0102
24353W        W40827   0.258   4.032  13.219 -0.3133  0.0083 -0.0240
24354W        W40828  13.079   7.069  14.237  0.1140  0.0476 -0.0941
24355W        W40829   4.805   6.237   0.406 -0.0997  0.3026  0.3363
24356W        W40830  11.939   5.173   1.806 -0.1013 -0.1701  0.3979
24357W        W40831   9.155   1.697   4.388 -0.0111  0.0443 -0.1004
24358W        W40832   3.758   9.025  12.894  0.3147  0.1631 -0.3848
24359W        W40833   3.516  15.345   2.511  0.1324 -0.2564  0.0476
24360W        W40834  14.558   9.156   0.666 -0.1925 -0.3712  0.2532
24361W        W40835  14.671   8.325   6.063 -0.2294 -0.0530 -0.4378
24362W        W40836   9.202  17.532   2.105  0.0578 -0.2878  0.2370
24363W        W40837   7.907   1.254  11.552  0.1541 -0.1938 -0.1381
24364W        W40838   3.704   5.761  11.068  0.1316  0.0831  0.3455
24365W        W40839   5.969   1.859   1.772  0.0523 -0.3287 -0.0073
24366W        W40840  10.716  18.622   3.375 -0.3178  0.2084  0.0548
24367W        W40841   6.000   9.928   2.266 -0.0493  0.0355  0.0393
24368W        W40842  13.633  18.352   4.274 -0.1026  0.0950 -0.0853
24369W        W40843  16.535   5.634   2.190 -0.1955  0.0274  0.0665
24370W        W40844   5.609   8.185   2.214 -0.3405 -0.2376 -0.2451
24371W        W40845  15.568   6.955  12.336  0.1775 -0.2068  0.0010
24372W        W40846   0.566  14.928  12.318  0.0651 -0.3402  0.1422
24373W        W40847   0.776  14.745  11.828  0.1507  0.1265 -0.0152
24374W        W40848  11.884  10.879   5.225 -0.1426  0.3839 -0.0747
24375W        W40849  17.455  14.491  14.982 -0.2361  0.1568 -0.1421
24376W        W40850   5.334  10.572   4.191 -0.0599  0.1699 -0.0172
24377W        W40851  12.723   5.119  13.161 -0.0051  0.0460  0.2315
24378W        W40852   3.249   6.020   1.935  0.0589 -0.1881  0.1520
24379W        W40853   7.673   2.379   2.299  0.5050  0.0597  0.0417
24380W        W40854   2.361  12.125  11.268 -0.0019 -0.0103  0.2732
24381W        W40855  17.514  12.681   5.361  0.0331  0.0178  0.0352
24382W        W40856  15.895  15.137   3.931  0.0478 -0.2267 -0.1109
24383W        W40857   7.275   7.162  13.944 -0.3969 -0.0863 -0.1762
24384W        W40858  14.386  14.719   3.537  0.2928 -0.1411 -0.0369
24385W        W40859  17.572  11.295  11.158  0.1479 -0.0077 -0.2654
24386W        W40860   7.234   1.109   4.470  0.2455  0.1242  0.3500
24387W        W40861   8.898   6.932   1.428 -0.3898 -0.0023  0.0030
24388W        W40862  18.193  18.100   3.772  0.1553  0.0127  0.0700
24389W        W40863  15.118   0.096   4.479  0.3315 -0.1022 -0.0004
24390W        W40864   7.857   7.690   3.561  0.3612  0.1199  0.1730
24391W        W40865  12.362  14.376   1.291 -0.1795  0.0342  0.0887
24392W        W40866   6.483   2.128   0.467 -0.1131 -0.1997 -0.1477
24393W        W40867   5.063   3.382   2.554 -0.1259  0.2596 -0.0449
24394W        W40868  11.219   0.014   2.869  0.0666  0.2344  0.3984
24395W        W40869  15.170   3.362   0.731  0.0217 -0.2897  0.1819
24396W        W40870   4.155   8.486   0.300  0.1528  0.1824 -0.0681
24397W        W40871   2.889   3.506   5.721  0.2295 -0.0841 -0.0317
24398W        W40872  12.654  11.174   4.307  0.1862  0.0327  0.2691
24399W        W40873  16.441   6.392   2.066 -0.2530 -0.1019 -0.3028
24400W        W40874   8.307  19.118  11.751  0.1664  0.4450  0.3563
24401W        W40875   7.443   0.968   0.085 -0.0281  0.3139 -0.2845
24402W        W40876   5.896   5.301  14.664  0.5098  0.1726  0.0773
24403W        W40877   5.874  13.394  11.323 -0.0948  0.1315 -0.0533
24404W        W40878  17.182   6.507  13.473 -0.2532 -0.0717 -0.3591
24405W        W40879   3.418  18.416  11.932 -0.2508  0.0879 -0.1037
24406W        W40880   8.405  11.302   0.494  0.3971  0.0172 -0.0779
24407W        W40881   8.957  13.790   3.077  0.0656 -0.1436  0.3527
24408W        W40882   1.158   8.970  14.944  0.0169  0.2536  0.1488
24409W        W40883   8.845  14.327  13.253 -0.0644  0.0067 -0.2720
24410W        W40884   7.393   2.579  12.284  0.1053  0.0023 -0.2477
24411W        W40885  16.847  13.443   2.775 -0.1449 -0.0345  0.0415
24412W        W40886   3.255  16.374   0.864 -0.1734 -0.1373  0.2547
24413W        W40887   3.278  18.135  13.306 -0.2839 -0.3317 -0.1677
24414W        W40888  16.260   6.564   4.316  0.1177 -0.1163 -0.4108
24415W        W40889   1.255   9.332   4.796 -0.1840 -0.2264  0.2403
24416W        W40890  18.021   7.374   2.673  0.0120 -0.0324 -0.1129
24417W        W40891  16.973  11.051   3.361  0.0098  0.0844 -0.2012
24418W        W40892   6.088  11.369  12.756 -0.0408 -0.0086 -0.2447
24419W        W40893   0.512   7.484  12.374 -0.1044  0.0824  0.0299
24420W        W40894   2.807   5.173   4.850  0.2509  0.0098  0.0616
24421W        W40895   2.586  16.509  13.113  0.0439  0.0597 -0.0347
24422W        W40896  10.645   6.365  12.141 -0.1170 -0.0514 -0.0179
24423W        W40897   0.372  10.974  10.568  0.1447 -0.0200 -0.1542
24424W        W40898   0.257   8.695   1.561 -0.0532 -0.4658  0.1492
24425W        W40899   4.819   2.190   0.682 -0.1244 -0.0887  0.1299
24426W        W40900   9.007   8.495   5.584  0.0254 -0.2324 -0.4387
24427W        W40901  17.292   6.765  10.793 -0.2059 -0.2667 -0.4855
24428W        W40902   4.832  16.615   2.105  0.2621  0.3168 -0.0323
24429W        W40903  16.320   5.907  11.155  0.2322 -0.2018  0.0285
24430W        W40904  11.337   5.024   3.740  0.4218 -0.1065  0.0149
24431W        W40905  12.147   1.082   3.950  0.1518 -0.0300 -0.0464
24432W        W40906   8.602   1.659  14.416 -0.0061  0.0047  0.0335
24433W        W40907  18.745  13.489   4.263  0.0561 -0.1622 -0.2433
24434W        W40908   3.636   8.815   1.280 -0.0119  0.2217  0.0822
24435W        W40909  17.294  13.516   3.145  0.0497  0.1855  0.1845
24436W        W40910  16.480   5.504   4.244  0.1928 -0.4271 -0.1296
24437W        W40911   1.110   1.046  11.129 -0.0955 -0.0326  0.0832
24438W        W40912   7.770   5.313   3.353  0.4624 -0.2258  0.3370
24439W        W40913   7.820  13.806  13.286  0.2409  0.2439 -0.1435
24440W        W40914   4.781  17.510  12.432 -0.1231  0.1013  0.5003
24441W        W40915  11.138   5.587   1.777  0.1689  0.2967  0.4175
24442W        W40916  10.332   7.905   0.840  0.0653 -0.0418  0.1688
24443W        W40917   0.345  18.775   1.463  0.3647  0.1521 -0.3748
24444W        W40918  14.592  10.349  11.279 -0.1583  0.0757 -0.0219
24445W        W40919   6.111  10.123  12.920  0.2482  0.0711  0.0321
24446W        W40920   6.387  12.637  14.821  0.0936 -0.2054 -0.1661
24447W        W40921   3.641  12.777  13.234 -0.0211  0.0013  0.1217
24448W        W40922  14.223   6.373  12.451 -0.0333  0.3373  0.1111
24449W        W40923  14.400   7.001   2.667  0.3439  0.0494  0.0675
24450W        W40924   0.287   4.385  13.947  0.0443  0.0250  0.0462
24451W        W40925   6.670   8.526  14.947  0.1508 -0.0569  0.1185
24452W        W40926   3.290  18.859  13.971 -0.0220  0.0477  0.2548
24453W        W40927   2.177  18.354   2.463  0.0696  0.0801 -0.2566
24454W        W40928  11.457   5.790  14.827  0.2303  0.0080  0.1706
24455W        W40929   1.533  11.168  12.847 -0.0746 -0.0041 -0.0733
24456W        W40930   5.124   6.557  11.354  0.2446 -0.0445  0.3391
24457W        W40931   3.345   6.447  13.233  0.2637 -0.1408  0.0936
24458W        W40932   1.354  17.728  11.441  0.0029 -0.0892 -0.1640
24459W        W40933  18.365  10.632  12.127  0.0732  0.0186  0.0930
24460W        W40934  16.994   0.695   0.281 -0.1457 -0.1730  0.0439
24461W        W40935  16.499  11.976  11.034  0.1670  0.0800 -0.0019
24462W        W40936   4.882  13.627  14.885 -0.0480  0.0993 -0.0885
24463W        W40937  10.183  15.051  12.324  0.0226  0.3158 -0.2723
24464W        W40938   3.360  15.471  13.560  0.2433  0.1429  0.1316
24465W        W40939   2.755  18.625   4.268 -0.2647 -0.1393 -0.2070
24466W        W40940  19.139  11.561  12.753 -0.2600  0.1905  0.2017
24467W        W40941  16.164   3.586   0.483  0.1114  0.1338 -0.0940
24468W        W40942   0.616   3.857  12.044 -0.3607 -0.2901  0.0246
24469W        W40943  13.290  12.027   0.576 -0.1066 -0.0957 -0.0424
24470W        W40944   9.669   7.632   5.018  0.0118  0.0669 -0.1294
24471W        W40945   6.066   3.404   4.327  0.2908  0.2213 -0.2270
24472W        W40946   4.352  17.106  13.315  0.1268 -0.3893  0.3055
24473W        W40947   0.365  11.098   2.783 -0.1272  0.1036  0.1822
24474W        W40948  16.355   5.175  13.782 -0.0108  0.1763  0.0155
24475W        W40949   5.535  13.942   5.179 -0.1289  0.1111  0.0484
24476W        W40950   1.140   0.547  12.241 -0.2204 -0.0565 -0.0107
24477W        W40951   4.220   0.452  14.831 -0.1628  0.1643  0.3034
24478W        W40952  10.738   8.727  10.698 -0.2189 -0.0364 -0.3563
24479W        W40953  13.678  11.256   4.972 -0.3546 -0.0764  0.1746
24480W        W40954   0.449   0.498   0.566  0.0569  0.0901  0.0563
24481W        W40955   7.988  13.095   0.312 -0.1643 -0.2323 -0.1501
24482W        W40956   1.084   5.280   0.199 -0.1971 -0.1584 -0.0072
24483W        W40957   1.044   1.640   1.552  0.0061 -0.2372 -0.0712
24484W        W40958   8.807   9.024  11.039  0.0614 -0.0529 -0.0386
24485W        W40959   8.821  19.138  10.747  0.0772 -0.0403 -0.3202
24486W        W40960   1.518   9.325  13.437  0.1043  0.1849 -0.1671
24487W        W40961  15.320  18.410  10.596 -0.0102 -0.0041 -0.1295
24488W        W40962   0.833  11.216   1.472  0.1480 -0.0036  0.2421
24489W        W40963   3.531   1.576  13.711  0.1912 -0.4084 -0.2023
24490W        W40964  15.888  13.308   5.744 -0.1238 -0.1151  0.1187
24491W        W40965  11.801   9.093  10.058  0.2939 -0.2288 -0.2087
24492W        W40966  18.412   1.434   5.399 -0.0792  0.0046 -0.0650
24493W        W40967   1.402  13.047   4.231 -0.2156 -0.1658  0.1080
24494W        W40968  10.365  13.629   3.369 -0.2765 -0.2348  0.2879
24495W        W40969   2.939  11.369  13.231  0.1824 -0.1328  0.1513
24496W        W40970   0.015   7.137  14.444 -0.0329  0.0830 -0.0702
24497W        W40971  15.274   4.195  13.644 -0.0232 -0.0902 -0.3168
24498W        W40972  15.105   2.501   4.883  0.1234 -0.2986 -0.0635
24499W        W40973  12.239  10.683   1.104 -0.0741 -0.2618  0.1680
24500W        W40974  17.319  17.851  13.820 -0.0278  0.1611  0.2000
24501W        W40975   6.465   4.954  12.050  0.2056  0.1547 -0.2183
24502W        W40976   8.699  11.645   3.429  0.0103  0.4007 -0.0620
24503W        W40977   0.631  16.368  12.821 -0.0110 -0.0492 -0.2696
24504W        W40978  16.182   8.035  12.313  0.0052  0.0867 -0.1323
24505W        W40979  11.104   4.908   4.361 -0.3639 -0.3042  0.0529
24506W        W40980  11.976   9.332   0.678 -0.2678 -0.0793 -0.1407
24507W        W40981  12.817   0.010  10.205 -0.2017 -0.0676  0.0197
24508W        W40982   0.489   4.249   0.246  0.6481  0.1681  0.0845
24509W        W40983   4.787   2.681   3.352 -0.0041  0.0637 -0.0145
24510W        W40984  14.989   3.242  13.081 -0.2805 -0.0510  0.0773
24511W        W40985  16.623  14.801   1.002 -0.3957  0.0842  0.0256
24512W        W40986   9.310  14.304   1.253  0.0108 -0.0838 -0.3400
24513W        W40987   6.372   3.691   5.930  0.1052 -0.0926  0.1920
24514W        W40988   0.569  17.074  11.309 -0.1475  0.0495 -0.0478
24515W        W40989   0.461   7.545   4.247 -0.1928  0.3909  0.0590
24516W        W40990   6.418  16.311   4.232 -0.1027  0.0209 -0.2281
24517W        W40991  17.048  17.696   5.145  0.2158 -0.1734 -0.1468
24518W        W40992   8.283  19.136   0.042  0.2970 -0.2760  0.1031
24519W        W40993   7.973   3.956  12.754  0.3155 -0.0963 -0.0461
24520W        W40994  18.128   3.981   4.510  0.5795  0.0742 -0.0143
24521W        W40995  12.036  13.616  12.445 -0.2578  0.0984 -0.0505
24522W        W40996  10.633   8.984   0.258  0.2095 -0.0669 -0.1257
24523W        W40997  10.282  18.841   3.250  0.2317 -0.1055 -0.0317
24524W        W40998   5.279  13.098   3.563  0.0014 -0.0777  0.0807
24525W        W40999  13.229   9.457  11.252  0.0611 -0.1215  0.1973
24526W        W41000   2.387  14.510  14.885 -0.1346  0.0270  0.0376
24527W        W41001  17.193   7.789  12.655 -0.2867 -0.0222 -0.1321
24528W        W41002   4.798   2.261   2.415  0.1196  0.0801  0.2356
24529W        W41003   7.551  11.617  12.660 -0.0303 -0.2403  0.0804
24530W        W41004   3.738   2.415  14.430  0.2176 -0.0663 -0.0408
24531W        W41005   1.745   2.806   4.245  0.1183 -0.2435  0.1431
24532W        W41006   0.453   2.518  11.683 -0.3174  0.1008 -0.0924
24533W        W41007  16.808  17.551   2.110 -0.1122 -0.5027  0.2671
24534W        W41008  15.757   1.728   5.032  0.1066  0.0250  0.0912
24535W        W41009   4.153   2.032   3.962 -0.1055  0.0247 -0.0356
24536W        W41010   6.466   3.515   1.419  0.0916 -0.0244 -0.4023
24537W        W41011  14.886   1.646  13.387  0.1533  0.0606  0.2153
24538W        W41012   2.773   9.792   2.588 -0.2753 -0.2909 -0.0886
24539W        W41013   2.928  18.335  15.106 -0.0506  0.2121  0.0338
24540W        W41014   4.954  18.247  12.131 -0.2601 -0.1303  0.4263
24541W        W41015   3.794  15.368  13.260  0.1990  0.2953  0.1927
24542W        W41016  12.028  15.190   4.566 -0.0028 -0.0648  0.4268
24543W        W41017  16.712  10.892   0.680  0.1380  0.3446 -0.1721
24544W        W41018  10.825  10.865  12.770  0.2811 -0.0075  0.1390
24545W        W41019   7.507  10.433   0.145 -0.1490 -0.1653  0.1499
24546W        W41020   5.710   3.620  13.135  0.2180  0.0759  0.0133
24547W        W41021   3.124  11.873  13.100 -0.0125 -0.1639 -0.0568
24548W        W41022  17.338   0.805  11.227  0.3617  0.0320 -0.1215
24549W        W41023   7.795   3.717  12.199 -0.0365 -0.1824 -0.0438
24550W        W41024  14.824   5.100   0.771  0.0904  0.0553 -0.3992
24551W        W41025   2.012   0.625   1.333  0.0019 -0.2398 -0.2760
24552W        W41026   6.041  11.869  14.659  0.0668 -0.0281  0.1430
24553W        W41027   7.237   3.077  10.501 -0.0278  0.0375 -0.1449
24554W        W41028  13.193  13.329  12.977  0.2832  0.1848 -0.0039
24555W        W41029  10.620   5.922   1.859  0.0725 -0.2353  0.1051
24556W        W41030   5.150   7.794   3.566 -0.0952  0.1096  0.1835
24557W        W41031   1.908  13.861   1.314 -0.1233 -0.2037 -0.0139
24558W        W41032   7.887  15.172  11.903  0.0536 -0.4406  0.2987
24559W        W41033   8.909  14.044  14.173  0.2355 -0.0608  0.0888
24560W        W41034   4.745  13.777   3.297 -0.2898  0.4028  0.1363
24561W        W41035  12.302  18.440   2.266 -0.5185 -0.0780  0.0489
24562W        W41036  15.055   4.750  11.549  0.2065 -0.0762 -0.0836
24563W        W41037  10.435  18.945   5.864  0.1433 -0.3681  0.3393
24564W        W41038  14.245  14.684   2.221 -0.0192 -0.2024  0.0435
24565W        W41039   3.765   4.003   4.033 -0.1907 -0.2135  0.1070
24566W        W41040  18.650  13.557  12.986  0.2563  0.0765 -0.0659
24567W        W41041  13.331  18.798  14.278  0.2729 -0.0500  0.0282
24568W        W41042   1.046  11.344  14.003 -0.3076  0.1476 -0.2337
24569W        W41043  18.567   1.571   1.474  0.2774 -0.2490 -0.1077
24570W        W41044  15.769  17.031  11.269 -0.4539 -0.2687 -0.1149
24571W        W41045  14.586   9.860   4.142  0.2111 -0.0551 -0.1658
24572W        W41046  16.557   3.931   1.275 -0.2317  0.1612 -0.1063
24573W        W41047   1.169  11.720   2.313  0.2396  0.1985 -0.1785
24574W        W41048  14.889   8.625  14.316  0.1811  0.0862  0.0994
24575W        W41049   1.889   2.826   2.943  0.0273 -0.2179  0.1149
24576W        W41050   3.273  17.245  12.333  0.0730  0.1380  0.3094
24577W        W41051   1.847   4.759   4.744  0.3900  0.0332 -0.2088
24578W        W41052  14.223  12.233   3.552 -0.3482  0.0534  0.1731
24579W        W41053   6.035   6.483  12.188 -0.0106 -0.1206 -0.1739
24580W        W41054  10.683   5.157  12.398  0.0042  0.0608  0.1456
24581W        W41055   9.536  11.001  14.820 -0.1709  0.3307 -0.3006
24582W        W41056  11.214  13.083  15.017  0.0719 -0.1963  0.4016
24583W        W41057  10.889   7.253  10.517  0.0200  0.3891  0.1260
24584W        W41058  15.231  14.545  12.473  0.0260  0.4730 -0.0245
24585W        W41059  11.375  11.338  11.145  0.0673  0.1208  0.0581
24586W        W41060  14.939   8.299  10.418 -0.0262  0.0687  0.3251
24587W        W41061   7.188   0.653   2.366 -0.0874  0.3059  0.1774
24588W        W41062   5.770   6.652  11.793 -0.2667 -0.0048 -0.1896
24589W        W41063   2.667   7.610   1.257  0.2374  0.1697  0.0247
24590W        W41064  14.370   5.021   3.760 -0.1426  0.1160  0.0793
24591W        W41065   0.266   6.245   0.003  0.1144 -0.2787 -0.1992
24592W        W41066   8.646  17.625  11.536 -0.3220  0.0267 -0.4454
24593W        W41067  12.523   6.192  12.946  0.0239 -0.2598  0.1368
24594W        W41068  12.775   5.591   2.445 -0.0214  0.3138 -0.3586
24595W        W41069  12.340   4.877   2.016 -0.0822  0.2546 -0.2074
24596W        W41070   4.587   8.910   3.935  0.0571  0.1654  0.1157
24597W        W41071  12.287   2.276   0.052 -0.0642  0.0377 -0.4226
24598W        W41072  13.146   5.560   9.119 -0.0237  0.0742  0.2662
24599W        W41073  13.561  14.030   4.243 -0.1679  0.0146 -0.1856
24600W        W41074   7.660   1.087  13.836  0.2817  0.0097 -0.0558
24601W        W41075   6.413   1.741  10.560 -0.0760  0.3396  0.1645
24602W        W41076  18.741  18.082   2.715  0.0442 -0.2651 -0.1001
24603W        W41077   2.212  13.695   3.285 -0.0367 -0.0354  0.1021
24604W        W41078  10.168  12.733   0.059 -0.1371  0.1008 -0.0892
24605W        W41079  18.924  17.513   4.253  0.3255 -0.0455 -0.1663
24606W        W41080  10.309   5.238  10.943 -0.3909 -0.0713  0.1074
24607W        W41081   4.708   1.759  10.693 -0.4794 -0.0210  0.0108
24608W        W41082  10.426   0.384   3.152 -0.0881 -0.4760 -0.2242
24609W        W41083  11.062   9.506   5.274  0.3103 -0.1249 -0.3503
24610W        W41084  14.484  17.809  10.981  0.2535  0.2194  0.1501
24611W        W41085   7.109   9.721  10.801 -0.0100  0.2502 -0.2908
24612W        W41086   1.163  11.518   3.666  0.1418 -0.0270  0.1320
24613W        W41087  17.621   6.722  12.582  0.1597 -0.3995 -0.0891
24614W        W41088  18.095   8.277   5.360  0.0523  0.1386 -0.0308
24615W        W41089   0.308   3.620  13.459 -0.0846 -0.0204 -0.0995
24616W        W41090   8.734   2.867   4.699  0.2942  0.1326  0.0133
24617W        W41091  17.786  13.161   3.533  0.0136 -0.1925  0.0121
24618W        W41092  18.926   1.788   4.428  0.2985 -0.4066  0.2616
24619W        W41093  19.106  10.381   3.639 -0.0306  0.2050  0.0977
24620W        W41094  12.174  14.118  12.433  0.1358  0.1058 -0.3590
24621W        W41095  13.844  12.269  10.681  0.1887 -0.5113  0.1607
24622W        W41096   9.356  13.765   1.198 -0.0250 -0.2994  0.0222
24623W        W41097  11.677  17.337   3.858 -0.3050 -0.0166 -0.0608
24624W        W41098  14.934  11.003  12.034 -0.0825  0.1810  0.1078
24625W        W41099   1.827  11.414   3.999 -0.0900 -0.2141  0.2921
24626W        W41100  14.934   8.434   1.947  0.0907 -0.0855 -0.0883
24627W        W41101   5.091  18.109  14.927 -0.0538 -0.0470 -0.2218
24628W        W41102  17.632  16.656  11.257 -0.0892 -0.1496 -0.0125
24629W        W41103   0.150   7.843   2.873 -0.2071  0.0483  0.1954
24630W        W41104   2.303   5.049   4.742 -0.1785  0.0826  0.1150
24631W        W41105  18.740  13.297   1.431  0.0320  0.0219  0.3504
24632W        W41106   5.869   4.289  14.218  0.2929 -0.1962 -0.0398
24633W        W41107  10.599   5.964  10.313 -0.2215  0.0594  0.1218
24634W        W41108  13.649   6.029   4.401  0.2298  0.1301 -0.1297
24635W        W41109   6.593   7.162   2.587 -0.1657 -0.2060 -0.0363
24636W        W41110   2.092   0.676  12.703 -0.0457 -0.1092 -0.1985
24637W        W41111  12.453  12.459   2.298 -0.0476  0.0324  0.0801
24638W        W41112   6.697   2.735  11.917  0.0665  0.0432  0.0119
24639W        W41113  10.434   8.271   2.518 -0.2962 -0.0322  0.2137
24640W        W41114   5.659  18.579  11.068  0.0621 -0.0474  0.0081
24641W        W41115   0.903  10.492  13.886  0.0565 -0.0668 -0.0566
24642W        W41116   6.209   9.506   5.298  0.1099  0.1876  0.2039
24643W        W41117  16.030  14.503  15.044 -0.0327  0.0494 -0.2861
24644W        W41118  12.986  18.818  13.912 -0.2866  0.0882  0.0628
24645W        W41119  16.222  10.482  12.018 -0.4043  0.1048 -0.1274
24646W        W41120   5.399   3.722  13.673  0.0687  0.0924  0.1259
24647W        W41121  12.191  17.410   1.815 -0.1377  0.1363  0.2640
24648W        W41122  18.251  13.788  10.946 -0.1514  0.1992  0.3471
24649W        W41123   6.535   9.438   0.466 -0.1986  0.1493  0.1301
24650W        W41124   5.538  13.307  12.913 -0.2517 -0.0920  0.0822
24651W        W41125  18.337  13.137   2.775  0.0671  0.2336 -0.1935
24652W        W41126  14.780   8.888   5.084 -0.0034  0.3612  0.1368
24653W        W41127   1.953   9.642   3.120 -0.0070  0.1219  0.1349
24654W        W41128   6.979   6.093   9.855  0.1110  0.0459  0.2844
24655W        W41129   8.321   6.395  10.897 -0.3047 -0.0093  0.1851
24656W        W41130  16.680   1.860   2.796 -0.1895  0.2601 -0.1256
24657W        W41131  10.131  11.580   5.498  0.3340 -0.1904  0.0587
24658W        W41132   6.300  19.143  14.757  0.2064  0.0029 -0.1604
24659W        W41133  10.563   9.021   1.420 -0.1393  0.1073 -0.4019
24660W        W41134  13.519   6.446   0.259  0.1769  0.0076  0.1669
24661W        W41135  13.226   4.174   3.696  0.0196 -0.0388  0.2344
24662W        W41136   8.366   7.636  11.215 -0.0589 -0.1033 -0.0164
24663W        W41137   0.089  14.796  11.385 -0.2078  0.2505 -0.0980
24664W        W41138  16.815  13.748  11.736  0.1822  0.0657 -0.0860
24665W        W41139  16.053  18.712   4.051 -0.0899 -0.0445  0.0219
24666W        W41140  14.866   8.053   4.678 -0.0625  0.0038  0.0680
24667W        W41141   6.352  16.791   4.305 -0.2059 -0.1302  0.2638
24668W        W41142   4.447   1.295   3.410 -0.1093 -0.1682  0.1098
24669W        W41143  14.093   2.696  11.283 -0.1515 -0.0643 -0.1357
24670W        W41144   9.566  16.096  11.803 -0.3350  0.0261  0.0662
24671W        W41145  15.970   4.493  14.673  0.1232 -0.1050  0.4275
24672W        W41146   1.584  17.927  13.344  0.1402  0.0370  0.3028
24673W        W41147   8.247  11.888  11.801  0.2001 -0.1478  0.0886
24674W        W41148   0.185  12.953  14.233  0.1078  0.1124 -0.1257
24675W        W41149   6.164   1.443  14.585 -0.2095  0.1905  0.0758
24676W        W41150  13.417  17.469  12.422  0.0314  0.0450 -0.2437
24677W        W41151  17.692  13.127   1.785  0.0239  0.2340 -0.1268
24678W        W41152   4.067   3.316  11.891  0.0597  0.1390  0.1209
24679W        W41153   8.049   3.836  14.344  0.1730  0.0590  0.0185
24680W        W41154   1.719  11.641   2.450  0.0988  0.1571 -0.0165
24681W        W41155  11.183   4.598  13.148  0.0276 -0.1826  0.1049
24682W        W41156  10.612  18.434   4.770 -0.5089 -0.1416  0.0804
24683W        W41157   1.675   0.795   4.200 -0.1093  0.4742  0.0280
24684W        W41158   3.579  18.662   4.297  0.0607  0.1045  0.1016
24685W        W41159   4.219   2.393  11.556  0.1557 -0.0258  0.2043
24686W        W41160  15.399  18.409   0.244 -0.0262 -0.0619  0.6387
24687W        W41161  14.724   2.711  14.914 -0.1765 -0.2602 -0.0134
24688W        W41162   6.873  13.583  12.416  0.0194 -0.2841 -0.1624
24689W        W41163   7.089  10.542  12.075  0.0037 -0.0451 -0.1306
24690W        W41164  18.895   2.144  13.697  0.3300 -0.0718 -0.0927
24691W        W41165   2.869  14.807  13.111  0.1183 -0.0443  0.3834
24692W        W41166  15.128  17.290   4.743  0.2063 -0.1809 -0.2211
24693W        W41167   5.315  18.402  12.506  0.0422 -0.4133 -0.1966
24694W        W41168   9.050   1.734   1.296 -0.4458 -0.3445 -0.0120
24695W        W41169   3.180  11.553   1.301 -0.0858 -0.2274 -0.0366
24696W        W41170  10.937  10.088  13.157  0.0115 -0.0716  0.4134
24697W        W41171   1.333   2.304  11.679  0.0833  0.2787  0.1151
24698W        W41172   7.689  12.744   0.143 -0.1899  0.0237  0.0367
24699W        W41173  10.452  17.637   5.186 -0.2811 -0.0034 -0.0263
24700W        W41174   7.473   1.448   0.270 -0.0275  0.2970 -0.1348
24701W        W41175   9.629   8.115   5.257 -0.0279  0.0402  0.2068
24702W        W41176  13.975  15.859  13.413 -0.2245  0.0686 -0.1758
24703W        W41177  14.786   0.303   2.430 -0.3038  0.1752  0.0090
24704W        W41178  11.363   0.492   3.735 -0.2711 -0.0805  0.1840
24705W        W41179  14.188  18.199   0.801 -0.0938 -0.1245 -0.2475
24706W        W41180  11.684   7.044   1.069  0.2382 -0.1564 -0.1334
24707W        W41181   5.403  14.167   1.999 -0.0779  0.1140 -0.1620
24708W        W41182   2.620  12.934   2.461 -0.0152  0.0334  0.0195
24709W        W41183   3.466  12.963   1.381  0.0773  0.1056  0.0017
24710W        W41184   4.454   4.784  11.786  0.1188  0.0823 -0.0888
24711W        W41185  13.063  13.625  12.547 -0.1494  0.1541 -0.0393
24712W        W41186  18.626   6.178   1.290  0.0653 -0.2451  0.1145
24713W        W41187   1.924   8.829   1.143 -0.3153 -0.2670 -0.0633
24714W        W41188   4.955  14.714   4.061  0.0358 -0.0503 -0.1098
24715W        W41189  16.740  12.024  10.541  0.0591  0.2411 -0.2864
24716W        W41190   2.286   9.323  10.236  0.0401 -0.1536  0.0628
24717W        W41191  12.675  16.437  10.723  0.0555  0.0813  0.2710
24718W        W41192   7.356   5.233   3.637 -0.1403 -0.5163 -0.1188
24719W        W41193   8.866  10.616   3.728  0.1567  0.4386 -0.2272
24720W        W41194   1.088  10.618  12.094  0.0740  0.1619  0.0247
24721W        W41195  15.969   2.952  14.725 -0.2129  0.0177 -0.0908
24722W        W41196   1.208  13.175  12.659  0.1692 -0.1120  0.0560
24723W        W41197   0.789   8.970   2.260  0.0287 -0.2285  0.2529
24724W        W41198  16.567  13.810  10.624 -0.3024 -0.0036  0.0505
24725W        W41199  15.062   0.925  14.550 -0.1526  0.2735 -0.3693
24726W        W41200  17.847  14.288   1.404  0.0440 -0.0288 -0.2344
24727W        W41201   9.249  15.789  13.638 -0.5730 -0.2932 -0.0984
24728W        W41202  11.819   8.959  11.678 -0.6498  0.0550 -0.3951
24729W        W41203  12.404   5.489   3.390 -0.1662  0.3101  0.2558
24730W        W41204   2.580  17.576   0.384 -0.0444 -0.2159  0.3439
24731W        W41205  17.111   3.297   3.955  0.1295  0.2596  0.0129
24732W        W41206   5.413   0.481  15.013 -0.2717  0.1135  0.2614
24733W        W41207  15.553   8.543   0.419  0.1930 -0.1143  0.0371
24734W        W41208  17.496  14.235   3.996 -0.3501 -0.0322  0.2691
24735W        W41209  18.526  11.699   1.370  0.0139  0.2983 -0.1291
24736W        W41210   5.006   4.079  13.919  0.2715  0.1828  0.1433
24737W        W41211  14.928   4.608  13.572 -0.0008  0.0965 -0.1001
24738W        W41212  15.059  12.228  14.165 -0.0894  0.3776  0.1887
24739W        W41213   4.399   7.544   3.549 -0.0898  0.0271 -0.2221
24740W        W41214  12.955   8.782   3.201  0.0780 -0.0540  0.3897
24741W        W41215   0.241   3.864   2.266  0.0294  0.0281  0.0294
24742W        W41216   7.345  17.023  13.684  0.1208  0.0313  0.0051
24743W        W41217   0.756  15.427  11.175  0.2057  0.1680 -0.1341
24744W        W41218  14.295   9.398   5.313  0.0475  0.1683 -0.2082
24745W        W41219   8.918  14.961   5.016 -0.0178  0.0572 -0.2087
24746W        W41220  15.623   7.016   5.509 -0.5351 -0.0422 -0.2356
24747W        W41221  15.496   6.345   4.760 -0.2458 -0.2202  0.0888
24748W        W41222   5.923  12.459  11.210 -0.0381 -0.0276  0.1878
24749W        W41223   4.798   2.303   5.683  0.1270 -0.0509  0.2364
24750W        W41224  19.078   8.686   2.927  0.1831  0.2561 -0.1135
24751W        W41225   1.158   5.567   1.748 -0.1838 -0.2133  0.3830
24752W        W41226   7.789  15.876  10.456  0.0192 -0.2188  0.2201
24753W        W41227   1.982   2.683  11.558  0.0597  0.5081  0.2372
24754W        W41228   8.417   2.775  12.220 -0.0400  0.1630  0.0006
24755W        W41229  18.801   6.550  11.996  0.1580 -0.3182  0.0799
24756W        W41230  16.061  18.573  12.023  0.1512  0.0630  0.1930
24757W        W41231  18.109  18.233   2.302  0.1488  0.1030 -0.1095
24758W        W41232  13.265  10.768   4.899 -0.3287 -0.2898 -0.0843
24759W        W41233   8.015  16.985   4.911  0.1248  0.0474  0.2586
24760W        W41234   6.660   6.674   1.818  0.0119 -0.1015 -0.1274
24761W        W41235  12.477   2.279   4.582  0.0470  0.3199  0.0467
24762W        W41236  11.296   8.229   4.236 -0.0118 -0.1331  0.2773
24763W        W41237   5.848   2.957   2.864  0.0807  0.2077  0.2331
24764W        W41238  11.793   8.595  14.737 -0.1402 -0.1472 -0.0998
24765W        W41239  18.152  11.912   1.180  0.1524 -0.0741 -0.0198
24766W        W41240   7.953  10.985   3.649 -0.3554  0.1602 -0.3088
24767W        W41241   4.088  14.036  12.599  0.2461  0.1695 -0.1898
24768W        W41242   9.422  11.166   1.856  0.3822 -0.0848  0.0626
24769W        W41243  17.638   6.271  13.811  0.1705  0.1331  0.1207
24770W        W41244  18.945   9.846   3.740 -0.2326 -0.1670  0.0444
24771W        W41245   4.679   8.325   0.238 -0.0199 -0.4424  0.0238
24772W        W41246  11.306   7.540   3.517  0.0982 -0.0692  0.2562
24773W        W41247   0.013  10.178  13.461  0.1629  0.2000 -0.1884
24774W        W41248   7.108  12.070   4.309  0.1969  0.2354 -0.0779
24775W        W41249  13.103   1.874   3.671 -0.1848  0.2339  0.0973
24776W        W41250   7.437   8.294  12.426 -0.0492  0.2818 -0.0291
24777W        W41251   3.977  16.600  12.912 -0.0275  0.4363  0.1685
24778W        W41252   4.743   4.344   4.900 -0.0749 -0.1810 -0.1386
24779W        W41253  10.430  13.722   0.614  0.0750  0.0661  0.0145
24780W        W41254  16.557  17.259   3.772 -0.1118 -0.2369  0.3519
24781W        W41255  10.629   5.431   1.957  0.3361  0.1743 -0.0921
24782W        W41256  17.615  15.054  14.384  0.2001 -0.3464  0.2732
24783W        W41257   9.133   2.973   0.481  0.0707  0.1558 -0.2243
24784W        W41258  14.835  18.113  11.871 -0.2894 -0.1868  0.2397
24785W        W41259  13.187   1.080   1.523  0.0362 -0.0683  0.2514
24786W        W41260   2.570   3.086   6.100 -0.1190  0.3678 -0.0572
24787W        W41261  10.794  10.399   3.832  0.4727 -0.0483 -0.4292
24788W        W41262  11.345  15.015   3.127  0.0621 -0.1234  0.1456
24789W        W41263  16.300   9.642   5.048  0.0065 -0.0519 -0.1469
24790W        W41264   4.664  18.589   3.788  0.1173  0.1111 -0.1489
24791W        W41265   6.506   4.011   4.502  0.0717 -0.0038  0.0548
24792W        W41266  14.552   4.802   1.052  0.2094 -0.2804 -0.4368
24793W        W41267  15.551  17.169   9.988 -0.0373 -0.3228 -0.0405
24794W        W41268   4.221   1.637   2.440 -0.1210  0.1550 -0.2454
24795W        W41269   6.198  15.340  11.499 -0.2769 -0.0321 -0.2325
24796W        W41270  13.925   7.969   1.619 -0.1739  0.3386  0.2112
24797W        W41271   1.641   4.713  11.309  0.1247  0.0799 -0.2189
24798W        W41272  16.454  12.762  11.390 -0.0046  0.0230 -0.0809
24799W        W41273   0.663  15.612  13.075 -0.0808  0.0798 -0.1594
24800W        W41274  13.117  18.767   2.641 -0.0368  0.1301  0.0952
24801W        W41275  16.282  15.664  15.036  0.0398 -0.1708  0.3918
24802W        W41276   1.054   9.175   1.388 -0.2167  0.1506 -0.0827
24803W        W41277  12.654  12.873  14.621 -0.2467  0.3527 -0.1766
24804W        W41278   8.688   1.527   4.430  0.1575  0.1476  0.1199
24805W        W41279   6.144   5.998  13.911  0.1671 -0.1278  0.0358
24806W        W41280   8.147   3.045   2.232 -0.2196 -0.1101 -0.0403
24807W        W41281   6.043  18.190   5.170 -0.0192 -0.1555 -0.0049
24808W        W41282   2.136   0.963   2.314 -0.1664 -0.0563  0.1025
24809W        W41283   8.958   2.414  11.027 -0.1016 -0.1713  0.0839
24810W        W41284   3.406   3.662  12.425  0.2199  0.1968 -0.0121
24811W        W41285   8.005  10.058   3.445  0.0402 -0.0954 -0.1478
24812W        W41286   0.845  12.860  10.504  0.0123 -0.3276 -0.0985
24813W        W41287  15.506   5.067   1.010 -0.3024  0.0728  0.1318
24814W        W41288  13.510  18.353   3.074  0.1272 -0.2845  0.1607
24815W        W41289   5.608  18.271  13.406 -0.1355  0.1600 -0.2584
24816W        W41290  17.990  17.916   0.945 -0.1868  0.0681 -0.2061
24817W        W41291   9.546  17.729  12.078 -0.0568 -0.1763  0.0263
24818W        W41292   0.938   4.174   3.840 -0.0324  0.1079  0.1937
24819W        W41293  12.751   5.689  13.139 -0.0688 -0.1383 -0.5440
24820W        W41294  10.687   5.822  14.276 -0.1864  0.3082  0.1199
24821W        W41295   8.501  17.206   2.999  0.0825 -0.1205 -0.0650
24822W        W41296  17.874   8.957  12.922 -0.1537 -0.0889 -0.1949
24823W        W41297   6.537  17.139  10.688  0.0966  0.0262  0.0564
24824W        W41298   9.314  13.706   4.924 -0.1709  0.0859  0.2425
24825W        W41299  17.540   3.525  11.515 -0.0212 -0.0495 -0.1378
24826W        W41300  16.082  15.477  14.609  0.0221 -0.1672 -0.1964
24827W        W41301  10.057  10.303   1.206  0.0113  0.2962  0.0142
24828W        W41302   9.536  16.018   4.922 -0.0797  0.2296 -0.3367
24829W        W41303   3.554   8.671  11.931  0.0955  0.1452 -0.2341
24830W        W41304  16.271  16.411   3.483 -0.1137  0.1805  0.0843
24831W        W41305  10.010  18.400   2.792 -0.0621 -0.2641  0.2037
24832W        W41306   0.382  14.712   1.103 -0.4570  0.3030  0.3318
24833W        W41307   4.331   0.626   1.349  0.2208 -0.0814  0.0571
24834W        W41308  13.641   0.016  14.392  0.1200  0.0145 -0.2847
24835W        W41309  16.232  15.055   5.461 -0.1096  0.0674 -0.3328
24836W        W41310  10.914   2.220  12.698  0.1440  0.1231  0.0768
24837W        W41311  10.104   8.674   3.222  0.1124  0.0473  0.1310
24838W        W41312   7.725  17.279   2.009  0.1800 -0.0577 -0.0249
24839W        W41313   3.823  12.193   1.278  0.0186  0.0342  0.4497
24840W        W41314   4.669  12.567  12.799 -0.1832  0.0662  0.0940
24841W        W41315  17.760   1.208   0.309  0.1073  0.2221  0.0803
24842W        W41316  12.536   8.489   4.235  0.1825 -0.0571  0.0686
24843W        W41317  18.115   9.602  10.384 -0.1343 -0.3864  0.1967
24844W        W41318  15.041   3.028  11.155  0.2536  0.0751 -0.0789
24845W        W41319  11.752  16.728  12.886  0.2590 -0.0628  0.1690
24846W        W41320   3.242   0.842  13.991 -0.1861  0.0392  0.1768
24847W        W41321  14.932  12.624  14.428 -0.2123 -0.3387  0.2255
24848W        W41322   0.152   4.840   2.368 -0.1208  0.1500 -0.1054
24849W        W41323  17.392   5.536  14.316  0.3287  0.0935 -0.0665
24850W        W41324  18.468  13.157  11.608  0.0062 -0.0750 -0.2962
24851W        W41325  16.380   6.867   0.996  0.0857  0.0102 -0.0472
24852W        W41326  14.292   4.418   0.876  0.1245  0.0738 -0.2858
24853W        W41327   1.247  14.975  14.927 -0.2978 -0.0891 -0.1566
24854W        W41328   8.499   0.937   1.008  0.2010 -0.1374 -0.3724
24855W        W41329   2.190   7.036   0.557  0.1272  0.1828 -0.2164
24856W        W41330   0.098   9.537   3.341  0.1387 -0.0666  0.3083
24857W        W41331   8.303   1.610  13.276 -0.0981 -0.1136  0.0044
24858W        W41332  16.331  13.821   0.264 -0.0315 -0.1933 -0.1201
24859W        W41333   1.291   8.533  11.842 -0.0356 -0.0621 -0.1449
24860W        W41334   4.782  15.248  12.759 -0.2232 -0.2791  0.1009
24861W        W41335   4.581   3.142  10.851 -0.0185 -0.2401 -0.1962
24862W        W41336  11.675  12.603   2.010 -0.0580 -0.1629 -0.3281
24863W        W41337   2.450  12.741  14.474 -0.2343  0.3325 -0.1959
24864W        W41338  16.802  15.384  13.853  0.0725  0.0007 -0.2070
24865W        W41339   9.154   9.033  13.152  0.5636 -0.2647  0.2677
24866W        W41340  10.230   3.921   3.425 -0.5157 -0.3352 -0.1023
24867W        W41341  17.869  17.472   0.664  0.0525  0.1665 -0.0741
24868W        W41342  10.615   2.292   4.867  0.1977 -0.0311  0.2137
24869W        W41343  16.752   5.867  11.713 -0.0251  0.2822  0.2182
24870W        W41344   2.495  11.502  13.537  0.0010 -0.0046  0.1808
24871W        W41345   8.719   7.491   1.047 -0.2135  0.0313  0.1314
24872W        W41346   5.360  10.109   4.437  0.2817 -0.2215  0.0014
24873W        W41347  10.512  13.885  14.668 -0.0157  0.2754 -0.0401
24874W        W41348   8.984   7.574   3.665  0.0665  0.1886  0.0844
24875W        W41349  16.330   2.336   1.729 -0.1528 -0.0813 -0.1809
24876W        W41350   8.101   5.858  12.768  0.0781  0.1544  0.1587
24877W        W41351   0.720  17.700   1.642  0.0003  0.2238 -0.6143
24878W        W41352  17.533   3.681   4.070 -0.0755 -0.1479  0.2449
24879W        W41353  14.172  13.740   3.051  0.2796  0.1727  0.2534
24880W        W41354  17.667   2.052  12.149  0.0514  0.2608  0.0936
24881W        W41355  12.878  15.525   4.000 -0.0124  0.1464  0.0633
24882W        W41356   6.616  15.746  12.470 -0.2275  0.4615  0.0085
24883W        W41357  13.330  14.657   1.806 -0.0513 -0.0416  0.3246
24884W        W41358  18.512  13.495  11.259 -0.0753 -0.2810  0.0287
24885W        W41359   4.495   7.769  12.133 -0.1120 -0.2234  0.1634
24886W        W41360   5.003  16.068  13.382  0.0549 -0.1482  0.4629
24887W        W41361   1.876   6.193   1.554 -0.0654 -0.3977  0.1094
24888W        W41362   0.081   3.178  13.729 -0.0815  0.2796  0.0008
24889W        W41363  18.164   5.909  12.176  0.0333 -0.1049  0.1491
24890W        W41364  13.775   1.941  14.876 -0.0917  0.0755 -0.0456
24891W        W41365   3.227  16.442  12.623 -0.1808  0.1088  0.1161
24892W        W41366  15.361  17.736  11.412  0.2821  0.4355  0.0054
24893W        W41367   4.734  10.823   4.076  0.2361 -0.0895 -0.1873
24894W        W41368  11.867  13.946  12.081 -0.4575  0.0429 -0.3983
24895W        W41369  11.376   3.835  10.268  0.3099  0.1505 -0.0797
24896W        W41370  17.988  10.113   0.740 -0.0401  0.2130  0.2594
24897W        W41371   0.650  10.926  14.957 -0.1949  0.1287  0.1725
24898W        W41372   0.206  18.953   1.935 -0.0452 -0.0738 -0.2500
24899W        W41373   6.323  16.645  14.018 -0.0194  0.0571  0.2172
24900W        W41374   7.083   5.104  11.576 -0.0261 -0.2390  0.0198
24901W        W41375   3.615   7.249   3.915  0.2091  0.1555 -0.1177
24902W        W41376   1.490   1.690   5.795 -0.1233 -0.3562  0.2498
24903W        W41377   2.357  17.767  11.505 -0.0974 -0.0045 -0.2789
24904W        W41378   4.379   7.990   2.808  0.0048  0.1856  0.1756
24905W        W41379   2.956  10.225  13.171 -0.0564  0.0548 -0.0928
24906W        W41380   1.289   6.595   0.591  0.3523  0.1498  0.2616
24907W        W41381   6.457  17.733   4.082 -0.1348  0.1175  0.4533
24908W        W41382   2.376  10.110  10.854  0.2024  0.1340  0.1315
24909W        W41383   2.597  14.240  10.883 -0.1823 -0.0324  0.0257
24910W        W41384  18.230   8.750   4.125  0.0010 -0.4076 -0.1190
24911W        W41385  11.238  13.062   5.867 -0.0105  0.0945 -0.0710
24912W        W41386  16.131  12.339   3.306 -0.2492  0.2469  0.5004
24913W        W41387   8.410  10.021   3.100 -0.2755 -0.1414  0.0085
24914W        W41388  15.008   0.445  14.464  0.1643  0.2111  0.0258
24915W        W41389  13.551   5.627  12.264 -0.2398 -0.1420  0.2591
24916W        W41390  14.653   2.737  14.244 -0.0826 -0.1188  0.0964
24917W        W41391   5.428  17.537  13.772 -0.0849 -0.2464 -0.0367
24918W        W41392   1.013  16.546   1.369 -0.2525 -0.2027 -0.1878
24919W        W41393  16.256  14.998  12.481  0.0339  0.1109 -0.0466
24920W        W41394   7.924   3.944   4.263 -0.2072 -0.0521  0.3399
24921W        W41395   8.337  17.982  10.649  0.3758  0.3579 -0.3669
24922W        W41396  14.943   5.089  12.661  0.1807 -0.0095  0.0404
24923W        W41397   0.063  13.769   4.051  0.0563  0.0825 -0.1163
24924W        W41398   0.318  13.588  13.273  0.2310 -0.2901 -0.1326
24925W        W41399  10.957   5.291   5.817  0.1506  0.0911 -0.0744
24926W        W41400  15.927  12.362   4.536 -0.2433  0.0164 -0.1403
24927W        W41401  10.886  12.603   4.647  0.1519 -0.1904  0.0887
24928W        W41402   9.302  18.297  14.120  0.0088  0.1740 -0.2230
24929W        W41403  13.530   6.820  14.950  0.1938  0.0606 -0.0988
24930W        W41404  17.865   0.934  10.060 -0.0256 -0.2710  0.2599
24931W        W41405  15.292   2.136  11.570  0.1189  0.1889  0.3199
24932W        W41406  17.034   2.379  13.219  0.0271 -0.0520  0.0298
24933W        W41407   0.141  12.638   4.500 -0.0007  0.1321  0.1987
24934W        W41408   0.011  11.294   2.128  0.3897 -0.0356  0.0783
24935W        W41409  15.719   9.881   4.601 -0.2955  0.1852 -0.0613
24936W        W41410   7.585   3.401  10.355  0.4260  0.0205  0.0025
24937W        W41411  18.769  16.476   3.090 -0.2766  0.3439  0.1400
24938W        W41412  10.078  17.290  10.874  0.1076  0.0960  0.1217
24939W        W41413  16.458  10.941   1.529  0.2296 -0.0287 -0.3899
24940W        W41414   6.384   8.780   3.607  0.1169 -0.0179 -0.4362
24941W        W41415  11.795   6.178   5.282 -0.0482  0.2599  0.0058
24942W        W41416  17.213  11.650  11.188  0.0355  0.0276  0.1154
24943W        W41417   2.092  18.039  11.154 -0.0589  0.2810 -0.1383
24944W        W41418   8.569   2.375   4.061  0.0442  0.0473 -0.4634
24945W        W41419  12.188   3.291  13.243  0.0870  0.0876 -0.1077
24946W        W41420  15.769  17.327  14.379  0.1960 -0.1013  0.1019
24947W        W41421  13.135  17.727   4.397  0.1744 -0.2516 -0.0987
24948W        W41422   1.220  11.072   2.194 -0.0369 -0.2758  0.4749
24949W        W41423   4.388   9.800   9.283  0.0050 -0.3401 -0.0681
24950W        W41424   9.120   5.404   2.854 -0.1572 -0.3791 -0.0866
24951W        W41425  13.344  17.604  13.747  0.2361  0.0706  0.1613
24952W        W41426   6.765   6.261   3.022  0.2216 -0.0001  0.2036
24953W        W41427  13.668   4.158  14.824  0.0081 -0.1570  0.2578
24954W        W41428  10.506   1.688   4.488 -0.0876 -0.1453  0.0754
24955W        W41429   5.271   6.835   2.533  0.3227  0.0945  0.1072
24956W        W41430  12.478   4.103  14.653  0.1311 -0.1937  0.3486
24957W        W41431   5.061  10.198  14.856  0.0252 -0.0514 -0.2957
24958W        W41432   4.241   3.028  14.095  0.0748 -0.2386  0.5501
24959W        W41433  18.145  19.028   3.871 -0.2295  0.0472  0.0288
24960W        W41434  12.584  15.565  12.027 -0.0021 -0.1488 -0.0572
24961W        W41435   8.124  10.653   2.104 -0.0990 -0.3670 -0.1081
24962W        W41436   5.476   8.362  11.623  0.0930 -0.0428  0.0175
24963W        W41437   1.267  10.033  11.320  0.0466  0.2543 -0.1409
24964W        W41438   6.895  12.860   5.317 -0.4290 -0.2492 -0.0463
24965W        W41439   1.360  17.439  13.683 -0.2176 -0.1691 -0.1424
24966W        W41440   3.800  17.901   2.335  0.0354 -0.1768 -0.0886
24967W        W41441   7.620   2.849  10.951  0.0892 -0.0861 -0.2191
24968W        W41442  10.529  11.434   5.121  0.0524  0.0045 -0.3196
24969W        W41443   4.902   1.409   4.563 -0.0875  0.4153  0.2590
24970W        W41444   1.021   4.097   0.680 -0.0237 -0.1072 -0.3737
24971W        W41445  13.407  17.980   4.015 -0.2669  0.2295 -0.2284
24972W        W41446  14.763  14.197   2.009 -0.2478 -0.1425 -0.1386
24973W        W41447   8.277  17.387  12.833 -0.0604 -0.4119 -0.3578
24974W        W41448  17.799   4.857  13.893 -0.1999  0.0355 -0.2528
24975W        W41449   3.010   4.172   0.998  0.0607  0.2476 -0.1504
24976W        W41450  13.596   0.804  11.439  0.2473 -0.0488 -0.0921
24977W        W41451  18.437  10.807   3.174 -0.1004 -0.1278  0.2525
24978W        W41452  15.211   7.915  14.814  0.0345 -0.3667  0.0443
24979W        W41453  18.732  17.339  13.676 -0.0800  0.2345  0.0102
24980W        W41454   7.073  17.450  13.390  0.1619 -0.1183 -0.1460
24981W        W41455   5.542   4.805   2.704  0.0190 -0.1564 -0.0270
24982W        W41456  12.649   5.604  11.172  0.0974 -0.0071  0.0284
24983W        W41457  12.483   4.423  12.536 -0.4877  0.4015 -0.2391
24984W        W41458   8.892  12.871  14.691  0.2218  0.0242 -0.0653
24985W        W41459  14.339  10.713   3.936 -0.0790 -0.2596  0.3662
24986W        W41460  13.310   2.197   5.273 -0.0612  0.1247 -0.0135
24987W        W41461  16.029   7.266   3.273  0.0415 -0.0722 -0.0578
24988W        W41462  12.053   9.814   2.168  0.4359 -0.1117 -0.2916
24989W        W41463  11.246   6.636  11.390 -0.2095  0.0050 -0.0356
24990W        W41464  17.009   6.126   1.317 -0.0980 -0.1724 -0.1467
24991W        W41465  17.668  14.292   0.371  0.1794  0.0038 -0.2028
24992W        W41466   5.819  12.245   0.327 -0.2484  0.1015 -0.1541
24993W        W41467   9.205   2.570   0.203  0.2773  0.1013 -0.0581
24994W        W41468  10.912  19.021   1.939  0.0039  0.0207  0.0703
24995W        W41469   5.368   1.458   3.587  0.1834 -0.2050  0.0199
24996W        W41470   5.587  12.910  13.683  0.1629  0.0985  0.0865
24997W        W41471   4.452  16.030  14.024  0.1068  0.2067 -0.0027
24998W        W41472  12.432   4.110   4.121 -0.1169 -0.1950  0.0413
24999W        W41473   5.361   2.844   4.022 -0.2528 -0.2589 -0.3592
25000W        W41474   4.872  10.783   1.002 -0.3089 -0.3698  0.0615
25001W        W41475  18.105   3.511  10.531  0.0421 -0.2492 -0.0832
25002W        W41476  12.506   3.916   3.346  0.2071  0.0197  0.2973
25003W        W41477   8.050  16.081  12.216  0.0704  0.1616  0.2378
25004W        W41478   6.399  10.221   4.040  0.0308 -0.1516 -0.1379
25005W        W41479  12.645  17.145  14.699  0.4676 -0.1339  0.0300
25006W        W41480  19.047   4.109  12.855 -0.1193 -0.1102 -0.0385
25007W        W41481  15.639   9.087   1.766  0.2288  0.0750  0.0938
25008W        W41482   6.846   7.565  15.076  0.1537 -0.1414 -0.1503
25009W        W41483  17.043  11.852  10.079  0.0922 -0.2979 -0.0728
25010W        W41484  18.021   4.597  10.560 -0.3002  0.1909 -0.2381
25011W        W41485  18.764   1.614  13.806 -0.0541 -0.2228 -0.1045
25012W        W41486   5.367  15.471   2.200  0.3349 -0.1048  0.0979
25013W        W41487  17.224   3.452   4.451 -0.0718  0.0485 -0.1297
25014W        W41488   2.998   5.019  14.895 -0.1349 -0.1034  0.0403
25015W        W41489  10.571   9.278  14.747  0.1048  0.1370 -0.2566
25016W        W41490  11.116  10.012  12.650 -0.1601 -0.2123  0.0659
25017W        W41491  14.725  16.402   2.942 -0.0215 -0.2236  0.2058
25018W        W41492  14.735   6.791   1.189  0.1728  0.0360  0.0450
25019W        W41493  15.960  15.488  13.983 -0.0842 -0.0568 -0.1796
25020W        W41494   2.230   7.610   4.300  0.0153 -0.0743  0.1624
25021W        W41495   2.543   6.811   3.180 -0.1522  0.1812  0.1629
25022W        W41496  17.486  10.365   5.395  0.0042 -0.1771 -0.4663
25023W        W41497  16.305   9.439   3.596  0.1081  0.0579  0.2127
25024W        W41498  10.647   0.026  15.090 -0.1655 -0.0137 -0.2070
25025W        W41499   7.989   1.949  13.383  0.0460  0.0579 -0.1906
25026W        W41500   5.518  11.847  11.473  0.0934 -0.1764 -0.0857
25027W        W41501   2.224   2.483   3.387  0.0009 -0.1569 -0.0015
25028W        W41502   9.498   1.356   4.561  0.3429  0.0535 -0.2228
25029W        W41503   6.587  15.979   4.739 -0.0456  0.0055 -0.2576
25030W        W41504  15.214  14.365   3.854  0.2145  0.0953  0.0932
25031W        W41505   2.662   5.530  12.670 -0.0017  0.4542 -0.1482
25032W        W41506   7.233   9.195   2.629  0.0981  0.1273 -0.2426
25033W        W41507   6.655  15.238  11.394  0.3280 -0.1089 -0.0758
25034W        W41508   8.781   6.017   0.609 -0.1688 -0.1756 -0.1432
25035W        W41509  11.865  13.586  12.972 -0.7155  0.1189  0.2557
25036W        W41510   5.004   2.820   5.556  0.2166  0.0202  0.3618
25037W        W41511  11.691   8.635   4.497 -0.1433 -0.1005 -0.0678
25038W        W41512   8.316   9.333   0.459 -0.1861 -0.0015 -0.1786
25039W        W41513   3.522  19.152   2.213  0.1410 -0.0272  0.1861
25040W        W41514   8.003   1.628   0.356  0.0954 -0.1590  0.1781
25041W        W41515  12.856  16.628  14.589  0.1057 -0.1853  0.0915
25042W        W41516  13.546   9.427   3.559 -0.1749 -0.0224 -0.0513
25043W        W41517   4.019   4.773  15.080  0.0200  0.0323  0.1500
25044W        W41518  19.094   1.670   0.630 -0.0613 -0.1271 -0.1090
25045W        W41519   5.826  10.454   3.155  0.1425 -0.0618  0.0162
25046W        W41520  19.145   7.572   3.349 -0.0241 -0.1059  0.1371
25047W        W41521   2.449   8.840  14.585 -0.1635  0.1153  0.0912
25048W        W41522   8.570   8.741  11.362 -0.2149 -0.2167  0.0882
25049W        W41523   0.961   6.239  14.486  0.3532 -0.0533 -0.1107
25050W        W41524  18.678  16.575   4.451  0.1203 -0.0458  0.1869
25051W        W41525  15.843   2.377   1.906 -0.2809  0.0833 -0.0661
25052W        W41526   7.944   4.325  14.160  0.2067 -0.1139  0.1370
25053W        W41527   6.252   4.789  12.451  0.0855  0.0906 -0.2585
25054W        W41528   4.550  16.371   4.174  0.0278 -0.2008  0.0901
25055W        W41529   9.958  14.858   4.561  0.0686 -0.0747 -0.2022
25056W        W41530   4.457   5.877  11.532 -0.2250 -0.2068 -0.1093
25057W        W41531  14.709   0.350  11.176  0.0482 -0.1480  0.3304
25058W        W41532   5.229   8.466   1.136 -0.1099 -0.4038 -0.1873
25059W        W41533  12.694   2.596   2.909  0.0978 -0.2012 -0.1445
25060W        W41534   1.902   9.651  10.161 -0.0923 -0.0696 -0.2099
25061W        W41535   7.869  17.375  13.119 -0.1131  0.1755 -0.3464
25062W        W41536  11.959   3.560  12.209  0.2255 -0.0698  0.0399
25063W        W41537  15.786  13.938  13.349  0.0469 -0.0074  0.0041
25064W        W41538   8.114  10.057  11.045 -0.2152  0.3092  0.4123
25065W        W41539   0.489   4.427   4.096  0.0547 -0.1241  0.0264
25066W        W41540   2.628   9.866  13.695 -0.1120 -0.2131 -0.0813
25067W        W41541   4.517   8.848  14.420  0.1498  0.0110 -0.0627
25068W        W41542  17.679  17.564  13.402  0.0822  0.0923  0.0805
25069W        W41543   1.728   9.733  11.964 -0.3847 -0.0882 -0.0813
25070W        W41544   3.235   0.636  12.704  0.0360 -0.0561 -0.1728
25071W        W41545   9.132  17.406   5.667 -0.0657  0.0276  0.0547
25072W        W41546  15.351   5.862   1.984 -0.4474  0.0884  0.1571
25073W        W41547  11.229  10.355   4.966 -0.3067 -0.0511 -0.2335
25074W        W41548   3.246   3.657   3.435  0.0321 -0.3907  0.1447
25075W        W41549   0.835   5.612   4.115 -0.3897 -0.1063  0.0674
25076W        W41550   4.389  14.704  10.143  0.1248 -0.0230  0.1152
25077W        W41551  10.836   3.844   3.561 -0.1270  0.1855  0.2463
25078W        W41552   3.356  12.994  14.437 -0.2463  0.0068  0.1534
25079W        W41553  14.491  13.910   5.101  0.2933 -0.2542 -0.1078
25080W        W41554  12.323  11.552   1.543  0.0124 -0.3135  0.0473
25081W        W41555   1.181   7.905   3.981 -0.1708  0.1838  0.0283
25082W        W41556  10.917   6.669   3.025 -0.1766 -0.0199  0.1762
25083W        W41557  11.803   8.661  13.877 -0.1128  0.2947 -0.3568
25084W        W41558  13.833  10.145   0.209 -0.2923 -0.1103  0.2293
25085W        W41559   6.118  18.119   0.892 -0.1538  0.2426  0.1052
25086W        W41560  13.873  14.287   1.018 -0.1658  0.1092  0.2217
25087W        W41561   0.633  17.461   2.177 -0.1805  0.0732 -0.1404
25088W        W41562  14.044  18.570  10.454 -0.0030 -0.3013 -0.2653
25089W        W41563   3.446   3.705  12.982 -0.1489  0.3651 -0.4834
25090W        W41564   6.854  17.071  11.080  0.0528 -0.0957 -0.1016
25091W        W41565  12.005   6.224  14.629 -0.0112  0.2634  0.1604
25092W        W41566  14.974  18.795   2.213 -0.1883 -0.2895 -0.0340
25093W        W41567  12.275   2.594   3.197 -0.1933 -0.1689  0.4542
25094W        W41568  15.065  13.673   2.423  0.2503  0.0051 -0.0339
25095W        W41569   1.799   9.208   1.415 -0.1550  0.2621 -0.2383
25096W        W41570  17.946   2.184  14.116  0.2302 -0.4591 -0.4392
25097W        W41571   8.567  12.886   1.713  0.0626  0.3499 -0.3562
25098W        W41572  14.421  17.772  10.465  0.0085 -0.0958  0.1859
25099W        W41573  11.712   7.978   4.180  0.2150 -0.0301  0.0548
25100W        W41574  14.195  17.011  11.294 -0.1032  0.2956  0.0729
25101W        W41575  10.581   0.021   0.487  0.0596 -0.0792 -0.2683
25102W        W41576   8.282   9.980   4.722 -0.1693 -0.1208  0.1965
25103W        W41577  12.652  18.791  11.795  0.1541 -0.3345  0.2116
25104W        W41578  14.335  16.806  10.843  0.1867 -0.1599 -0.2393
25105W        W41579   1.432   4.337  12.120  0.0565  0.2305  0.0969
25106W        W41580   8.665  17.797   1.211 -0.0702  0.0368 -0.3615
25107W        W41581  12.472   0.265   2.404 -0.0655  0.0840 -0.0702
25108W        W41582   0.978   3.502  12.855 -0.2669  0.0683  0.0236
25109W        W41583  17.803  10.737  12.376 -0.0785 -0.1581 -0.0604
25110W        W41584   9.647   9.123  14.565  0.0644 -0.3734 -0.0402
25111W        W41585   0.899  14.949   2.097  0.0324  0.0737  0.1171
25112W        W41586   3.956  13.550   3.625 -0.0687  0.0406  0.1353
25113W        W41587   2.703   6.750   4.537 -0.3566 -0.0419 -0.0062
25114W        W41588  14.109  11.228   4.554  0.0376  0.1529 -0.3478
25115W        W41589  16.885  12.585   1.999 -0.0377 -0.0648 -0.1904
25116W        W41590   3.220   4.364  12.122  0.1584 -0.1723  0.0607
25117W        W41591  18.952  15.109  10.795  0.0922 -0.1318  0.0010
25118W        W41592   9.808  17.514  12.423  0.3462  0.1393 -0.3450
25119W        W41593   0.632   8.378   1.849 -0.1296  0.1865 -0.0911
25120W        W41594  14.644  19.044   3.201  0.2449  0.2940 -0.0984
25121W        W41595   0.171  18.172   2.331 -0.1277 -0.0309  0.0713
25122W        W41596  17.032   9.203  13.790  0.0914  0.0212 -0.1226
25123W        W41597   1.209   6.463  14.072  0.1230 -0.1002  0.0773
25124W        W41598   4.823   8.439  14.510  0.1264 -0.2082  0.1102
25125W        W41599   1.580   5.064  15.003 -0.1020 -0.0895  0.1368
25126W        W41600  13.320  14.630   0.485  0.2587 -0.0214 -0.0032
25127W        W41601   3.317   1.250   1.131 -0.1915  0.2096 -0.1358
25128W        W41602   5.638   9.170   2.537 -0.1614  0.0854 -0.1838
25129W        W41603  18.142   4.179  10.020 -0.0773  0.0453 -0.3179
25130W        W41604   8.455   0.031   2.991 -0.2088 -0.0353 -0.3332
25131W        W41605   6.372   4.173  13.351  0.0366  0.0857  0.0041
25132W        W41606  11.072  11.570  14.891 -0.3179  0.1523  0.1566
25133W        W41607   0.637   6.994  10.413  0.3200 -0.0391 -0.1504
25134W        W41608   8.395   8.329  10.522  0.0961  0.0070 -0.1397
25135W        W41609   4.617  18.375   1.459 -0.1032 -0.3881 -0.0783
25136W        W41610   4.966   4.369  12.591  0.1549  0.1840  0.1538
25137W        W41611  16.133  10.946  11.740 -0.2175  0.1380 -0.1363
25138W        W41612   7.571  12.640  13.526  0.4201 -0.1326  0.1858
25139W        W41613  14.970   0.577   3.345 -0.0178  0.1484  0.0523
25140W        W41614   7.224   7.396  12.790 -0.0743 -0.0226  0.1967
25141W        W41615  10.684   4.562  13.150 -0.2833 -0.3119  0.0210
25142W        W41616   7.251  10.764  13.076  0.0386  0.1257  0.2472
25143W        W41617  13.938  13.650  12.232  0.1787  0.3372 -0.5537
25144W        W41618   5.827   0.172   2.387  0.4285 -0.0545 -0.1072
25145W        W41619   8.346   3.800  10.081 -0.0554 -0.0605 -0.2995
25146W        W41620   6.063   2.393   0.277  0.0299  0.1657  0.1627
25147W        W41621   1.894  13.286   0.062  0.0387 -0.4042  0.1446
25148W        W41622  15.129  14.993  12.708 -0.2497 -0.2446  0.0450
25149W        W41623   3.412  18.568   0.119 -0.1110 -0.0821 -0.2570
25150W        W41624   8.606   8.988  13.561 -0.0407 -0.2338 -0.1709
25151W        W41625   2.522  16.163   2.397 -0.0209  0.1860  0.3785
25152W        W41626   2.222  16.367   0.693  0.1620  0.1809  0.1916
25153W        W41627  11.848   5.765   1.352  0.1142 -0.2223  0.0183
25154W        W41628   8.272  15.045   3.191  0.0902 -0.1191  0.0031
25155W        W41629  13.714  13.184   1.321 -0.3448  0.2195 -0.1131
25156W        W41630   7.752  12.562   3.205 -0.3910 -0.0516 -0.1425
25157W        W41631  16.433   3.114  14.562  0.0685 -0.0039 -0.2980
25158W        W41632   1.542   7.126   1.830 -0.0899  0.0629  0.2257
25159W        W41633  16.984  12.079  13.639 -0.0868  0.2749  0.2848
25160W        W41634   5.346  14.484  15.072  0.0093  0.1105  0.3166
25161W        W41635   0.812   3.550   3.841 -0.1496 -0.0182 -0.1444
25162W        W41636  15.358  19.038   3.474 -0.1713 -0.0179 -0.2912
25163W        W41637   6.163   7.004   2.869 -0.3343 -0.5830 -0.1190
25164W        W41638  10.929   4.940  13.380 -0.1639 -0.2146  0.0733
25165W        W41639   2.697  12.956   1.877 -0.0996  0.0421  0.2908
25166W        W41640  11.326   9.789  14.560 -0.2890 -0.0586  0.1099
25167W        W41641  14.152   2.059   0.033 -0.0595 -0.1445  0.2472
25168W        W41642   3.306   1.120   3.403 -0.1775  0.2119  0.0115
25169W        W41643  12.936   7.411  14.608  0.1220  0.0768  0.1633
25170W        W41644   8.996   6.403   0.336 -0.2553  0.1489 -0.0809
25171W        W41645   6.357   1.847  12.936  0.1681  0.0302 -0.3148
25172W        W41646   8.355   6.933   1.322 -0.0169  0.0196 -0.1603
25173W        W41647  10.412   4.477  12.125 -0.1320  0.3053 -0.0882
25174W        W41648  11.180   1.447   2.902  0.2148  0.1552 -0.1340
25175W        W41649   0.365  13.598   2.892 -0.0872  0.0713  0.0169
25176W        W41650  18.519   6.678   0.300  0.0696  0.0829 -0.3655
25177W        W41651  13.102   2.814  13.103  0.0999 -0.0615  0.0624
25178W        W41652   6.012  15.986   2.418 -0.2490 -0.1947 -0.0946
25179W        W41653   6.458   4.181   4.044 -0.2316 -0.3076 -0.3369
25180W        W41654   9.435   3.932   4.785 -0.1585 -0.2029 -0.1718
25181W        W41655   4.932  14.167   1.796  0.0808 -0.2740  0.1934
25182W        W41656  18.991  13.347  11.400  0.2065 -0.1816 -0.1753
25183W        W41657   0.099  13.388   4.413  0.2774 -0.3570 -0.2698
25184W        W41658  12.837  11.692  13.493 -0.4309  0.1062 -0.1178
25185W        W41659  13.140  14.859  11.158  0.2129  0.0164  0.1641
25186W        W41660  16.450   9.378   0.366  0.1925 -0.2411  0.0182
25187W        W41661  17.820  16.963  12.597  0.3159  0.2136 -0.0543
25188W        W41662   2.127  14.498   5.220  0.4091  0.0131  0.0556
25189W        W41663   7.698   2.725   3.296 -0.0135 -0.0944  0.2492
25190W        W41664   2.515   4.471   4.153 -0.0425 -0.0998  0.0359
25191W        W41665  11.789  11.984   1.884  0.1428  0.0554 -0.0091
25192W        W41666  12.165  16.621   1.239  0.2305 -0.0549  0.2171
25193W        W41667  14.655   9.608   4.625 -0.1846  0.3298  0.3110
25194W        W41668   3.647  12.801  14.849 -0.1246  0.1494 -0.3556
25195W        W41669   6.428  18.846  12.162  0.0034 -0.1502  0.0568
25196W        W41670   9.649   8.946   4.472  0.2140  0.0403 -0.0686
25197W        W41671  10.931  12.877   0.271  0.0652 -0.1277  0.0684
25198W        W41672  18.499  17.608  13.366 -0.0144  0.2614 -0.0366
25199W        W41673  13.217   9.870   0.754 -0.2893 -0.0993 -0.0581
25200W        W41674   1.561  17.569   3.539 -0.1257  0.2695 -0.2122
25201W        W41675   4.891  11.576   2.754  0.0093 -0.2500  0.1924
25202W        W41676   5.747   6.463   1.644  0.0280  0.1842 -0.1545
25203W        W41677  18.034   8.975  11.727  0.0098 -0.0407  0.0710
25204W        W41678   2.583  15.102   3.558 -0.3069 -0.0933  0.2018
25205W        W41679  18.387   8.846  14.240 -0.1883 -0.1787  0.1391
25206W        W41680  11.061   0.359   4.187  0.0040 -0.3077 -0.1490
25207W        W41681  13.502   2.572  14.109  0.0442 -0.1542  0.1320
25208W        W41682  13.969  16.314   3.338 -0.1096 -0.0393 -0.1020
25209W        W41683   2.633   7.043  10.736  0.2037 -0.2523  0.0632
25210W        W41684   0.126  18.317  14.457 -0.0228 -0.2873 -0.0348
25211W        W41685  10.827   3.581  12.217 -0.0687  0.1537 -0.1240
25212W        W41686   7.632   2.561   4.299 -0.0436  0.2048  0.0846
25213W        W41687  18.883   9.522   2.464 -0.0317 -0.0071 -0.1054
25214W        W41688   3.447   3.313  14.521  0.3050  0.2514  0.2828
25215W        W41689  13.229   0.064  13.953  0.1630 -0.0909 -0.1601
25216W        W41690   8.198   6.346  11.639 -0.1696 -0.2385 -0.2348
25217W        W41691   9.865  16.377   5.392 -0.0596  0.2729  0.0914
25218W        W41692   7.581   9.519  11.064 -0.1901 -0.0905  0.2279
25219W        W41693   8.201  13.010  12.449 -0.2423  0.0782 -0.1251
25220W        W41694   9.268   5.022   3.122  0.1223 -0.0772  0.1132
25221W        W41695   6.731  12.735   3.094 -0.2795 -0.1814 -0.0677
25222W        W41696  18.554  16.569  12.977  0.2655  0.3866 -0.0351
25223W        W41697  12.174  14.160  10.051 -0.0135 -0.1501  0.5327
25224W        W41698   7.598  11.172   0.700 -0.0013 -0.1187 -0.0509
25225W        W41699   8.830   4.465  14.475  0.2983 -0.1997 -0.0057
25226W        W41700  16.007  11.631   4.825  0.0489 -0.0326 -0.0429
25227W        W41701   2.530   0.961  10.143  0.0125  0.0524  0.1679
25228W        W41702  17.374   0.085   0.820  0.3739 -0.3166 -0.0146
25229W        W41703   5.599   2.291   0.456 -0.2361  0.1578 -0.0389
25230W        W41704  16.233   1.125   3.803 -0.2232  0.0755  0.0273
25231W        W41705   0.850  18.989  11.837  0.0723 -0.1398 -0.0911
25232W        W41706   9.017   5.617   3.921 -0.0484 -0.1178 -0.0909
25233W        W41707   0.658   9.151  13.032  0.1217 -0.0087  0.2067
25234W        W41708   9.971   1.769   2.285  0.1669 -0.1434 -0.0417
25235W        W41709  11.248   3.714  13.029 -0.0070  0.0916  0.1219
25236W        W41710  11.229   0.716  13.038  0.1684 -0.1257  0.2172
25237W        W41711  18.902   8.748   0.705 -0.6059 -0.0768  0.0757
25238W        W41712  18.334  16.099   4.400 -0.4340 -0.0618  0.3883
25239W        W41713   1.173  10.428   3.422 -0.0788 -0.0193  0.0200
25240W        W41714  14.876   5.581   1.371 -0.0207 -0.0866 -0.2770
25241W        W41715   0.036   0.273   4.657 -0.0811  0.0020  0.2356
25242W        W41716  15.518   6.373   1.870 -0.0327 -0.1013 -0.2680
25243W        W41717   3.600  11.361   1.417  0.2594  0.0588 -0.0899
25244W        W41718   6.102   9.383  10.885 -0.1707  0.2093  0.2551
25245W        W41719   6.680   5.384   1.883 -0.0055  0.1958  0.0422
25246W        W41720  14.707  17.103   2.626  0.1870 -0.0541 -0.2043
25247W        W41721   9.481   4.517   0.066  0.0257  0.0884 -0.0109
25248W        W41722  14.641  10.008  14.589 -0.2947 -0.0531 -0.2446
25249W        W41723  14.497   5.080  12.339  0.0122 -0.0085 -0.1651
25250W        W41724  19.150   4.989   3.575 -0.1611  0.2309  0.3991
25251W        W41725   3.703   0.594  13.167  0.1566  0.2429 -0.2802
25252W        W41726  14.972   3.459   1.439 -0.1800  0.0174  0.0006
25253W        W41727  12.998   4.124   4.144  0.2796  0.0720 -0.0790
25254W        W41728  14.261  17.133  13.359 -0.2621 -0.1624  0.1995
25255W        W41729   8.429   7.432   1.426  0.0989  0.3044 -0.2215
25256W        W41730   6.926  16.261   4.936  0.0303 -0.1985  0.1444
25257W        W41731  18.739   8.888   2.215 -0.3575  0.0564  0.0628
25258W        W41732  17.185  18.236  11.121 -0.1406 -0.1011  0.0815
25259W        W41733  18.972   9.567  11.435 -0.1957 -0.3730 -0.0213
25260W        W41734   3.706  18.819   1.921 -0.1398  0.1112  0.0725
25261W        W41735  16.961   4.085   2.614 -0.1348  0.1590 -0.0826
25262W        W41736  10.783  13.365   5.822  0.4272  0.1866  0.3000
25263W        W41737   9.532  16.739   4.527  0.2764  0.1617 -0.1229
25264W        W41738   6.989   0.307   3.639 -0.1322 -0.0430  0.2527
25265W        W41739  18.151   1.343   3.080  0.0322  0.4024 -0.0226
25266W        W41740   3.990  10.440   2.107 -0.1992 -0.1133  0.0828
25267W        W41741   9.867  19.136   0.560 -0.1042 -0.2092 -0.1439
25268W        W41742  17.073   7.164   9.685 -0.0633 -0.1438  0.0486
25269W        W41743   8.968   8.552   0.280 -0.2684  0.2768  0.1436
25270W        W41744   4.468  15.687   2.149  0.4237 -0.1430 -0.1936
25271W        W41745   3.720   2.776  12.160 -0.5352  0.0218  0.0496
25272W        W41746   9.904  10.210  13.224 -0.2669  0.0302  0.1489
25273W        W41747   3.705   0.783   3.230 -0.0438  0.0527  0.1784
25274W        W41748   6.854   8.591  14.066 -0.1902 -0.1137  0.0843
25275W        W41749   7.089  10.101   3.042  0.0799 -0.0570 -0.0325
25276W        W41750  12.311   7.223   1.823  0.3247 -0.4995  0.0024
25277W        W41751   9.063   4.218   0.146 -0.4758 -0.1472  0.0232
25278W        W41752  13.147  15.486   1.152  0.2666 -0.1390  0.0702
25279W        W41753   9.987   2.018  14.025 -0.1174  0.2948 -0.0756
25280W        W41754  14.424  15.834  13.578  0.0775  0.0446  0.4853
25281W        W41755   0.518   4.012   3.572  0.1393 -0.2252  0.0818
25282W        W41756   5.169   0.797   0.113 -0.2031 -0.0788 -0.0669
25283W        W41757   3.972   4.344  10.172 -0.1645 -0.0314  0.0159
25284W        W41758   8.033   5.470   1.774 -0.1035  0.2049 -0.2408
25285W        W41759   3.678  11.737   1.090  0.1457  0.2291 -0.5091
25286W        W41760   0.719   8.260   0.765 -0.2977  0.0042  0.0551
25287W        W41761   8.798   4.136  13.025 -0.0948 -0.0089  0.1886
25288W        W41762   5.886  15.374   4.893 -0.2296  0.2544 -0.2424
25289W        W41763   4.364  12.562   3.946 -0.2017 -0.2848  0.3510
25290W        W41764   3.309  15.674  12.427  0.1575 -0.2025  0.0261
25291W        W41765   8.871   0.754  12.909  0.0366 -0.1069 -0.2352
25292W        W41766  17.259   8.275  10.260 -0.2120  0.1390  0.0090
25293W        W41767   2.706  13.067   3.929  0.2547  0.0187 -0.0708
25294W        W41768   8.187   1.606  10.107 -0.0899  0.2611  0.2526
25295W        W41769  13.159   9.157   4.320  0.0725 -0.0995  0.0239
25296W        W41770   8.933  15.383   3.817  0.0514 -0.1625 -0.1009
25297W        W41771  17.172   3.604   3.154 -0.3582  0.0328  0.2020
25298W        W41772  15.994  16.567  11.993  0.4183  0.1338  0.3039
25299W        W41773   1.574  10.630   2.465  0.0530  0.0891 -0.2952
25300W        W41774   2.097  14.967  11.423 -0.0231 -0.0506 -0.0341
25301W        W41775   2.466   6.989  13.493  0.0570  0.0655 -0.1001
25302W        W41776  11.262  16.789   1.436 -0.2219  0.2065  0.0326
25303W        W41777  16.378  15.118  14.780 -0.1358  0.0977  0.1407
25304W        W41778  13.190  18.722   1.896  0.3543 -0.1844 -0.0734
25305W        W41779   4.879   7.264  13.930  0.2050  0.0044 -0.2626
25306W        W41780   3.234  10.809  14.813  0.1848 -0.1587 -0.0694
25307W        W41781  13.431  14.165   3.268 -0.2518  0.2636  0.0444
25308W        W41782  11.967   6.589  13.746 -0.1038 -0.0418  0.0292
25309W        W41783   9.343  16.896   0.379  0.1860  0.3573  0.0125
25310W        W41784  17.688   8.776   3.755 -0.0144 -0.3883 -0.1008
25311W        W41785  13.381   3.127  14.745  0.0335 -0.1491  0.2498
25312W        W41786  18.746  17.185  13.105 -0.1452  0.1844  0.1226
25313W        W41787   9.260   2.869  12.355 -0.1972 -0.0197 -0.0909
25314W        W41788   0.945   7.445   3.933 -0.0040 -0.0695  0.0184
25315W        W41789  15.265   0.343  11.822  0.2307  0.1442 -0.0073
25316W        W41790   3.557   4.054  11.885  0.0499 -0.0335 -0.1018
25317W        W41791   3.762   8.708   4.201 -0.1518  0.0149  0.0795
25318W        W41792  16.681  17.349  14.977 -0.2586 -0.2778 -0.3438
25319W        W41793  18.486   7.989  14.397 -0.2446 -0.2206  0.1085
25320W        W41794   2.091   0.014   4.672  0.0643 -0.0860 -0.0633
25321W        W41795  18.235  17.304  14.910 -0.6869  0.1797 -0.2347
25322W        W41796   4.346   0.294   4.710  0.1797  0.1565  0.0276
25323W        W41797   1.937  19.142  13.816 -0.0554 -0.0789  0.0311
25324W        W41798  16.729   7.850  12.278 -0.0576 -0.0816  0.3440
25325W        W41799   5.291  18.953   1.166  0.1597  0.4590  0.0265
25326W        W41800  18.030   4.648   0.364 -0.0320  0.0707  0.0021
25327W        W41801  12.002  12.510  10.124 -0.0203  0.0176 -0.1687
25328W        W41802   2.834   7.613   1.987  0.1575 -0.3044 -0.1424
25329W        W41803   5.937  13.770  13.289  0.0234  0.1635 -0.1831
25330W        W41804   4.221  14.030   4.840  0.0233  0.0414 -0.0046
25331W        W41805  11.269  10.908   2.397  0.1463  0.2040  0.2014
25332W        W41806   3.762  16.503   2.514  0.3570  0.0552  0.2861
25333W        W41807  12.419   9.854   1.534 -0.1775 -0.2363 -0.1502
25334W        W41808  15.982  18.137  13.245 -0.2493  0.5094  0.1966
25335W        W41809   0.842   1.384   0.441 -0.2365 -0.1069 -0.1830
25336W        W41810  11.821  13.005   4.260  0.3686  0.2457 -0.2191
25337W        W41811   0.470  14.339  11.620  0.1743  0.1856  0.0973
25338W        W41812   1.792   0.889  11.107  0.0039 -0.1746  0.0705
25339W        W41813  13.757  18.793   4.098 -0.3872 -0.3630  0.0161
25340W        W41814  18.209   7.383  12.227  0.1988  0.2132  0.1121
25341W        W41815  14.490  11.473   4.205  0.2034 -0.0298 -0.0310
25342W        W41816   8.218  18.462   2.434  0.1753  0.0104 -0.0587
25343W        W41817   1.480   2.800  14.803 -0.2514 -0.0969 -0.1487
25344W        W41818  14.944   9.301  14.030 -0.2792 -0.1503 -0.1695
25345W        W41819   6.087  17.208  12.639  0.1963 -0.0626 -0.2025
25346W        W41820   6.470  16.227  11.382  0.2929  0.3149  0.1619
25347W        W41821  12.243  16.416  10.506 -0.1634  0.0379 -0.4705
25348W        W41822   5.167  11.586  10.398  0.1045  0.3468 -0.0814
25349W        W41823   0.794   2.014   2.925  0.1349  0.1897  0.1636
25350W        W41824   3.312   3.196   3.201  0.1184  0.1543  0.0937
25351W        W41825   6.836   8.629  10.642 -0.1261 -0.0375 -0.1554
25352W        W41826   4.803  11.668  13.053  0.0530  0.0198 -0.1815
25353W        W41827  11.819  18.895   4.576  0.1413 -0.3113 -0.2184
25354W        W41828  13.014  14.735  11.643 -0.1351  0.4232  0.1686
25355W        W41829  18.292  13.979   0.106 -0.3585 -0.1181 -0.2290
25356W        W41830  12.912   6.821   0.065  0.2285 -0.1484 -0.0984
25357W        W41831  18.866  17.832  12.799 -0.1146  0.1339 -0.2467
25358W        W41832   7.445  12.279   0.901  0.0346  0.0723  0.1858
25359W        W41833   6.544  10.866   0.129 -0.0454 -0.0266  0.3313
25360W        W41834   0.934  10.390   1.156 -0.1274 -0.2997 -0.1396
25361W        W41835  12.498  15.565  15.124 -0.0952 -0.0644  0.1323
25362W        W41836  15.114  13.127   1.215 -0.0521 -0.0700 -0.2749
25363W        W41837   4.224  13.227   0.291 -0.4864 -0.1902  0.1625
25364W        W41838  17.711   8.708  14.643 -0.1145 -0.0486  0.0862
25365W        W41839  10.324  17.752  12.204  0.0014 -0.0436 -0.2932
25366W        W41840   3.645  13.731  13.560 -0.2484 -0.0339  0.0082
25367W        W41841   5.618   9.271   0.742 -0.0801  0.1050 -0.1016
25368W        W41842  13.803   6.847   1.448 -0.1987  0.0574 -0.2068
25369W        W41843   5.433   4.848   4.881 -0.2412 -0.0771  0.1761
25370W        W41844  12.895   3.557  11.305  0.2157 -0.0724 -0.2518
25371W        W41845   1.669  13.095  12.876  0.1364 -0.1870  0.3384
25372W        W41846   4.383   1.594  14.399 -0.1412 -0.1998 -0.1133
25373W        W41847   6.551  15.749   1.324 -0.1121 -0.2133  0.1327
25374W        W41848  14.132  13.560  10.290  0.0100 -0.2178  0.5133
25375W        W41849  15.198  16.324  11.063 -0.1384  0.1545 -0.1139
25376W        W41850  11.035   8.938   2.648 -0.0785 -0.3905  0.2183
25377W        W41851   6.779   0.755   3.505 -0.1181 -0.1018  0.2078
25378W        W41852   7.871  13.587   0.522 -0.0849 -0.0003 -0.0759
25379W        W41853   6.886   2.735   1.945  0.1606  0.0055 -0.0104
25380W        W41854  10.037  18.781   3.688  0.0247  0.0964  0.0395
25381W        W41855   3.610  10.103  10.352 -0.1619 -0.2184  0.0207
25382W        W41856   3.036  13.245  10.774 -0.2026 -0.0479 -0.0227
25383W        W41857  18.044   7.981   4.876  0.0448 -0.2017  0.0263
25384W        W41858   0.323   9.839  13.529  0.2064  0.2791  0.0163
25385W        W41859   4.346  18.466   0.257 -0.1657  0.0115  0.1048
25386W        W41860  12.555  18.184  13.738 -0.2550  0.2536  0.3019
25387W        W41861  14.279   6.439   4.497 -0.0821 -0.2324 -0.1674
25388W        W41862  14.032   5.569  13.147  0.0090  0.2127  0.0057
25389W        W41863   8.319  16.880  11.504  0.0970  0.0038  0.3098
25390W        W41864  13.261  14.240  11.685 -0.2890 -0.1296  0.2951
25391W        W41865   7.795  13.212   2.618 -0.1020  0.3112 -0.0917
25392W        W41866   3.429  14.267   3.790  0.0104 -0.1822  0.2269
25393W        W41867   3.914   1.446   4.254 -0.4932  0.2187  0.1383
25394W        W41868  16.295   2.258  10.670  0.2114 -0.0059  0.2714
25395W        W41869   2.860   1.836   2.913  0.0944 -0.0445 -0.1489
25396W        W41870  16.693   5.235  10.617  0.1044  0.2640 -0.0836
25397W        W41871   6.351  12.301  11.081  0.1090 -0.3769  0.0242
25398W        W41872   5.352   2.309   2.707  0.1057  0.0661  0.5703
25399W        W41873   7.539  16.285   2.338 -0.1075 -0.1619 -0.1053
25400W        W41874   0.260  10.063   1.646 -0.0074 -0.0230  0.1901
25401W        W41875  11.289  16.081   2.982 -0.1423 -0.2448 -0.0864
25402W        W41876   1.771   2.310  14.005 -0.3785 -0.0620 -0.0180
25403W        W41877   2.924  11.764  14.141  0.2050 -0.1359 -0.1131
25404W        W41878  15.959   5.489   2.892 -0.2974  0.3287 -0.1419
25405W        W41879   7.186  18.413   2.664 -0.2937  0.1310 -0.0040
25406W        W41880   1.698   5.298  12.880 -0.4142  0.1835 -0.0354
25407W        W41881  16.316   7.211   1.504 -0.2349  0.1532  0.1719
25408W        W41882   1.114  12.216  11.189  0.0460  0.2061 -0.2591
25409W        W41883   9.207   7.293  11.657 -0.0794  0.1560 -0.0477
25410W        W41884   9.030  17.823  14.139  0.1003 -0.0212  0.2081
25411W        W41885  11.954  12.475   0.070  0.0454  0.2170  0.5592
25412W        W41886  12.794  12.365  12.747  0.2732  0.2512  0.0364
25413W        W41887  19.127  17.664   2.942 -0.0650  0.0673  0.1146
25414W        W41888  17.396  17.277   0.860 -0.3590  0.0496  0.3025
25415W        W41889   1.467  10.933  12.043  0.1962 -0.1894  0.1098
25416W        W41890   6.131  14.821  11.705 -0.0814 -0.0978  0.3913
25417W        W41891  19.058  17.415  12.071  0.1798 -0.0986 -0.1479
25418W        W41892  13.291  17.005  13.271 -0.4155 -0.0631 -0.1520
25419W        W41893  16.194   6.387  11.478  0.0358  0.4874 -0.0252
25420W        W41894   9.626  14.326  10.784  0.2369 -0.0597  0.2268
25421W        W41895  13.696   2.267   4.933 -0.3710  0.0673  0.0812
25422W        W41896  15.338   1.508  10.202  0.1252 -0.0585 -0.2739
25423W        W41897  13.606   7.713  14.265  0.0914  0.0322  0.2934
25424W        W41898   1.019   0.231  12.796  0.0988  0.2221  0.1270
25425W        W41899  16.239  12.397   2.118  0.1063  0.1415  0.0654
25426W        W41900   5.777   5.541   1.021 -0.0689  0.0715  0.0460
25427W        W41901   3.286  11.200  12.204  0.1757 -0.0129  0.0044
25428W        W41902  14.578  15.581  10.985 -0.1765 -0.1834 -0.0689
25429W        W41903  10.491  12.012   3.454  0.2153 -0.4631 -0.3442
25430W        W41904   9.235  15.522   4.142 -0.4318 -0.3613  0.3103
25431W        W41905   4.858  16.282  12.850  0.0040  0.0208  0.0424
25432W        W41906   2.215  11.360   1.423  0.1876 -0.1242  0.2654
25433W        W41907  17.123   5.300   1.510  0.0365  0.0228  0.0243
25434W        W41908  18.334   9.940  12.613  0.2398 -0.1372 -0.1810
25435W        W41909  15.123  10.922   1.944 -0.3260  0.0121  0.0342
25436W        W41910   1.104  17.283  14.592 -0.0761 -0.5322  0.0629
25437W        W41911  16.576  14.864   0.447 -0.3253 -0.2010 -0.1676
25438W        W41912  15.285  16.123  15.003  0.2292  0.1846 -0.0638
25439W        W41913   1.154  13.219   3.140 -0.3080  0.2626 -0.1373
25440W        W41914  15.723   9.998   1.855 -0.0311 -0.3627  0.2446
25441W        W41915   6.687   7.214  11.976  0.1923  0.1415  0.0734
25442W        W41916  11.209  15.081  13.530 -0.0439  0.3535 -0.1426
25443W        W41917   5.430   0.024   4.450 -0.3456 -0.1506 -0.0397
25444W        W41918  11.404  17.022  13.212 -0.0498 -0.1001 -0.0187
25445W        W41919   2.563   2.940   3.270 -0.1250 -0.1732 -0.2096
25446W        W41920  19.107   8.380   3.297  0.0631 -0.1476 -0.0094
25447W        W41921   6.864  14.355   3.886 -0.0542  0.1200  0.0144
25448W        W41922  16.820   3.626  13.363  0.0473 -0.1321  0.2201
25449W        W41923   0.639   4.742   0.125  0.1018 -0.1638  0.1371
25450W        W41924   7.987   4.468   2.332 -0.1097  0.0657  0.0048
25451W        W41925  13.738  14.837  12.393 -0.4735  0.1162  0.1798
25452W        W41926   0.650   4.927   1.022 -0.0563 -0.1939 -0.2874
25453W        W41927   9.903  10.232  12.250  0.0016  0.3119  0.2346
25454W        W41928   2.325   4.384   0.015 -0.3385 -0.2071  0.1802
25455W        W41929   4.363   6.140   5.180  0.0406  0.1543  0.1658
25456W        W41930   7.873   2.653  14.093 -0.0604  0.1949  0.3187
25457W        W41931  10.793  15.277  10.782  0.1354 -0.1977 -0.1667
25458W        W41932   1.010   6.441   3.654 -0.0773  0.0853 -0.1404
25459W        W41933   0.801   7.138   4.315 -0.3111  0.0930 -0.0173
25460W        W41934  13.894   5.159   4.215  0.2871  0.0025 -0.0212
25461W        W41935   2.223   6.556  14.110  0.0309  0.2261 -0.1016
25462W        W41936  18.396   8.037  11.053  0.0432  0.0780 -0.1763
25463W        W41937  19.093  12.939  12.534  0.2561 -0.0033  0.0814
25464W        W41938   9.062  11.961   3.579 -0.0748 -0.1155 -0.0836
25465W        W41939  11.893   1.579   0.728 -0.2614 -0.2198  0.2458
25466W        W41940  18.790  14.367   2.548  0.1653  0.0207  0.1985
25467W        W41941   4.124  17.895   2.702  0.0600  0.0118  0.1394
25468W        W41942  15.160   2.190   0.365 -0.0408 -0.4361 -0.0171
25469W        W41943  11.726  16.580  10.426 -0.1332 -0.0881 -0.1500
25470W        W41944   3.384   4.040   3.120 -0.0388 -0.0294 -0.2402
25471W        W41945  12.627  12.115   2.999  0.2438 -0.1987 -0.2289
25472W        W41946   7.306  10.275   3.492 -0.2404  0.0492 -0.2182
25473W        W41947  13.583   3.916   5.611  0.0315  0.1181 -0.2383
25474W        W41948  11.633   9.689   0.675  0.2058  0.3207  0.1918
25475W        W41949  14.329   9.724   5.704 -0.3629  0.0887 -0.2236
25476W        W41950   0.932  15.320  12.107 -0.0159 -0.1445  0.2791
25477W        W41951  12.420   3.967  11.679 -0.2546 -0.0097  0.2258
25478W        W41952   6.119  18.885  12.647 -0.1378 -0.0451 -0.0001
25479W        W41953  13.135  11.784  13.960 -0.2728  0.2818  0.0619
25480W        W41954   1.922   9.223   0.278 -0.1041 -0.1191 -0.0184
25481W        W41955  14.854  11.567   3.464  0.1721  0.1230  0.0954
25482W        W41956   4.062  15.238   0.710  0.0659  0.2189 -0.2982
25483W        W41957   3.333   5.069   0.419  0.3264  0.1177 -0.1902
25484W        W41958   6.916   5.272  14.169 -0.1021  0.3262 -0.2154
25485W        W41959   5.272  15.757  14.139  0.1623 -0.0087 -0.5501
25486W        W41960  18.182  18.329   4.708 -0.2065 -0.1493 -0.0721
25487W        W41961   3.547   8.925   2.192  0.1182  0.0096  0.0610
25488W        W41962   5.129  13.057   1.431  0.2200 -0.0227 -0.3125
25489W        W41963   2.279  18.668  11.260  0.2261 -0.2529  0.1089
25490W        W41964  10.434   1.322  14.311  0.0724 -0.3029  0.2494
25491W        W41965  11.040  15.755   2.192 -0.0552  0.0671 -0.1978
25492W        W41966   6.511   5.332   2.722  0.1293 -0.0278  0.3127
25493W        W41967   7.810  17.662   1.698 -0.1986 -0.2228  0.1203
25494W        W41968   4.124  10.060   1.830  0.0510 -0.0539 -0.1408
25495W        W41969  16.990   3.542  12.604  0.3533  0.3148 -0.0278
25496W        W41970  10.334  12.821   2.411  0.0679 -0.0211 -0.1062
25497W        W41971   4.840   0.302   4.500  0.0797  0.0562  0.1315
25498W        W41972  10.672   0.820  11.090 -0.1310  0.0494  0.3189
25499W        W41973  13.949  17.641  14.670 -0.0840 -0.1178 -0.0003
25500W        W41974   5.401  16.210   0.565  0.0392 -0.0449  0.0336
25501W        W41975   0.888  13.679  11.455  0.3213  0.2731 -0.1338
25502W        W41976  15.265  10.931   0.250 -0.1954 -0.1058 -0.1511
25503W        W41977  18.128  18.332  10.733  0.0710  0.1626  0.0688
25504W        W41978  15.427  12.227   2.672  0.2288  0.2956 -0.0183
25505W        W41979  12.292   6.343   0.981  0.0735 -0.1708  0.0039
25506W        W41980   0.610  17.433   2.908  0.2662 -0.1176  0.0777
25507W        W41981  12.065   7.664   4.057  0.0043  0.0780  0.5681
25508W        W41982  17.343  14.532  14.474 -0.2272  0.0199  0.0585
25509W        W41983   9.128  18.952   2.075 -0.3371 -0.0913  0.0696
25510W        W41984  18.532   6.913   0.823  0.0998  0.1414 -0.1292
25511W        W41985   7.066   1.001   3.164  0.2683  0.0381  0.4205
25512W        W41986  13.615  10.084   1.538 -0.1170  0.3489 -0.0856
25513W        W41987  17.139   7.515   4.461 -0.0018 -0.2350  0.0219
25514W        W41988  16.514  17.742  12.495 -0.2439  0.2690 -0.0780
25515W        W41989  12.206  18.691  12.007  0.0927 -0.0761 -0.0406
25516W        W41990   0.467   6.088  11.618  0.3065 -0.1310 -0.0555
25517W        W41991  11.186   3.841  12.552 -0.1144  0.1706  0.1692
25518W        W41992   8.926   3.801   1.645  0.0306  0.1115  0.1532
25519W        W41993   4.319  11.165   2.020  0.2589  0.2360  0.0741
25520W        W41994   6.898  14.147   1.188 -0.0285 -0.1989 -0.3683
25521W        W41995  18.391  17.963  14.596 -0.0617 -0.0320 -0.2322
25522W        W41996  15.537   1.485   1.931  0.1453  0.0558  0.0708
25523W        W41997  12.678  12.922  14.110  0.2547 -0.0552 -0.3038
25524W        W41998   3.342  17.165   0.359 -0.1286 -0.0431 -0.3031
25525W        W41999   3.636   4.095  12.366 -0.2368  0.0841 -0.2246
25526W        W42000   1.210  18.912   4.189  0.1244  0.3395 -0.2427
25527W        W42001  15.835   0.831   3.605  0.1455 -0.0993  0.0365
25528W        W42002  15.073  17.457   1.610  0.0932  0.1760 -0.0671
25529W        W42003   8.387   9.168   3.739 -0.0751 -0.0073 -0.1785
25530W        W42004   9.056   6.461   1.409 -0.2621  0.0350 -0.2406
25531W        W42005  13.146  17.566   2.106  0.0602  0.2801  0.2736
25532W        W42006   0.193   7.936   4.402  0.1256  0.2327 -0.0013
25533W        W42007  13.578  14.951   2.668 -0.0551  0.1805  0.3402
25534W        W42008   0.649   5.377  14.988 -0.2882  0.0087 -0.1607
25535W        W42009  17.881  11.581   4.263 -0.0052 -0.1661 -0.0982
25536W        W42010   8.779  16.499  12.426  0.1373 -0.3859  0.0699
25537W        W42011  18.647   8.728   3.842 -0.0611  0.1557  0.1372
25538W        W42012   5.604   3.833   4.451  0.3085 -0.1479  0.4911
25539W        W42013   1.373  18.623   1.120  0.0594 -0.1066 -0.0412
25540W        W42014  18.091   6.684   0.694 -0.2596  0.4063 -0.2888
25541W        W42015  13.363  16.315  13.818  0.1459  0.0607  0.0644
25542W        W42016   0.470  17.387  13.948  0.0446 -0.1120  0.0228
25543W        W42017  14.731   7.594   2.064  0.1233  0.1216 -0.0169
25544W        W42018   9.051  11.838  10.530 -0.0634  0.1281  0.3094
25545W        W42019  17.777   9.333   4.949  0.0208  0.0574 -0.0689
25546W        W42020  13.282   4.496  14.814  0.0110  0.1937 -0.1160
25547W        W42021   2.646  18.066   1.636 -0.1255  0.0368  0.1398
25548W        W42022  16.155  11.481   3.604 -0.1124 -0.0099 -0.3350
25549W        W42023  17.169   1.436   0.722  0.0221 -0.1107 -0.2265
25550W        W42024  11.275  12.585  12.348  0.2118 -0.1224 -0.3080
25551W        W42025  16.825  13.539   5.812  0.0060 -0.0909 -0.0315
25552W        W42026   9.708  11.362   3.373  0.2229 -0.1641  0.0090
25553W        W42027  17.577   8.129   0.468  0.1042  0.0025  0.0799
25554W        W42028   9.592  17.110  13.822  0.2366 -0.1711 -0.2205
25555W        W42029   2.115   3.375  14.176 -0.0555 -0.0095  0.0579
25556W        W42030  10.512   3.395  13.136  0.1106  0.0356 -0.1481
25557W        W42031  16.329  10.549  13.571  0.1469 -0.2094  0.2620
25558W        W42032   7.123  12.857  11.806 -0.4326 -0.0423  0.2218
25559W        W42033   7.159   6.084   4.907 -0.4716  0.1083  0.0350
25560W        W42034   1.995  15.955  12.443 -0.5094 -0.0962 -0.0734
25561W        W42035   6.400   8.146  12.666  0.0867  0.1672  0.0914
25562W        W42036   9.698   7.319  12.422  0.1079  0.0220  0.2423
25563W        W42037   0.089  17.052  14.472 -0.0756 -0.0432  0.1150
25564W        W42038   9.826  17.080  14.259 -0.0033  0.0407  0.2528
25565W        W42039  10.054   3.942   4.048 -0.4577  0.2136 -0.2116
25566W        W42040  18.287   5.860   0.660 -0.0008 -0.0792 -0.1895
25567W        W42041  16.317  15.405   2.499  0.4988  0.0547 -0.1657
25568W        W42042  14.188   2.149  13.928  0.3561 -0.2470 -0.0596
25569W        W42043   4.837   0.065   2.503  0.0490 -0.3458  0.0405
25570W        W42044   1.348  17.432   1.564 -0.0910  0.1223 -0.1370
25571W        W42045   2.177  12.148  12.856 -0.4602 -0.0850  0.2506
25572W        W42046  18.717   0.629   9.367 -0.1529  0.0826  0.1666
25573W        W42047  14.680  14.897  13.693  0.0818 -0.2951  0.2706
25574W        W42048   6.112   2.792  13.400  0.0092  0.0260 -0.3343
25575W        W42049   7.261   7.999  13.559  0.1577 -0.3827 -0.1416
25576W        W42050  18.800   7.971   3.539 -0.1822  0.1096 -0.1982
25577W        W42051   0.136  14.616   1.840 -0.2547 -0.5119 -0.0716
25578W        W42052  18.515   9.513   4.445 -0.2032  0.1316 -0.0376
25579W        W42053  10.778  18.415   0.215  0.0818 -0.2553 -0.0080
25580W        W42054  10.571  11.058  11.408 -0.3215  0.0431 -0.0287
25581W        W42055   7.844  11.114   0.290 -0.1604 -0.0112  0.1605
25582W        W42056  17.660  18.851   1.810  0.3418  0.3312  0.2488
25583W        W42057   7.092   8.650  12.895  0.1203  0.0343 -0.3013
25584W        W42058  13.669  11.590  14.910  0.0132 -0.2008 -0.2554
25585W        W42059  14.095   2.448   4.660  0.0636  0.0550  0.1647
25586W        W42060   8.139   2.225   4.731 -0.0302  0.0604  0.0891
25587W        W42061   9.188   7.202   1.068  0.3104 -0.0550  0.3397
25588W        W42062  18.806   9.057  13.133 -0.0547  0.2706 -0.0646
25589W        W42063  11.564   2.332   1.858  0.1047 -0.0566  0.1388
25590W        W42064  18.368  11.786  13.820 -0.0033  0.2887  0.1382
25591W        W42065   8.550   5.559   4.034  0.1064 -0.0197 -0.1844
25592W        W42066  15.256   6.317   1.342  0.1320 -0.1135  0.0632
25593W        W42067   7.358   0.059  12.251 -0.3787  0.0161 -0.2853
25594W        W42068  10.618  17.562  10.600 -0.0564  0.1344  0.2656
25595W        W42069  12.840  18.524   3.627  0.0135 -0.0037 -0.1936
25596W        W42070   8.789  14.417  11.384  0.2439 -0.0422  0.2679
25597W        W42071  15.419   2.637   0.732 -0.0525  0.0091 -0.0542
25598W        W42072   3.832   1.226   3.830 -0.1619 -0.2914 -0.1143
25599W        W42073   4.820  17.444   1.180  0.4041  0.0688  0.1327
25600W        W42074  17.650   2.644  13.431  0.1525 -0.1704  0.3083
25601W        W42075   0.798   3.673  10.917  0.3730  0.1035 -0.1086
25602W        W42076   7.959  16.046   1.376  0.0107  0.0166  0.2814
25603W        W42077   7.049  11.872   5.002  0.1346 -0.0979  0.0761
25604W        W42078  10.443  11.421  12.238 -0.1372  0.1320 -0.1940
25605W        W42079  14.496  18.816  11.284  0.3898  0.2016  0.1689
25606W        W42080  16.913   6.062   2.967 -0.1050  0.0952 -0.1322
25607W        W42081   9.492   2.041   4.695  0.1135  0.5008  0.1932
25608W        W42082   0.784   0.342  10.332  0.1061 -0.2477  0.1296
25609W        W42083  12.277  16.005  12.813 -0.0332 -0.1783 -0.1063
25610W        W42084   1.444  18.121  11.078 -0.3513 -0.1855  0.3120
25611W        W42085  13.845  18.380  10.858 -0.0225  0.1897 -0.0296
25612W        W42086   3.763  14.972   6.021  0.2921 -0.0773 -0.1002
25613W        W42087   1.337   6.556  11.678 -0.0354  0.0198 -0.2699
25614W        W42088   6.242  17.075  10.294 -0.0848  0.2394  0.3304
25615W        W42089   6.556  11.981   3.471 -0.0840  0.0333  0.3819
25616W        W42090  11.047   6.044   0.044 -0.3469  0.0303  0.0344
25617W        W42091  14.637   2.825  10.516  0.1333  0.0575 -0.0681
25618W        W42092  12.325   8.827   3.442  0.0382  0.0443  0.0691
25619W        W42093   1.796   0.669   0.827  0.1251 -0.4143 -0.1868
25620W        W42094  14.262  13.805   0.368 -0.3066 -0.3563  0.1053
25621W        W42095  16.981   6.452  10.936 -0.0626 -0.0190  0.0467
25622W        W42096  18.540   3.763   4.566  0.0924 -0.2266 -0.1027
25623W        W42097   7.652  16.810  14.594  0.1760  0.0568 -0.1474
25624W        W42098   8.050  10.313   5.110 -0.0664  0.0374 -0.2235
25625W        W42099  11.948  10.678   1.585 -0.1385 -0.0450 -0.0458
25626W        W42100  18.850  17.822   0.642  0.0150  0.1141 -0.2525
25627W        W42101   7.115  18.676  10.804  0.1575  0.3290 -0.0775
25628W        W42102  18.583   2.581   3.815  0.0930  0.1665  0.0878
25629W        W42103   1.402  15.089  10.382 -0.1620 -0.1309  0.0925
25630W        W42104  13.361   8.050   0.433  0.1073  0.0610  0.1539
25631W        W42105  18.924   3.936  10.773 -0.0342 -0.1963 -0.1518
25632W        W42106   4.363   1.054  12.836  0.0375 -0.0180  0.2544
25633W        W42107   4.824   1.588  11.201  0.0286  0.0280 -0.3705
25634W        W42108  13.281  14.791  12.100 -0.0939 -0.0303  0.1363
25635W        W42109  13.430  15.827  12.061 -0.0504 -0.1190 -0.0159
25636W        W42110   1.363  10.137   3.818 -0.3260 -0.1176  0.1682
25637W        W42111   3.556   8.846   3.743  0.1227 -0.0219  0.2587
25638W        W42112  18.181  14.938  12.432  0.3082 -0.2157 -0.1053
25639W        W42113  19.099  17.739   1.956  0.0925  0.2320 -0.2781
25640W        W42114  11.187   5.728   3.074 -0.0635  0.1789  0.0225
25641W        W42115  15.322  15.850   4.796  0.1529  0.2001 -0.0493
25642W        W42116  13.045   1.369  13.436  0.2268  0.2432 -0.2007
25643W        W42117   0.335  10.080  14.445  0.3357 -0.2454 -0.4034
25644W        W42118   8.023   0.448  12.688  0.1096 -0.0648 -0.0147
25645W        W42119   5.051  10.549  14.552 -0.2382 -0.2514  0.0887
25646W        W42120   4.297   6.704   3.927  0.0776 -0.3193  0.0782
25647W        W42121   5.792   4.011  12.752 -0.2023  0.0862 -0.2982
25648W        W42122  14.671  13.656   2.836  0.0583 -0.3929  0.0967
25649W        W42123  15.217   6.081   2.434  0.3288 -0.0329  0.0165
25650W        W42124  16.692  16.409  12.159  0.1619 -0.1603  0.2341
25651W        W42125  12.888  18.255  14.056 -0.0198 -0.0950  0.1280
25652W        W42126  15.412  10.887  12.982  0.0926  0.2349 -0.1279
25653W        W42127   1.673   7.748   3.921  0.2365  0.3583  0.4222
25654W        W42128   0.932   2.742   4.521 -0.3429  0.2609 -0.1540
25655W        W42129   8.103   8.556   2.312  0.0796 -0.1746 -0.0246
25656W        W42130  14.866  12.219   2.726 -0.0348 -0.0785  0.3286
25657W        W42131   7.539   0.318  13.626 -0.0502 -0.0018 -0.0208
25658W        W42132   5.312  11.398   1.901 -0.3682  0.0973  0.1855
25659W        W42133  19.103  11.372   2.673  0.2054 -0.1713  0.0844
25660W        W42134   9.937  15.833   0.035 -0.0914 -0.1982  0.0203
25661W        W42135   9.922  11.256  11.117 -0.0433 -0.0831 -0.1118
25662W        W42136  15.127  13.740  11.534 -0.1708  0.3715 -0.2327
25663W        W42137   6.148  14.791  14.465 -0.2800 -0.0773 -0.0251
25664W        W42138  15.806  11.087   2.471 -0.1116 -0.2213 -0.1232
25665W        W42139   8.898   7.389   2.611 -0.0236  0.2784 -0.5201
25666W        W42140  16.359   0.748  10.791  0.0083 -0.1856 -0.1586
25667W        W42141   9.190  18.037   1.170 -0.0426 -0.2926 -0.1362
25668W        W42142   6.890  10.988   4.021  0.2047  0.1846 -0.0052
25669W        W42143  18.883  17.790   4.636 -0.1695 -0.3405  0.0684
25670W        W42144  15.937  12.870  13.413 -0.1884 -0.0506  0.0150
25671W        W42145   8.501  15.997   4.465  0.3593 -0.5451  0.0095
25672W        W42146   0.441   1.471  11.000 -0.2153  0.1836  0.0637
25673W        W42147  18.488  10.792   4.070  0.1974 -0.3519  0.1298
25674W        W42148   3.833  14.152   0.237  0.2286 -0.1765 -0.0306
25675W        W42149   4.345   8.347   3.171  0.1106 -0.2300  0.1559
25676W        W42150  14.723   4.678   0.583  0.1853 -0.1233 -0.1650
25677W        W42151  17.475   6.310  11.969 -0.0839  0.0366  0.1468
25678W        W42152   8.696   4.944   5.520  0.1170  0.0853 -0.0017
25679W        W42153   1.490   7.797  12.724  0.2722  0.2245 -0.1006
25680W        W42154   3.033   1.135  12.647 -0.2072 -0.0463  0.1643
25681W        W42155   6.360   5.476  11.872 -0.1271  0.1461  0.1012
25682W        W42156  12.686   6.536   4.839  0.0364  0.0230 -0.2392
25683W        W42157   4.507   5.640  10.573  0.2456 -0.0185  0.1078
25684W        W42158  10.765   9.316  13.788  0.1734  0.0262 -0.1461
25685W        W42159   9.239   0.653  13.331  0.1891  0.0174  0.1520
25686W        W42160   8.092  12.196   3.979 -0.0251 -0.1555  0.0804
25687W        W42161   1.917  10.419   1.666 -0.0424  0.0645  0.2604
25688W        W42162   7.787  15.605  10.937 -0.0364 -0.1875  0.0309
25689W        W42163   4.977   6.867   3.382  0.1011  0.1242  0.1694
25690W        W42164  16.906  16.966  14.200  0.1239  0.2304 -0.2850
25691W        W42165   6.265  14.990   4.769  0.3141  0.1357  0.2832
25692W        W42166   2.427   7.635   0.364  0.1012 -0.1760 -0.1342
25693W        W42167   5.009  10.156   3.569 -0.0781  0.1702  0.0818
25694W        W42168  11.132   4.145  14.774 -0.0260 -0.0229  0.0106
25695W        W42169  15.114  12.654   0.768  0.1774 -0.0065 -0.1666
25696W        W42170  12.660   3.608   2.480  0.2546  0.3677  0.3642
25697W        W42171  18.954   7.371   0.151  0.3020 -0.0358  0.1653
25698W        W42172   7.854   6.957   1.196 -0.0632  0.0552 -0.0228
25699W        W42173  11.437  15.164  11.233 -0.0726 -0.2401  0.4304
25700W        W42174   1.600  15.812   3.982  0.5454 -0.2870  0.1010
25701W        W42175   2.027   9.635   1.079 -0.0548  0.1279  0.2355
25702W        W42176   3.593   4.205  12.865  0.1830  0.2460 -0.1146
25703W        W42177  16.968  13.696   2.266  0.0100  0.2444  0.1831
25704W        W42178   2.650  14.140   5.870  0.0045 -0.0766  0.2549
25705W        W42179   6.875   8.764   2.733 -0.0776 -0.0354 -0.0890
25706W        W42180   4.738   6.905   9.783 -0.4477 -0.1490 -0.1785
25707W        W42181   5.940  18.684   5.037 -0.0794  0.0123  0.1939
25708W        W42182   3.761  14.713   0.926 -0.0775 -0.1830  0.0602
25709W        W42183  17.463  11.071   3.533 -0.2212  0.4034 -0.2222
25710W        W42184  16.386   8.292   1.272 -0.0832  0.0862 -0.0342
25711W        W42185  14.565   1.846   1.025 -0.1149 -0.2566 -0.0033
25712W        W42186  15.702   7.537   0.572 -0.0485  0.0425 -0.3393
25713W        W42187  16.012  19.085  10.871  0.1571  0.1864 -0.1977
25714W        W42188   3.953  18.769   5.173  0.3290  0.0744  0.0694
25715W        W42189  17.032  18.104  10.692  0.0710  0.3117 -0.1863
25716W        W42190   8.623  15.678   0.672  0.2476 -0.0174  0.0269
25717W        W42191   5.910  15.830  13.879  0.2242 -0.2329 -0.0489
25718W        W42192   6.910  17.936   1.944  0.0718 -0.1078  0.1591
25719W        W42193   8.980  15.428  14.812 -0.0658 -0.0610 -0.0063
25720W        W42194   0.352  10.442   3.275  0.2161  0.0594 -0.0767
25721W        W42195   3.804   2.170  12.335  0.1611  0.0778  0.1867
25722W        W42196  19.096   3.507   2.377 -0.1561 -0.0210 -0.3730
25723W        W42197  10.212  17.700  10.355  0.1497  0.0524  0.0910
25724W        W42198   7.077  18.331   1.266 -0.1410 -0.4557  0.4862
25725W        W42199  11.266  17.937   3.228  0.1474  0.1331 -0.1064
25726W        W42200   0.304   3.486   4.730  0.0427 -0.2377 -0.3454
25727W        W42201  18.194  17.908   2.952 -0.2725  0.1966  0.0672
25728W        W42202   1.372  13.617   2.819 -0.2986  0.1837  0.1597
25729W        W42203  12.863   6.773  12.312  0.2176 -0.0505  0.2998
25730W        W42204   6.231   9.579   0.865 -0.0482  0.1932  0.4624
25731W        W42205  10.976   5.675  10.591 -0.1392 -0.1781  0.1767
25732W        W42206  12.910  17.309  10.806  0.1359  0.2076 -0.2820
25733W        W42207  17.395   0.532   0.991 -0.1659 -0.1245  0.1351
25734W        W42208  11.543   1.734  14.832 -0.2484  0.0241 -0.0795
25735W        W42209   1.557   7.993   2.988 -0.0577  0.0753 -0.0225
25736W        W42210  13.983   2.234   3.290 -0.0250  0.0471  0.0060
25737W        W42211  18.905  11.901  11.280 -0.0975 -0.0451  0.0392
25738W        W42212   9.098   7.861   5.097 -0.0213  0.1146 -0.2300
25739W        W42213  16.499  11.816  14.429  0.0068 -0.1158  0.2626
25740W        W42214   6.128   4.725   1.490 -0.2171 -0.3198 -0.0706
25741W        W42215   6.815  16.805   1.951 -0.2863 -0.0927 -0.2180
25742W        W42216   6.401   6.491  12.985  0.1167 -0.1879  0.5206
25743W        W42217   1.042   5.852   1.291  0.2519 -0.2534  0.0202
25744W        W42218   3.166  10.878   2.805  0.0142 -0.2093 -0.0348
25745W        W42219  10.862  12.962   1.262 -0.1015  0.0525 -0.1077
25746W        W42220  13.082  18.001  12.299  0.1682 -0.0277 -0.1590
25747W        W42221   0.596   6.114  12.992 -0.1230  0.1833  0.2017
25748W        W42222   5.568   6.329   3.120 -0.0229 -0.1959  0.0033
25749W        W42223  17.009   1.496  13.409  0.4322  0.1705 -0.0249
25750W        W42224   9.945  13.047  12.031  0.2712  0.0335  0.1101
25751W        W42225  11.405  12.078   4.249  0.0075  0.2784 -0.1965
25752W        W42226   0.738  10.652   3.604  0.3248  0.1984 -0.1967
25753W        W42227  12.756  17.695  13.916  0.0400 -0.1569 -0.1863
25754W        W42228   7.159  18.832   1.352  0.0349 -0.2057  0.0701
25755W        W42229   4.106  15.356   5.145 -0.1509 -0.0934  0.1590
25756W        W42230   0.959  18.825  10.951 -0.1691  0.0433 -0.0000
25757W        W42231   1.192   9.910   1.332  0.0009  0.1019  0.5060
25758W        W42232   6.683  10.611   1.733 -0.1179  0.0616  0.4376
25759W        W42233   5.469  11.977   0.709 -0.0703  0.0992  0.1417
25760W        W42234   3.153   6.903   3.284  0.2776 -0.0080  0.1775
25761W        W42235  16.116  11.217  11.316 -0.1982  0.1369  0.0152
25762W        W42236  12.067  15.532   4.990  0.2569  0.1641 -0.0813
25763W        W42237  10.207   4.412  10.411 -0.2792  0.1944 -0.0484
25764W        W42238  16.738  12.915  13.107  0.0352  0.0505 -0.1382
25765W        W42239  15.959  13.970  12.187  0.0969  0.0962  0.1448
25766W        W42240   1.158  17.081   5.395  0.2011 -0.4078 -0.1017
25767W        W42241   6.691   8.137  11.818  0.4391 -0.1245  0.3350
25768W        W42242   0.824  13.313  13.578 -0.1597 -0.1558  0.0360
25769W        W42243  18.576  10.179  14.641 -0.2228  0.3075  0.0388
25770W        W42244  10.696   8.518   4.524 -0.1808  0.2157  0.1005
25771W        W42245   6.610  14.578   3.447  0.0687  0.1692  0.2117
25772W        W42246  16.829   9.107   9.153  0.1696  0.1477 -0.0136
25773W        W42247   8.781   4.543  11.740 -0.0051  0.1995  0.0889
25774W        W42248  10.796  15.956   1.453  0.1296 -0.0280  0.0127
25775W        W42249  12.643   8.064   2.343  0.3414  0.0037  0.1585
25776W        W42250  14.644   2.840   2.106 -0.3520  0.2450 -0.1293
25777W        W42251  17.865   9.443  11.587 -0.0648  0.2408  0.1880
25778W        W42252   6.794  11.913   1.257  0.0315 -0.3070  0.0818
25779W        W42253  11.884  11.515   1.077  0.0276 -0.1515  0.0259
25780W        W42254   8.733  16.740   1.096 -0.0461  0.2965  0.0570
25781W        W42255   1.588   0.254  10.538  0.0224 -0.0557  0.2462
25782W        W42256   2.147   8.906  11.414 -0.1397 -0.0995 -0.2810
25783W        W42257   9.150   9.934   1.463  0.1701  0.0329 -0.0208
25784W        W42258  13.136   7.584  11.953 -0.0420  0.2248 -0.4169
25785W        W42259  16.259   0.857  14.346  0.0318  0.2249  0.3671
25786W        W42260  12.123  12.006  15.090  0.1036 -0.1040 -0.1897
25787W        W42261  12.884  17.237   9.622  0.0401 -0.1007  0.0293
25788W        W42262  13.157  12.871  14.992  0.0425 -0.0956 -0.1240
25789W        W42263  14.344  13.431  11.863  0.0782  0.0727  0.2427
25790W        W42264   5.085   6.968   0.475 -0.0626  0.2071 -0.0806
25791W        W42265  17.890   0.983   2.780 -0.0743  0.1809  0.0640
25792W        W42266  11.488   4.837   0.238  0.1966 -0.0164  0.3253
25793W        W42267  11.279   7.429   4.882  0.0715 -0.0173  0.0623
25794W        W42268  10.620  16.513  14.675  0.1361  0.3989 -0.1987
25795W        W42269   5.909  13.160   5.139  0.2319 -0.0670  0.1601
25796W        W42270   8.902  17.909   0.375  0.0210 -0.0720  0.0285
25797W        W42271  11.045  19.159   3.856  0.0695 -0.2255  0.1594
25798W        W42272  16.559   0.967  15.105 -0.1903  0.1058 -0.3855
25799W        W42273   1.583   9.925   0.999  0.2048  0.1401 -0.2214
25800W        W42274  15.789   8.872  14.344 -0.0527  0.0681 -0.0378
25801W        W42275   5.850   4.755  14.075 -0.1119 -0.1366 -0.2833
25802W        W42276   6.977  10.345  10.687  0.0514 -0.0856  0.1042
25803W        W42277  11.771   0.304   4.628  0.1582 -0.0882 -0.1747
25804W        W42278   0.662   0.470  13.166 -0.0194  0.0969 -0.0896
25805W        W42279   6.437  13.703   2.371 -0.1631  0.0767 -0.1994
25806W        W42280  14.117   3.475   4.445 -0.0185  0.0807 -0.1325
25807W        W42281   4.064  12.074   3.919  0.3068 -0.6069 -0.2960
25808W        W42282   3.510   3.543  13.459 -0.1742 -0.3087 -0.3521
25809W        W42283   1.940   1.397  14.109 -0.0703  0.2084 -0.1229
25810W        W42284  15.087  13.299  14.271  0.0189  0.1704  0.0986
25811W        W42285   6.554  14.378  14.553  0.0795 -0.1323  0.2802
25812W        W42286  17.232  17.354  14.046  0.2736 -0.1536 -0.0567
25813W        W42287  14.723  14.375  14.774 -0.3391 -0.1011  0.1364
25814W        W42288   8.370  11.299  12.590 -0.2045  0.0278 -0.0905
25815W        W42289   7.800   0.479   4.216  0.1091  0.3781  0.1213
25816W        W42290   7.227   7.256   4.445 -0.0784  0.0072  0.1403
25817W        W42291   0.971   2.503   1.260 -0.1069  0.3832  0.0660
25818W        W42292   9.778   5.793   2.069 -0.0979 -0.0697 -0.1707
25819W        W42293  17.139  12.079  12.121 -0.0936 -0.2275  0.1727
25820W        W42294   7.046  11.364   3.685  0.3644  0.1556 -0.1844
25821W        W42295   2.986   7.362   2.401 -0.1126  0.1013  0.0562
25822W        W42296  18.638   2.631  13.530 -0.0762  0.0852 -0.0067
25823W        W42297   0.016   2.458   1.233  0.2806 -0.0057  0.2019
25824W        W42298  18.326   4.944  10.588 -0.2189 -0.0840  0.3647
25825W        W42299   0.381   1.202   1.084  0.2475  0.4947 -0.2172
25826W        W42300   8.642  10.984   2.862  0.1259  0.1382 -0.3415
25827W        W42301  16.043  17.045  11.788  0.0528  0.1781 -0.0327
25828W        W42302   8.625   7.930  12.011  0.0516 -0.3419 -0.0659
25829W        W42303  14.696   7.215   4.660  0.0470  0.1095  0.2004
25830W        W42304   5.384   2.901  14.269  0.2198 -0.0168 -0.0476
25831W        W42305  15.381   3.308  10.494 -0.2032  0.2484  0.1602
25832W        W42306  14.569   2.635   2.549 -0.0543 -0.1026 -0.1562
25833W        W42307   1.995   1.031   3.694 -0.2865 -0.1151  0.0288
25834W        W42308  10.274  10.387   0.020 -0.0773  0.0984 -0.1470
25835W        W42309   3.824   2.688  12.996 -0.2097 -0.0458  0.2400
25836W        W42310   9.666  13.682  11.250 -0.0876  0.1979 -0.1872
25837W        W42311   9.120   9.043   5.873 -0.0496 -0.0903  0.1658
25838W        W42312  13.259  13.388   1.156  0.1177 -0.0851  0.1557
25839W        W42313  10.725  12.861   3.311  0.1775  0.3675 -0.2092
25840W        W42314  15.486  13.740  10.619  0.2212 -0.4074  0.0495
25841W        W42315   3.231   6.788  13.769  0.1601 -0.1749  0.0834
25842W        W42316   5.518  18.817  12.316  0.3443 -0.2434  0.0920
25843W        W42317  15.300  14.641  13.011  0.2762 -0.2948  0.1794
25844W        W42318   4.979   8.766  14.162 -0.0034 -0.1326 -0.3295
25845W        W42319   3.967  14.663  11.561  0.1183 -0.0905 -0.1161
25846W        W42320   4.846   2.926   2.501 -0.0661 -0.0570  0.1738
25847W        W42321  16.805   2.392  14.290  0.2176 -0.0140 -0.1705
25848W        W42322   0.855  10.277  11.184 -0.0053 -0.1991 -0.0820
25849W        W42323  10.117  12.039  14.599 -0.0277 -0.0258 -0.1754
25850W        W42324   4.503   6.535  14.995 -0.2830  0.1266 -0.0239
25851W        W42325   0.817  11.506   1.081 -0.1479  0.4629 -0.3922
25852W        W42326  13.186   0.528  13.084 -0.0441 -0.0584  0.3138
25853W        W42327  13.225  16.066   5.448 -0.0068  0.0242 -0.0096
25854W        W42328  11.646  10.042  14.891  0.1716 -0.0062  0.1860
25855W        W42329  16.642  15.989   5.863 -0.0760  0.1161 -0.0706
25856W        W42330  14.880  10.206   2.009  0.1885  0.0237  0.0013
25857W        W42331   3.149  12.403  10.712  0.0153  0.0285  0.1935
25858W        W42332   0.766  11.805  14.464  0.3767 -0.1500 -0.0560
25859W        W42333   0.971  13.396  14.843  0.3264  0.1333  0.0694
25860W        W42334   1.418  16.304   1.458  0.0721  0.0668 -0.1365
25861W        W42335   6.220   4.617  13.302  0.0275  0.1698  0.1597
25862W        W42336   2.141  17.723   0.452  0.0960 -0.1872  0.1952
25863W        W42337   4.693   2.822   1.320  0.0366 -0.0303 -0.2289
25864W        W42338   2.141  13.764  13.570  0.0791  0.1821  0.0745
25865W        W42339   0.414   1.838   3.378 -0.0605  0.0247 -0.1589
25866W        W42340   6.533   3.650   3.278 -0.2435 -0.0072  0.3534
25867W        W42341   7.595  10.562   5.116 -0.0943  0.1323  0.1318
25868W        W42342  10.326   5.171   3.809 -0.5857  0.2943  0.3323
25869W        W42343   7.561  18.247  12.668  0.0408  0.1555 -0.0549
25870W        W42344   7.027  12.522   4.333 -0.1262  0.3403 -0.0020
25871W        W42345   9.819   0.974   4.676 -0.2017 -0.3005 -0.1945
25872W        W42346  10.074   2.245   2.318 -0.2141 -0.0408  0.0549
25873W        W42347  15.234  13.486   1.589  0.0398  0.0164 -0.2173
25874W        W42348   3.008   1.258   1.611 -0.2280  0.0047 -0.0321
25875W        W42349  15.682   6.582  13.808 -0.0264  0.1341  0.3039
25876W        W42350  12.001   7.153  11.564 -0.2192 -0.2147 -0.4525
25877W        W42351   5.582   4.716  11.757  0.0854 -0.0166 -0.1543
25878W        W42352  17.704   2.212   1.190 -0.1071  0.0833 -0.3362
25879W        W42353  10.532  13.305   0.914 -0.2399  0.3401  0.0141
25880W        W42354  17.112  18.071   0.526  0.2677 -0.0416  0.4798
25881W        W42355  16.107   1.640   1.236 -0.0721  0.0249  0.0667
25882W        W42356  17.051  18.699   2.382 -0.1413 -0.0088  0.0843
25883W        W42357   4.976  18.789  12.202 -0.1084  0.1700 -0.1251
25884W        W42358   0.546   7.301  12.791 -0.2831 -0.2209  0.2625
25885W        W42359   6.186   1.665   3.730  0.1487 -0.0163 -0.1533
25886W        W42360   6.524   6.279   2.515  0.0064  0.1585  0.1866
25887W        W42361   9.779   2.730  10.518 -0.1640  0.3555 -0.1560
25888W        W42362  12.353  17.325   3.437  0.2132  0.1599 -0.5224
25889W        W42363   1.298  11.173   1.665 -0.3130 -0.3770  0.1123
25890W        W42364  10.809  12.233  11.291  0.2310 -0.3779 -0.0690
25891W        W42365  11.336  19.151   1.139 -0.0466 -0.4719  0.1262
25892W        W42366   9.515   1.581   2.081 -0.0207  0.0226 -0.0555
25893W        W42367  15.119   9.895  12.688 -0.4635  0.1168 -0.2470
25894W        W42368   7.757   6.103   3.765  0.0799 -0.0900 -0.0065
25895W        W42369  17.998   1.911  10.766 -0.2956 -0.4922  0.0104
25896W        W42370   2.062  15.672   2.533 -0.3117 -0.0109 -0.1922
25897W        W42371   9.798   7.909   1.143 -0.5425  0.1641 -0.0065
25898W        W42372  15.580  11.824  10.571  0.0143 -0.0183  0.0119
25899W        W42373  17.708   5.217   3.774 -0.2446 -0.0907  0.0006
25900W        W42374  15.932  16.560   3.810  0.1513  0.1150 -0.0507
25901W        W42375  11.749  18.574  10.568 -0.0188  0.2573 -0.0221
25902W        W42376  17.945   2.419   3.328 -0.3026  0.0759 -0.2286
25903W        W42377   7.613   7.511   4.086  0.1189  0.3973  0.0495
25904W        W42378  17.071  14.718   1.249  0.0908  0.0308  0.3062
25905W        W42379   9.260   8.602   1.117 -0.4401  0.0293 -0.0939
25906W        W42380   6.143  17.112  14.066 -0.0517 -0.1320  0.1117
25907W        W42381   6.378  10.900  14.792 -0.0334 -0.0869 -0.0743
25908W        W42382  17.653  12.214  12.365 -0.1709 -0.0238  0.1594
25909W        W42383  15.392  17.555   3.225 -0.1913 -0.0600 -0.0475
25910W        W42384   7.301   9.676   1.189 -0.2003  0.0423 -0.4818
25911W        W42385  12.154  13.938   4.596 -0.1633  0.1080 -0.0754
25912W        W42386   1.132   5.090  10.613 -0.0641  0.2432  0.3196
25913W        W42387   7.061  10.992   0.716 -0.1523 -0.0304  0.2415
25914W        W42388  14.593  11.247   1.237 -0.0646  0.1027 -0.0870
25915W        W42389   2.232  14.816   3.301 -0.1189  0.2074  0.0085
25916W        W42390   2.468  10.121  11.335 -0.0203  0.3678 -0.2796
25917W        W42391  18.328   0.050   2.879 -0.0853  0.1926 -0.0757
25918W        W42392  11.031  16.807   5.271  0.0275  0.0784 -0.0750
25919W        W42393  12.505   1.292   3.464  0.1348  0.0784 -0.0172
25920W        W42394   2.271  11.828  11.619  0.0104 -0.1077 -0.2598
25921W        W42395  13.573  13.596   4.580  0.1067 -0.1843  0.0429
25922W        W42396   5.234  17.113  14.090  0.0044  0.1690 -0.2574
25923W        W42397   5.857  13.144   2.701  0.0841 -0.2248  0.1199
25924W        W42398  10.951   5.387   2.518 -0.0618 -0.2082 -0.0713
25925W        W42399   4.744  15.222   3.506 -0.3335 -0.3031  0.0017
25926W        W42400  11.519  10.967  12.970 -0.0287  0.1457 -0.1735
25927W        W42401   3.887   2.704   5.744 -0.1670 -0.2579  0.1485
25928W        W42402  11.031  18.298  11.388  0.2111  0.3427  0.3484
25929W        W42403   0.776  15.002  14.043 -0.0050 -0.0046 -0.0809
25930W        W42404   9.381  13.494  13.600  0.0500 -0.3670  0.2653
25931W        W42405  15.331   9.190  11.021  0.0878  0.0447  0.2180
25932W        W42406  18.946   5.408  12.144 -0.1232 -0.1283 -0.3384
25933W        W42407  15.579   1.553   4.114 -0.0624  0.1919  0.1430
25934W        W42408   4.344   2.237  13.630 -0.0443 -0.2033  0.0207
25935W        W42409  11.815   8.931   3.055  0.1314  0.0521  0.2329
25936W        W42410   3.537   9.498   0.770  0.1766  0.3844  0.2623
25937W        W42411  10.932   5.941   2.698 -0.0507  0.2267  0.1122
25938W        W42412   3.080  12.403   4.428 -0.2918 -0.2477  0.1096
25939W        W42413  13.971  10.731   3.616  0.1347  0.0711 -0.0437
25940W        W42414   6.404  15.190  14.693  0.3764 -0.0759 -0.1907
25941W        W42415   8.710  11.169  11.618 -0.0734  0.1101 -0.1886
25942W        W42416  13.386  16.497   3.230  0.0704  0.0195  0.0722
25943W        W42417  11.077   5.504   0.008  0.1526  0.1558 -0.0990
25944W        W42418   0.218   1.821   2.840  0.0575  0.0912 -0.3932
25945W        W42419  15.615   7.834   4.762 -0.1983  0.0885 -0.0719
25946W        W42420   8.277   6.997  13.293  0.0069 -0.0774  0.4494
25947W        W42421  12.252  16.915  13.840  0.1740 -0.0858  0.4392
25948W        W42422   9.626  18.696   5.598 -0.1119  0.0750 -0.0118
25949W        W42423  19.084  11.045  12.816  0.0425 -0.0304 -0.1325
25950W        W42424   9.971   9.781   1.628  0.3237  0.0025  0.1101
25951W        W42425  13.744   7.398   0.730  0.1916  0.2218 -0.1345
25952W        W42426   1.311   9.083   3.635 -0.0654 -0.3092 -0.1957
25953W        W42427  14.122   4.682  11.347  0.0255  0.0048 -0.1386
25954W        W42428  14.750   1.425   0.335  0.0389  0.0135  0.1063
25955W        W42429   4.927   6.228  11.632  0.1754  0.1813  0.0697
25956W        W42430  14.069  10.273   4.995 -0.0599  0.0853  0.0573
25957W        W42431  11.956  13.593  13.487 -0.4547  0.1740  0.0182
25958W        W42432  10.974  18.895  12.614  0.0363  0.0942  0.0211
25959W        W42433  16.936  10.956  12.190 -0.0808 -0.4829 -0.1455
25960W        W42434  19.125   2.735  11.700 -0.0881 -0.0222 -0.0795
25961W        W42435   1.153   3.503  12.040 -0.2661  0.1805  0.3042
25962W        W42436   3.732  13.882  14.572 -0.0620 -0.0828 -0.1013
25963W        W42437   3.403  10.971   3.790  0.0090 -0.0035  0.0785
25964W        W42438   8.666  10.116  12.643 -0.0986  0.1813 -0.2236
25965W        W42439  12.113   3.519   0.641 -0.2149  0.0770 -0.0956
25966W        W42440  18.022   1.817   4.158  0.3390 -0.1664  0.1268
25967W        W42441   3.202  17.870   5.827 -0.0971 -0.1191 -0.0917
25968W        W42442  10.796   5.139   4.837 -0.0814 -0.1473  0.0381
25969W        W42443   3.934   4.286   0.083  0.1265 -0.1821 -0.2721
25970W        W42444   6.725   5.567  10.515  0.0352  0.2195 -0.1314
25971W        W42445   9.735  16.815   2.321  0.1507 -0.1474 -0.0647
25972W        W42446  14.653  14.364   5.219 -0.0518  0.0974 -0.0842
25973W        W42447   8.618   9.817   1.345 -0.1337  0.5039  0.0700
25974W        W42448  13.309   4.379  12.672 -0.3093  0.0624  0.2681
25975W        W42449   9.028   9.659  14.227 -0.2097  0.0154 -0.2318
25976W        W42450  17.988  14.375  11.360  0.1947  0.1639  0.1548
25977W        W42451   4.191   8.960  10.922 -0.2220 -0.1285 -0.1741
25978W        W42452  14.808   5.439  11.648 -0.2482 -0.2537 -0.1738
25979W        W42453  16.237  15.763   0.697  0.0176  0.0616 -0.0951
25980W        W42454  17.432  15.477   2.906 -0.1890  0.0252  0.1118
25981W        W42455   2.208   6.192   4.338  0.0904  0.2249 -0.0974
25982W        W42456   1.634   8.091   0.507 -0.1001 -0.0330  0.0432
25983W        W42457  14.656  15.839   2.884  0.1059  0.2689  0.2464
25984W        W42458  13.127  15.262   0.249  0.1063 -0.0766  0.1243
25985W        W42459   7.100  17.530   1.473 -0.0683 -0.0185  0.0852
25986W        W42460   9.822   0.646   1.337  0.2640 -0.2937  0.1765
25987W        W42461  15.422   1.235  12.721  0.0195  0.0978 -0.1821
25988W        W42462  12.122  14.854   4.946 -0.3497  0.1450  0.1111
25989W        W42463  18.110   2.785  13.248  0.3916  0.5125  0.2765
25990W        W42464   9.311   4.747  12.824 -0.4939  0.0326 -0.1419
25991W        W42465   4.232  12.300  12.656 -0.2349  0.1495  0.3305
25992W        W42466   1.277  13.503   9.762 -0.4158  0.1307  0.1739
25993W        W42467  11.755  17.686  10.006 -0.1498  0.0914  0.0522
25994W        W42468   0.368   1.394   0.659 -0.1829 -0.0621 -0.0151
25995W        W42469   9.137   5.993   2.722 -0.1905  0.2079  0.1587
25996W        W42470  11.066   8.743   0.178  0.1117 -0.3639  0.2612
25997W        W42471   8.792   9.309  15.019 -0.1880 -0.1809 -0.2002
25998W        W42472   1.022   0.061  13.826 -0.0016 -0.3199  0.2980
25999W        W42473  16.832   7.589  14.897 -0.0036 -0.1624  0.2981
26000W        W42474  15.077   6.988   4.926  0.1028  0.2762  0.0685
26001W        W42475   9.470   4.055  12.233  0.2490 -0.0210  0.3062
26002W        W42476   3.897   2.812   0.395  0.0969 -0.0300 -0.1223
26003W        W42477   6.991  15.748  12.970  0.0282 -0.1121 -0.1456
26004W        W42478   2.824   6.418   2.965 -0.0847 -0.3417  0.0320
26005W        W42479   4.113   7.694  11.764 -0.1048  0.1043 -0.0263
26006W        W42480  15.600  13.398  14.169  0.0086 -0.0291  0.0040
26007W        W42481  17.186  18.178  12.757  0.0604  0.1820 -0.0903
26008W        W42482   5.631   2.477   3.691 -0.1922 -0.0981  0.2983
26009W        W42483   2.207   1.175   5.470  0.1732 -0.2069  0.2463
26010W        W42484  16.277   2.181  11.979  0.5280 -0.2501 -0.1618
26011W        W42485  11.770  14.268   4.401  0.0610 -0.1834 -0.0884
26012W        W42486  17.298   6.135  12.822  0.4558  0.0530 -0.0509
26013W        W42487  18.172   6.199  10.496  0.1196  0.1365 -0.2425
26014W        W42488  10.560  11.983  11.751  0.3690  0.1437 -0.3244
26015W        W42489   5.064   3.697  14.614  0.1559  0.0610  0.0515
26016W        W42490  18.794   1.895  12.853  0.3070  0.0108  0.1068
26017W        W42491   8.462  18.321  12.496  0.0136 -0.0631 -0.4593
26018W        W42492   3.903  11.779  12.183 -0.0893 -0.0881  0.1624
26019W        W42493   7.857   7.903   9.970 -0.1315 -0.0229  0.3209
26020W        W42494   5.071   0.924  13.883  0.3023 -0.3577 -0.1150
26021W        W42495   6.805   7.045  13.924 -0.0009 -0.1142  0.1380
26022W        W42496   4.650  10.745   1.988 -0.0687  0.0699 -0.1604
26023W        W42497   0.588  14.769   3.728 -0.1735 -0.0329  0.0054
26024W        W42498   8.999  16.499   4.160 -0.0433  0.2027 -0.1751
26025W        W42499  14.963   2.246  15.046 -0.1164 -0.2710  0.3961
26026W        W42500  11.634  15.576  14.138 -0.2384 -0.3246 -0.1006
26027W        W42501   2.629   2.879   1.282  0.0327  0.0590  0.2146
26028W        W42502  17.647  12.194   3.506 -0.1145 -0.0808  0.0780
26029W        W42503   8.519  13.235  14.224 -0.1965 -0.2490  0.0940
26030W        W42504  11.721   2.059   1.012 -0.0837  0.4492 -0.3890
26031W        W42505   4.026   8.679  14.894 -0.0140 -0.1658 -0.0662
26032W        W42506  10.728  15.785   4.135  0.5331 -0.1414 -0.0929
26033W        W42507  16.802  18.916   0.646 -0.2267  0.1968 -0.0763
26034W        W42508   7.368   6.029  12.046 -0.0833 -0.0356  0.1904
26035W        W42509  18.957   3.704  14.410  0.1431 -0.1149 -0.4763
26036W        W42510   5.467  11.856  10.755  0.3387 -0.0620 -0.1099
26037W        W42511   2.370   5.547  13.900 -0.1230 -0.0488 -0.0667
26038W        W42512   0.906   2.216   2.268  0.0724 -0.1429 -0.1060
26039W        W42513   3.620   4.692   5.166  0.1863  0.0785  0.2926
26040W        W42514   6.855   4.293   3.756 -0.1485  0.0627 -0.1095
26041W        W42515   6.174   6.365   2.931  0.0133 -0.2085 -0.1238
26042W        W42516   3.644   5.336   3.110  0.0397 -0.0624  0.0471
26043W        W42517   5.017   8.651   4.641  0.0614  0.0561 -0.0315
26044W        W42518  11.727  15.165   5.046 -0.1044 -0.1464 -0.2600
26045W        W42519  16.228   8.189   4.816 -0.2570  0.3050 -0.0615
26046W        W42520   2.034   5.471  12.460  0.3914  0.0593  0.1572
26047W        W42521   0.211   0.420  11.816  0.1472 -0.3857  0.1423
26048W        W42522   2.010   9.690   3.648 -0.3555 -0.0970  0.1806
26049W        W42523  17.824  11.197  13.104 -0.1119  0.1137  0.2747
26050W        W42524  17.990  14.672   3.949  0.1567  0.3020  0.1651
26051W        W42525   6.849   7.110   0.331  0.1039  0.1265  0.1383
26052W        W42526   5.825  12.719   4.177  0.0366 -0.3010  0.3418
26053W        W42527  16.752   4.721  14.917  0.1181 -0.3705 -0.0197
26054W        W42528   5.819  12.250  12.928  0.4742 -0.1721  0.0950
26055W        W42529  16.116   0.874  14.811  0.0304  0.0709 -0.1825
26056W        W42530  12.567   7.058   2.251  0.0491 -0.1100  0.0249
26057W        W42531  13.592   7.973   4.958 -0.0118 -0.0487 -0.0716
26058W        W42532   5.261   5.813   1.179  0.0851  0.0528  0.1511
26059W        W42533   4.057   4.014  12.793 -0.0898  0.1204  0.3208
26060W        W42534   0.466  10.800   0.327 -0.0481 -0.2225  0.0775
26061W        W42535  17.879   9.510   9.264  0.1123  0.1622  0.1484
26062W        W42536   7.522  13.141  11.547 -0.1626  0.0116 -0.0557
26063W        W42537   7.395   4.624   0.336 -0.2301  0.2757  0.1902
26064W        W42538   9.665   3.206  12.173  0.3326 -0.1928  0.0272
26065W        W42539   4.283   0.076  12.617  0.2882 -0.3357 -0.2127
26066W        W42540  11.281  15.249  14.462 -0.0488  0.0255  0.1081
26067W        W42541  19.078  10.740   1.992  0.0137 -0.0196 -0.1622
26068W        W42542  14.469  18.804  10.110  0.0932  0.3265 -0.0924
26069W        W42543  14.782   0.451  11.819  0.2680  0.1222 -0.1469
26070W        W42544   3.158   3.141   1.191 -0.0243 -0.1058  0.1535
26071W        W42545  10.702   0.819   2.981  0.1426 -0.0020 -0.0450
26072W        W42546  13.826  17.573   2.613 -0.0846 -0.2260 -0.1494
26073W        W42547   5.721   1.198  13.883 -0.0474  0.1153 -0.2104
26074W        W42548  11.779  14.438   0.091  0.1155  0.1057  0.0204
26075W        W42549   9.793  12.385   5.722  0.2609 -0.0317  0.0006
26076W        W42550   7.051  13.694   3.117 -0.2489  0.1130  0.1142
26077W        W42551   6.962   3.763   3.001 -0.1614  0.0492  0.0903
26078W        W42552   4.515   3.981   1.256  0.2045 -0.0487 -0.1747
26079W        W42553   8.255  13.477  12.166 -0.0089 -0.0926  0.2165
26080W        W42554  10.368  16.515   1.312  0.1997 -0.2258 -0.4447
26081W        W42555  18.118  13.180  13.441 -0.0005 -0.0701  0.3249
26082W        W42556   5.551   2.400  14.633  0.2380 -0.2508 -0.4037
26083W        W42557   9.139   3.348  12.006  0.0343 -0.0821 -0.0751
26084W        W42558  13.441  11.002   5.818  0.2028 -0.0185  0.0204
26085W        W42559   9.401  18.057   5.035  0.0701 -0.1188  0.0635
26086W        W42560   9.589   4.696   3.817  0.1246 -0.3397 -0.0316
26087W        W42561  15.540   3.528   1.949 -0.1380  0.1421 -0.1481
26088W        W42562   9.249   1.257   1.340 -0.4086 -0.1079  0.1604
26089W        W42563   9.643   4.050  11.647 -0.2082  0.0652 -0.1453
26090W        W42564  16.678   0.448   2.112  0.1762  0.1364  0.0964
26091W        W42565  11.940  10.357   2.832 -0.0688 -0.0677 -0.4421
26092W        W42566  13.831   3.203   2.112  0.0144  0.2041 -0.2476
26093W        W42567  15.978   1.429  15.049 -0.1233  0.0737 -0.1297
26094W        W42568   4.943  11.578   0.624 -0.3695  0.4777  0.1121
26095W        W42569  15.773  17.746  14.114 -0.1869  0.0482 -0.2990
26096W        W42570   7.936   0.384   4.919 -0.1743  0.0210 -0.3435
26097W        W42571   3.610   9.720   3.918 -0.3154  0.0074 -0.0506
26098W        W42572   5.904  15.019   1.721 -0.0880  0.3050  0.1317
26099W        W42573   7.483   1.232  12.859  0.0769 -0.0832 -0.3645
26100W        W42574   8.222   4.248   3.656 -0.1337 -0.1397 -0.1910
26101W        W42575  17.113   9.173  12.549  0.0134  0.2353  0.1407
26102W        W42576   4.976   4.174   3.822 -0.1183 -0.0386 -0.2977
26103W        W42577   6.039   3.400   0.800 -0.2119  0.0329  0.2064
26104W        W42578   7.963  10.973  14.954 -0.1061  0.1007 -0.0754
26105W        W42579   2.645  12.308  14.196  0.0663  0.3213 -0.0167
26106W        W42580   2.875   2.097   2.288 -0.1263 -0.0825  0.0612
26107W        W42581  10.618   8.049  12.547  0.2033 -0.2806 -0.1761
26108W        W42582  16.161   4.139   5.811 -0.0913  0.1584  0.0498
26109W        W42583   1.814  12.474  14.856  0.2824 -0.1810  0.0584
26110W        W42584   1.972  11.276  12.728  0.1284 -0.1875 -0.0521
26111W        W42585   9.981  10.056   5.271 -0.2280 -0.0743  0.1897
26112W        W42586   6.085   8.605  15.057 -0.3475 -0.1237  0.0065
26113W        W42587  10.791   5.321   4.153 -0.0553  0.0125  0.2756
26114W        W42588  13.954   3.529   3.368  0.1402 -0.2886 -0.0579
26115W        W42589  16.459  12.819  10.889 -0.1964  0.1554 -0.0566
26116W        W42590  16.851  13.849  12.413 -0.2027  0.1300  0.5883
26117W        W42591   9.150   2.078   5.168 -0.2331  0.0523 -0.0273
26118W        W42592   4.604  13.159   0.671  0.0633  0.3932  0.1377
26119W        W42593  10.157   8.845   2.682  0.0479  0.0374  0.0967
26120W        W42594  15.342  18.811   4.576 -0.3781  0.2705 -0.2165
26121W        W42595  12.908   8.117  10.881  0.0390  0.1923 -0.1318
26122W        W42596  14.058   0.301   3.014 -0.3352 -0.3108  0.3551
26123W        W42597  12.202  10.961  12.259  0.1626 -0.3931  0.0029
26124W        W42598  16.838  16.220  13.367  0.3242 -0.1662  0.2508
26125W        W42599  15.571   2.650   4.892 -0.1212 -0.1240 -0.1727
26126W        W42600   4.100  12.019  14.730 -0.2004 -0.2004  0.1409
26127W        W42601  12.555  11.210  13.532  0.2751 -0.1395 -0.2641
26128W        W42602   2.562   4.865   3.898 -0.0640  0.2277  0.0639
26129W        W42603  14.709  13.084  10.250 -0.0843  0.0781  0.1485
26130W        W42604   2.676   2.451   2.028 -0.2431 -0.4624 -0.0236
26131W        W42605   5.630  10.340  13.046 -0.0100  0.1575  0.0430
26132W        W42606  15.664  11.137  13.313  0.1571 -0.1699  0.0887
26133W        W42607  17.186   6.526  13.975 -0.0098  0.1649 -0.0971
26134W        W42608  15.817   4.041  10.838  0.2407 -0.0160  0.2128
26135W        W42609   8.996  11.889  14.264 -0.0496 -0.0272  0.0547
26136W        W42610  17.823   6.968  11.126  0.0715  0.1613 -0.1004
26137W        W42611  15.544  13.737   2.442 -0.3198  0.3426  0.1003
26138W        W42612  10.786   6.402  14.339 -0.0644 -0.1842 -0.1754
26139W        W42613   6.811  10.258   4.929 -0.0233  0.1751  0.1130
26140W        W42614   9.632  10.387   0.335  0.0824  0.0064 -0.0314
26141W        W42615  16.804   2.436   1.416  0.3895  0.2297  0.0976
26142W        W42616  17.627  14.819  10.336  0.5586  0.1784  0.0222
26143W        W42617  17.449   4.994   1.754  0.1247  0.1709  0.2684
26144W        W42618  13.948  18.883   9.998 -0.5644  0.0114  0.0636
26145W        W42619   1.928  17.583   2.328 -0.0261  0.3000 -0.1206
26146W        W42620   7.288   3.836   4.952 -0.3544 -0.0118 -0.0119
26147W        W42621   8.595  11.082  12.115  0.0207 -0.0738  0.0356
26148W        W42622   8.708   7.940   0.724  0.1990 -0.0110 -0.2572
26149W        W42623   7.313  15.932  10.604  0.3673 -0.2795 -0.1340
26150W        W42624  19.114   2.663  13.763  0.1435 -0.4263  0.0157
26151W        W42625   1.686   9.988   3.400  0.0226 -0.0049 -0.3291
26152W        W42626  12.192   9.743   4.576  0.0270 -0.0263  0.2375
26153W        W42627   6.199  12.933  11.226 -0.3577 -0.0015 -0.1326
26154W        W42628   3.723  12.462  11.806 -0.1852 -0.0578  0.1261
26155W        W42629   3.008  18.870   5.765 -0.2742  0.0435 -0.1095
26156W        W42630  11.387  14.060  13.847 -0.2054 -0.0160 -0.0146
26157W        W42631   8.011   7.728  15.152  0.4945  0.3474  0.0037
26158W        W42632  10.942  18.867   0.246  0.2279  0.0393 -0.1670
26159W        W42633  19.096  15.768  14.951 -0.3695  0.0443 -0.2241
26160W        W42634   3.082   4.035   0.441  0.2488  0.0923 -0.2944
26161W        W42635   7.779   6.149  12.336 -0.1651 -0.0659 -0.0141
26162W        W42636   7.921   7.052   5.078  0.0817  0.1915 -0.0601
26163W        W42637  16.785  13.385  13.245  0.0820  0.0751  0.1324
26164W        W42638   2.091   3.825  12.411  0.1409  0.1784  0.1425
26165W        W42639  11.876   8.380  12.457 -0.0397  0.1824  0.1524
26166W        W42640   3.732   5.463   2.599  0.5001  0.1577  0.1385
26167W        W42641   0.202   2.036   4.186  0.1386 -0.0471 -0.1423
26168W        W42642  15.195   6.628   4.477  0.3314  0.1377  0.2032
26169W        W42643   0.176  15.441   1.721 -0.0682 -0.1002  0.2300
26170W        W42644   5.666   5.442  11.604  0.2329  0.1570 -0.0337
26171W        W42645  12.659   7.480  13.150  0.0284  0.2004  0.1286
26172W        W42646   6.168   0.994  13.682 -0.0857  0.0110  0.1292
26173W        W42647  11.640  14.582  13.237 -0.3340 -0.0642 -0.1830
26174W        W42648  16.616   4.655   2.012 -0.1783 -0.0290  0.2490
26175W        W42649  17.609   6.961  15.098 -0.0132 -0.1376 -0.1636
26176W        W42650   8.327  16.376  11.592  0.0710 -0.2429 -0.1961
26177W        W42651  14.679   8.051   4.031  0.0024  0.2192  0.2696
26178W        W42652   3.478  16.695  11.428  0.0226 -0.0427 -0.0824
26179W        W42653   0.505   2.288   0.228  0.1678  0.0956 -0.0274
26180W        W42654  17.680  15.628  11.749 -0.3037 -0.1726  0.0973
26181W        W42655  13.332   0.713  11.862  0.0920  0.0511 -0.1734
26182W        W42656   1.277   9.945  14.220 -0.0819  0.0090  0.0956
26183W        W42657   3.903   2.539  11.183 -0.0249  0.0713 -0.3047
26184W        W42658  11.966  10.814  14.213  0.0593 -0.1471  0.1358
26185W        W42659  12.416  10.838  14.369  0.2396  0.0335  0.1620
26186W        W42660  16.980   6.119   2.100 -0.3533  0.3238  0.2089
26187W        W42661   9.234  15.675   0.559 -0.0901 -0.1912 -0.0957
26188W        W42662  10.624  17.640   2.090 -0.1585  0.1164  0.2703
26189W        W42663   1.495  16.243  11.623 -0.0469  0.0478 -0.2027
26190W        W42664   2.831  12.143  12.209 -0.1425  0.0907  0.2223
26191W        W42665   9.254   1.406  11.694 -0.1951 -0.1754 -0.1030
26192W        W42666  11.623   1.366  13.237 -0.3847 -0.0917  0.0071
26193W        W42667  10.212  10.584  13.077  0.1367  0.0760  0.1926
26194W        W42668   1.386   4.000  11.719 -0.1888  0.1516 -0.3056
26195W        W42669   4.433   5.399   4.345  0.0965 -0.2379 -0.1069
26196W        W42670  19.030  16.646   0.228 -0.2562 -0.0957 -0.0159
26197W        W42671  14.804  19.016   2.723 -0.1658  0.0792  0.0804
26198W        W42672  14.006   0.714   0.981 -0.1596  0.1819  0.2566
26199W        W42673   9.115  17.086   5.303  0.2504 -0.2058 -0.1285
26200W        W42674   1.634  14.116   0.134 -0.1767  0.2333  0.1505
26201W        W42675  17.816   6.897   1.093 -0.1752 -0.0813  0.0746
26202W        W42676  15.651  14.643   3.917  0.1974  0.0559  0.0595
26203W        W42677   1.945   9.876  10.613 -0.2158  0.0078  0.2451
26204W        W42678  16.205  11.042   2.742 -0.0706  0.1788 -0.2709
26205W        W42679   1.765   1.054   6.031 -0.2769  0.0431  0.2637
26206W        W42680   7.511  16.071  13.002 -0.3501  0.3904  0.0471
26207W        W42681   1.350   9.541   3.256  0.2076  0.2530  0.1537
26208W        W42682  10.589   0.504  14.357 -0.0695 -0.2720  0.2100
26209W        W42683  16.924   5.326   2.252  0.4041  0.3917 -0.0093
26210W        W42684   6.397  10.874  10.724  0.0950 -0.4464  0.0428
26211W        W42685  13.607  15.293  15.082  0.1296  0.1598 -0.4335
26212W        W42686  10.973   4.837   2.482  0.0967  0.0895  0.0136
26213W        W42687   7.295  10.193   2.162 -0.0605 -0.2408 -0.1013
26214W        W42688   7.395   2.466  13.793 -0.4049 -0.0281 -0.3077
26215W        W42689   9.113  17.874   4.306 -0.0021 -0.0576  0.1462
26216W        W42690  10.150   5.755  14.868 -0.1294  0.3660 -0.3015
26217W        W42691   7.499   8.760   4.525 -0.4852 -0.0593  0.1260
26218W        W42692  17.320  13.868   4.908  0.0459 -0.1766  0.2771
26219W        W42693   9.102   7.964  12.823 -0.0215  0.1993 -0.0680
26220W        W42694  14.214  15.825   2.161  0.0217 -0.2082  0.0308
26221W        W42695   2.302  18.780  13.985 -0.4452  0.2414  0.0720
26222W        W42696   7.683   7.194  10.767  0.0160  0.0523  0.2233
26223W        W42697  14.077   9.314   0.988 -0.0153  0.0577  0.1506
26224W        W42698   5.937   5.605   1.940 -0.2908  0.3509  0.3203
26225W        W42699  10.297   9.449  11.610 -0.0578 -0.1388  0.3169
26226W        W42700  13.451   0.030   2.791  0.0866  0.0101  0.1101
26227W        W42701  19.128  14.301   0.850 -0.0957 -0.1089 -0.0537
26228W        W42702  16.790   9.358  15.029 -0.3183  0.1410  0.0092
26229W        W42703  18.812  13.371   4.717 -0.0866  0.0467 -0.3172
26230W        W42704   7.190  14.980   3.621 -0.0037 -0.0991  0.0562
26231W        W42705  13.134  15.544  14.973  0.0225 -0.0857 -0.1357
26232W        W42706  13.715  16.425   3.994  0.1295  0.2826 -0.4561
26233W        W42707  10.292  10.104   4.844  0.1379 -0.0561 -0.2260
26234W        W42708  16.238   8.312  10.283 -0.1317 -0.3136 -0.2248
26235W        W42709   7.745   3.921   2.425 -0.0462  0.1741 -0.2829
26236W        W42710   4.225  15.304  13.535  0.0368 -0.0282 -0.4084
26237W        W42711  12.808   1.879   0.608 -0.1214  0.1336  0.2016
26238W        W42712  10.563   5.354   0.948  0.0181 -0.4250 -0.1260
26239W        W42713   9.611   4.543   3.341  0.0161  0.2663 -0.0023
26240W        W42714   6.896  17.356   1.970 -0.1944  0.3028  0.0556
26241W        W42715  18.025  10.862  12.832 -0.3021  0.0212  0.0359
26242W        W42716  18.747  17.007   6.024  0.2213 -0.1871  0.1157
26243W        W42717   3.718  14.033  12.960 -0.0877 -0.3104 -0.1746
26244W        W42718   5.764  14.558  12.376  0.2568  0.1597  0.1316
26245W        W42719   9.476  15.745   2.304 -0.0180  0.1476 -0.0137
26246W        W42720  10.750  17.866   0.510 -0.0886  0.0848 -0.1564
26247W        W42721   3.443   5.059  13.026 -0.2207 -0.2669 -0.2432
26248W        W42722  17.805   8.856   9.946  0.3447  0.1893  0.0615
26249W        W42723   6.962   9.798   4.715  0.1842  0.2272  0.1441
26250W        W42724  15.100  11.581   1.014  0.1485  0.0320 -0.3960
26251W        W42725  18.119   6.857  10.753  0.1007  0.1496 -0.0323
26252W        W42726  10.675  13.891   1.686 -0.0985 -0.2358 -0.1930
26253W        W42727  15.211   6.539   6.097 -0.0698  0.2576 -0.1329
26254W        W42728   5.161   7.261  10.008 -0.0463  0.1334  0.1617
26255W        W42729  15.630   8.778   4.999 -0.6583 -0.1864  0.3667
26256W        W42730  11.736  10.064  11.155 -0.1961  0.1189  0.2068
26257W        W42731  11.471  11.776   1.542  0.0277 -0.0114 -0.1105
26258W        W42732   3.154   9.297   0.986 -0.1571 -0.0139 -0.0442
26259W        W42733  16.169  15.047  14.252  0.0057  0.0085 -0.1654
26260W        W42734   0.756  12.472   2.044  0.1204  0.2616  0.0198
26261W        W42735  13.675   8.828  12.737  0.1434 -0.1463  0.3660
26262W        W42736   9.474  16.002  12.903  0.0542 -0.3441  0.1424
26263W        W42737  16.916   5.486  13.483 -0.4272  0.0033  0.0247
26264W        W42738  18.169   3.708  13.107 -0.3010  0.0277  0.0855
26265W        W42739  11.320  10.313   1.239 -0.1219  0.1236 -0.1382
26266W        W42740  10.286  12.530  13.046 -0.0062 -0.3942  0.1041
26267W        W42741  11.751   9.419  12.860  0.1668 -0.4063  0.2129
26268W        W42742   0.235   1.228  12.541 -0.1059  0.1279  0.0891
26269W        W42743   2.158   9.244   5.256 -0.2085  0.2795  0.2341
26270W        W42744  10.108  10.113  12.769  0.2885  0.0201 -0.0666
26271W        W42745  11.850  16.917   0.936 -0.1813  0.1776 -0.1521
26272W        W42746  13.324   0.439  14.892 -0.1067 -0.3060 -0.0913
26273W        W42747   3.350  11.914   2.710  0.0779  0.2193 -0.0969
26274W        W42748   0.476  11.673   3.037 -0.4213  0.0185 -0.1387
26275W        W42749  15.312   9.667  14.809 -0.1152 -0.1185 -0.1249
26276W        W42750   8.365  10.647   5.895  0.1082  0.2173  0.3834
26277W        W42751   9.801   0.421   2.925  0.2016 -0.0518 -0.0443
26278W        W42752  14.660  13.568  11.451 -0.0475 -0.2157  0.1108
26279W        W42753   1.671   9.746  14.592  0.2452  0.0822  0.0844
26280W        W42754  15.252   6.791   3.020  0.3967  0.3680 -0.0387
26281W        W42755  16.760   8.409   1.743 -0.0190  0.3714  0.3163
26282W        W42756   8.345   2.153   1.703  0.1863  0.2070  0.0974
26283W        W42757   2.242  12.386  13.820 -0.0995  0.1600  0.0895
26284W        W42758   3.634   0.444  14.180  0.0481 -0.1385 -0.1412
26285W        W42759   9.630   9.422   0.844  0.0686 -0.1326 -0.2147
26286W        W42760  12.778   5.244   0.668 -0.1233 -0.0581 -0.0386
26287W        W42761   0.428  18.228  12.741 -0.2894  0.2216 -0.3036
26288W        W42762  13.726  15.632  10.686  0.1183 -0.0932  0.0547
26289W        W42763   2.301  14.103   4.722 -0.2340 -0.2021  0.1653
26290W        W42764   9.288   8.360  13.686  0.0487 -0.2892  0.1079
26291W        W42765  10.519   3.246   4.688 -0.0657 -0.2342 -0.2261
26292W        W42766   8.410  11.685   4.872 -0.0166 -0.0967 -0.0473
26293W        W42767   4.930   5.857   3.396 -0.0653 -0.1242 -0.0936
26294W        W42768   9.656   0.177  12.382 -0.0057 -0.1389 -0.2722
26295W        W42769   5.127  18.948   2.027 -0.3525  0.0860  0.2258
26296W        W42770   7.890   3.725  10.172  0.2997 -0.1405  0.4310
26297W        W42771   0.791   5.290  11.779 -0.0601  0.2548  0.2724
26298W        W42772   7.511   1.901   2.089 -0.0301 -0.0746 -0.4350
26299W        W42773  17.867  15.208  11.440 -0.0415  0.0305 -0.3931
26300W        W42774  16.614   6.876   1.888  0.0624 -0.2510 -0.0737
26301W        W42775   5.404   0.962   0.804  0.1024 -0.4225  0.4790
26302W        W42776   3.900   9.463  10.236 -0.0218  0.0129 -0.2093
26303W        W42777  12.606   3.191  11.146  0.2507 -0.0394  0.0454
26304W        W42778   8.987   5.984   1.617  0.4392  0.2365  0.4700
26305W        W42779  17.944  17.535   2.621 -0.0931  0.1110 -0.3055
26306W        W42780  12.921  11.870   3.346 -0.1886  0.0342  0.1401
26307W        W42781  16.376  15.956   2.393 -0.2565  0.1197 -0.0195
26308W        W42782  10.139  14.115   3.536  0.4919  0.0374  0.0012
26309W        W42783  14.270   3.033  11.601 -0.2091 -0.1584  0.0012
26310W        W42784  10.986   2.610  14.570 -0.2843 -0.1016 -0.3321
26311W        W42785  16.553  15.239  11.840 -0.0433 -0.0059  0.0873
26312W        W42786  12.929  17.917   3.642 -0.0144 -0.2068  0.0414
26313W        W42787  11.304  17.223  14.535  0.0782 -0.2026 -0.0836
26314W        W42788   6.817   4.601  12.561 -0.1420  0.1817  0.0756
26315W        W42789  18.851   6.672  14.438 -0.0385  0.0439  0.1012
26316W        W42790   8.554  12.117  12.224 -0.4924  0.1867 -0.1347
26317W        W42791   8.887   2.892  11.886  0.1394  0.2230  0.0618
26318W        W42792   8.390   1.373   5.094 -0.4597  0.4094 -0.0938
26319W        W42793  13.520   7.588   3.045 -0.0084 -0.1229 -0.0363
26320W        W42794  11.242   5.963  11.058  0.2163  0.1666 -0.1514
26321W        W42795  16.048   7.089  12.274  0.2923 -0.3435  0.2022
26322W        W42796  17.838   7.221  13.839 -0.0983  0.1701 -0.1056
26323W        W42797  12.863   5.484   1.555  0.2378 -0.1429 -0.1604
26324W        W42798  16.815  15.165   3.972  0.1774 -0.2445 -0.2418
26325W        W42799   7.727   6.832   4.126  0.2044 -0.1515  0.2277
26326W        W42800   8.311   4.500   5.243 -0.2719 -0.2499 -0.0050
26327W        W42801  18.529  16.041  14.255 -0.1191  0.1071  0.4283
26328W        W42802   3.784   6.218   1.748  0.0011  0.1823  0.1989
26329W        W42803  11.257   8.543   3.809 -0.0830 -0.2897  0.1623
26330W        W42804   4.314   5.353   0.089 -0.2413  0.2744 -0.1100
26331W        W42805  14.203   2.621  10.273  0.0223 -0.1055  0.4714
26332W        W42806  18.645   0.257  13.394 -0.0687 -0.0426 -0.0198
26333W        W42807  16.358   4.514   4.143  0.2148  0.1334 -0.0630
26334W        W42808   0.484   4.015  14.943  0.0876  0.1289  0.4394
26335W        W42809   2.735  11.608   0.316 -0.0054  0.0256 -0.0609
26336W        W42810   9.568   5.111  15.142 -0.2371 -0.1612  0.1904
26337W        W42811  10.005   6.912   1.244  0.0656  0.1387 -0.0397
26338W        W42812  14.850  14.064   3.711 -0.1238 -0.2485  0.0813
26339W        W42813  13.200   1.400   3.520  0.2266 -0.2245  0.0810
26340W        W42814   4.187   2.449   0.132  0.2770  0.2540  0.1568
26341W        W42815   6.565  11.809   2.927 -0.1058 -0.0480  0.0542
26342W        W42816   7.528  15.529   0.736  0.2755  0.1453  0.0927
26343W        W42817   7.919  17.620  11.954  0.2724 -0.1492 -0.1648
26344W        W42818  18.217   9.749  11.639  0.1792 -0.0034 -0.1132
26345W        W42819  18.155   3.563  11.352  0.2157 -0.0406  0.1373
26346W        W42820  16.131  15.938  14.131 -0.2174  0.1420 -0.2093
26347W        W42821  18.076  12.867   1.662  0.0782  0.1401 -0.2187
26348W        W42822  10.290   5.287  14.116  0.1384  0.1723  0.2296
26349W        W42823  16.896  18.072   4.732  0.1469 -0.1509 -0.0935
26350W        W42824   9.450   6.272   1.592 -0.0232  0.4918  0.4717
26351W        W42825   4.231   0.830   3.249  0.0129 -0.1781  0.3035
26352W        W42826  16.475   4.986   3.886  0.0350 -0.1537 -0.1330
26353W        W42827   4.962  15.392   1.900  0.0839 -0.1205  0.0487
26354W        W42828   0.709   9.600  13.327  0.0015  0.1264 -0.1734
26355W        W42829  16.037   5.731   1.073 -0.3016  0.1923  0.0114
26356W        W42830   8.969   3.866  10.280 -0.0007 -0.2011 -0.0228
26357W        W42831  15.912   4.722  14.111  0.1383 -0.0599 -0.4199
26358W        W42832   3.018  14.514  11.204 -0.0445 -0.1443 -0.0144
26359W        W42833  15.504  16.842   4.396  0.3217  0.1830  0.0570
26360W        W42834   3.637   5.296   0.705 -0.0817  0.1379 -0.4363
26361W        W42835   6.690  18.684   1.372 -0.1754 -0.0492 -0.3096
26362W        W42836  12.557   7.913   3.015  0.2458 -0.3876 -0.1765
26363W        W42837  15.545   5.064   4.028 -0.2646  0.0670  0.1984
26364W        W42838   8.841   3.100  12.430  0.0001 -0.2671 -0.4158
26365W        W42839  16.816   1.632  11.675  0.0879  0.2726  0.1104
26366W        W42840   7.402   1.013  11.124 -0.3292  0.0372 -0.2225
26367W        W42841   0.847   4.421  14.917 -0.1842  0.1736 -0.2864
26368W        W42842  11.737  10.517   1.132 -0.2414 -0.3173 -0.0854
26369W        W42843   1.843  14.585   3.557  0.1852  0.0467 -0.1080
26370W        W42844   1.952  18.119   0.039  0.0180  0.0357  0.0516
26371W        W42845  10.465  16.514  14.191  0.1340  0.3026  0.0467
26372W        W42846  14.431   0.872   1.907 -0.0574  0.0659 -0.0999
26373W        W42847  12.630  11.535   3.068 -0.0255 -0.0183 -0.3668
26374W        W42848  10.830  12.566  14.509  0.4076  0.0370 -0.1932
26375W        W42849  12.108   4.151  13.302  0.0348  0.1584  0.1871
26376W        W42850   5.669  10.935  12.247  0.3236  0.1786  0.1265
26377W        W42851   2.468   2.171   3.808  0.1647  0.1134  0.3987
26378W        W42852   3.223  18.945   4.465 -0.2184  0.0495 -0.2467
26379W        W42853  12.868  13.282  11.956  0.1642  0.1426  0.0471
26380W        W42854   6.184  16.705   1.510 -0.0848  0.1079  0.2950
26381W        W42855   4.324  11.146   9.238  0.0065  0.1641 -0.2831
26382W        W42856   3.720   6.057   4.491 -0.1123  0.1794  0.2409
26383W        W42857   6.008  18.349   1.996  0.0655  0.0403 -0.0237
26384W        W42858   1.065  17.929   4.466  0.0042  0.0120  0.1991
26385W        W42859   1.104  11.404  11.577 -0.0804 -0.1863  0.1971
26386W        W42860   8.639  16.268  10.746  0.0898 -0.0592  0.0227
26387W        W42861  17.611   3.570   2.943  0.0798  0.0852  0.0977
26388W        W42862  11.438   3.966   1.618  0.3074 -0.0042 -0.2466
26389W        W42863  18.920   1.430   3.165  0.1412  0.1363  0.2536
26390W        W42864   1.766  13.278  14.336 -0.7163  0.0137 -0.1092
26391W        W42865  13.271  13.942  14.743  0.1524  0.2303  0.2666
26392W        W42866  12.818  18.532   2.232 -0.1480 -0.1399 -0.1343
26393W        W42867   0.027   2.558   3.960 -0.2120 -0.0779 -0.3957
26394W        W42868   2.812   3.724   3.745 -0.1539  0.2537 -0.0830
26395W        W42869   7.349   6.167   0.607  0.0742 -0.1784 -0.1666
26396W        W42870   6.027   9.971  11.699  0.0071  0.0324 -0.0672
26397W        W42871  11.239  12.915  14.533  0.0269  0.0492  0.0077
26398W        W42872  18.686  17.905   3.980  0.2082  0.1032 -0.1121
26399W        W42873   4.621  18.274  15.040 -0.0021  0.1165 -0.0337
26400W        W42874   0.975   8.043  14.567  0.0833 -0.4782 -0.2504
26401W        W42875   3.148  10.888   5.007 -0.2211  0.0098 -0.0448
26402W        W42876  11.426  19.018   0.406  0.0126  0.1748  0.0466
26403W        W42877   2.643   4.572   3.502 -0.0637  0.0820  0.2016
26404W        W42878   2.083   2.816   3.734 -0.1201 -0.2869  0.2049
26405W        W42879   9.603   8.900   3.986 -0.0567  0.2744 -0.0773
26406W        W42880   3.533  12.864  12.093 -0.1204  0.1199  0.0016
26407W        W42881  18.009  16.957   2.048  0.1363  0.0532  0.0093
26408W        W42882   1.449  10.650  12.902  0.3246 -0.0345 -0.0918
26409W        W42883  15.452  13.068  13.205 -0.0129 -0.3979  0.2720
26410W        W42884  11.869  13.251  13.801  0.0451  0.2184 -0.3488
26411W        W42885   9.239  11.926  13.674 -0.1031 -0.0741 -0.2819
26412W        W42886   6.830   0.602  12.661  0.3471 -0.0703  0.3715
26413W        W42887  11.075   7.087  15.099 -0.0759  0.2174  0.0593
26414W        W42888   6.904  15.275   0.463 -0.0971 -0.3630 -0.2898
26415W        W42889  17.972   5.458   2.169  0.0291 -0.1475 -0.1214
26416W        W42890   5.105   4.024   4.335 -0.2541 -0.1473  0.0379
26417W        W42891  10.390   0.460  10.208  0.1860 -0.0226 -0.0910
26418W        W42892   8.026   6.376   3.330  0.4815  0.2949  0.0755
26419W        W42893  12.702   3.141   2.616  0.1596  0.2682  0.1446
26420W        W42894  12.944   0.312   0.441 -0.1842  0.1881 -0.0166
26421W        W42895   4.315  14.068   0.221 -0.1845 -0.0081 -0.3030
26422W        W42896   5.769  14.538  11.313 -0.2306 -0.4283  0.1951
26423W        W42897   4.402   7.591   4.107 -0.2187 -0.0485 -0.0848
26424W        W42898   6.961   0.617  14.078 -0.0599  0.3737  0.2176
26425W        W42899   0.232   8.086  15.051  0.0064 -0.2643 -0.0489
26426W        W42900  14.673  12.584   1.005  0.2812 -0.1879 -0.0486
26427W        W42901  11.360   1.644   1.271  0.2212 -0.2695 -0.2133
26428W        W42902   2.812  16.312   4.547  0.0006 -0.4130 -0.1869
26429W        W42903   2.935   9.499   3.367 -0.1343  0.0512  0.0476
26430W        W42904   9.621  16.167  14.765 -0.0900 -0.0220 -0.1409
26431W        W42905  15.303  12.839  14.135  0.0805 -0.2172 -0.0165
26432W        W42906  16.668  12.325  12.134 -0.0240 -0.1218 -0.1046
26433W        W42907  17.107  18.086   1.179 -0.0970 -0.0850 -0.0191
26434W        W42908  12.750  10.792   1.241 -0.2763  0.1458  0.0297
26435W        W42909  15.767  11.965   2.075  0.2789 -0.1242 -0.1480
26436W        W42910  12.855   5.830   0.054  0.1544  0.0590 -0.2331
26437W        W42911   3.864  14.823  14.699 -0.0700  0.2843 -0.2417
26438W        W42912   3.402  10.533  10.494 -0.1691 -0.0312  0.1083
26439W        W42913  18.602   6.769  14.938  0.2173 -0.1509 -0.1808
26440W        W42914  15.999   5.825   0.265  0.3273 -0.0338  0.2859
26441W        W42915   7.727  11.824  13.766 -0.1620  0.1231 -0.0487
26442W        W42916   5.804  17.259  11.236 -0.1113  0.2457 -0.1761
26443W        W42917   2.527  13.245   1.120  0.3471 -0.1660  0.1663
26444W        W42918   1.980   9.023   2.993 -0.1021  0.0378  0.1736
26445W        W42919  13.037  10.484   0.498 -0.0495 -0.3640 -0.2187
26446W        W42920   7.622   5.782   5.471  0.0399 -0.1105 -0.0769
26447W        W42921  11.536   6.373   3.582  0.2617 -0.0333 -0.0242
26448W        W42922   9.919   0.546  14.553  0.2685 -0.1979 -0.0264
26449W        W42923  18.850  17.497   5.933 -0.0594  0.0550 -0.3650
26450W        W42924   1.142  17.264  11.619 -0.3746 -0.3835 -0.1558
26451W        W42925   1.705   3.235  10.059  0.0211  0.0207  0.0904
26452W        W42926  18.543   9.305  15.045  0.0504 -0.0355 -0.0836
26453W        W42927   3.644   6.734  14.927  0.1144 -0.0662 -0.3016
26454W        W42928  14.303  18.195  10.703 -0.0092  0.0937 -0.0247
26455W        W42929  13.275  19.141  14.735  0.0297  0.1073  0.4493
26456W        W42930   4.041   9.806  10.613  0.0113 -0.3085 -0.1780
26457W        W42931  15.216   7.137   3.431  0.1846  0.1092 -0.0964
26458W        W42932  10.764  17.873  11.164  0.0588 -0.0908 -0.1382
26459W        W42933   6.354   0.989  10.997 -0.0053  0.0407 -0.0842
26460W        W42934  10.166  10.019   2.042 -0.1119  0.0089 -0.0099
26461W        W42935  11.516  16.368  14.215 -0.0211 -0.1845 -0.0893
26462W        W42936   0.374   4.219   0.820  0.2378 -0.1741  0.0165
26463W        W42937  17.088  10.002  14.216 -0.2020  0.2156  0.0292
26464W        W42938   0.065  17.599   0.358 -0.3775  0.1237 -0.2249
26465W        W42939   7.242   3.952  14.615 -0.1483 -0.1275 -0.2844
26466W        W42940  16.744   4.291   0.009 -0.0803  0.0143 -0.0383
26467W        W42941   7.619  11.703   0.994  0.1133  0.1163 -0.0248
26468W        W42942  13.766  12.555  13.648 -0.1715 -0.2086 -0.2701
26469W        W42943  13.409   8.043  13.832 -0.1545  0.1164  0.3461
26470W        W42944  10.179   8.554  14.161  0.1623  0.0160 -0.1033
26471W        W42945   8.684  14.882  13.181  0.0164 -0.1912 -0.4387
26472W        W42946  17.807  14.659   2.739 -0.2578  0.3696  0.0223
26473W        W42947  10.246   0.454   1.211  0.2807 -0.2255 -0.2301
26474W        W42948  16.408   1.250  14.094  0.0999  0.1541  0.3447
26475W        W42949   4.526   5.187   1.016 -0.0614  0.2190  0.1982
26476W        W42950  17.004   0.400   1.248 -0.0317  0.3232 -0.1072
26477W        W42951   0.970  11.901  10.800  0.2107 -0.0229 -0.0755
26478W        W42952  15.287   5.130   0.516 -0.0405 -0.0143 -0.0062
26479W        W42953  12.126   4.008  15.132 -0.2502 -0.3002  0.0482
26480W        W42954   8.855   3.517  11.611  0.3181 -0.0508 -0.0137
26481W        W42955  11.021   7.770   1.284  0.1215 -0.2859 -0.1188
26482W        W42956   2.518   5.438   4.454  0.0534 -0.0173 -0.1574
26483W        W42957   3.205   0.714   1.567  0.1320  0.0528  0.0114
26484W        W42958   8.797  13.648  12.971  0.0197  0.1053  0.0472
26485W        W42959  17.616  14.842  11.159 -0.0606 -0.2705  0.2595
26486W        W42960   8.266  16.486   3.621 -0.1767  0.1257  0.0751
26487W        W42961  10.872   8.216   3.965 -0.0219 -0.0233  0.1143
26488W        W42962  16.979   4.324   2.156  0.1715  0.2353  0.0618
26489W        W42963   8.831  16.826   2.329 -0.2680  0.2339 -0.2423
26490W        W42964   0.855  17.417   5.191  0.1771 -0.1226 -0.0953
26491W        W42965  17.089   1.029   4.580  0.0379 -0.2200 -0.1580
26492W        W42966   3.532   8.743  14.799  0.1750  0.0168 -0.1844
26493W        W42967   0.679  11.661   3.593 -0.0354 -0.0286 -0.1911
26494W        W42968  14.419  10.771  11.965 -0.0402 -0.0230  0.1783
26495W        W42969  18.207   0.240  14.961  0.2285 -0.0293  0.1702
26496W        W42970  14.961   2.842   0.752 -0.0838  0.1998  0.0751
26497W        W42971  17.920  16.511  11.647 -0.0856 -0.0888 -0.3626
26498W        W42972   4.882   2.687   3.847 -0.3343  0.0428 -0.1802
26499W        W42973   4.431  16.106  12.989  0.3436  0.0844  0.3229
26500W        W42974   7.152   4.094   4.538 -0.3050 -0.1129  0.1229
26501W        W42975   7.783  13.902  11.747  0.1966  0.1559  0.1710
26502W        W42976   8.757   3.687  12.231  0.1539  0.1374  0.0034
26503W        W42977   6.005  14.250   3.654  0.1633  0.1240 -0.1289
26504W        W42978  16.093   5.991   2.620  0.1583 -0.0267  0.0070
26505W        W42979   8.578  16.251   3.913  0.0389  0.1278  0.0097
26506W        W42980   9.742  18.274  12.628 -0.3931  0.0680 -0.3150
26507W        W42981  18.919  11.751   4.205 -0.0968  0.3145  0.0041
26508W        W42982   6.956   7.083   3.539  0.0899  0.3317  0.0699
26509W        W42983   8.681  14.925   4.113  0.0566 -0.2755  0.0600
26510W        W42984  15.521   1.112   1.640  0.0004 -0.0350 -0.0901
26511W        W42985   4.282   6.327  12.171 -0.0547  0.0656 -0.3339
26512W        W42986  10.020   6.788  10.535  0.1851 -0.1349  0.0759
26513W        W42987  15.775  12.686   4.143 -0.1492 -0.0905  0.1125
26514W        W42988  18.939  12.064  12.061 -0.2489 -0.2256 -0.0087
26515W        W42989  15.601   4.776   0.224 -0.1527 -0.1236 -0.1812
26516W        W42990  11.734  15.573   5.437  0.0432  0.4072 -0.0590
26517W        W42991   1.821  17.950   4.453  0.1756  0.2217 -0.0992
26518W        W42992  16.075  14.918   0.285 -0.1795 -0.0070 -0.0657
26519W        W42993  12.538  12.926   2.476  0.1248  0.2133  0.0577
26520W        W42994  15.260   7.979  12.356 -0.2986  0.3233  0.0294
26521W        W42995  12.496   0.718   4.231 -0.0942  0.0699 -0.1755
26522W        W42996  17.461   1.865  14.972 -0.3134  0.0740 -0.2683
26523W        W42997   4.578   8.879  11.202 -0.2050  0.2317  0.1086
26524W        W42998   6.384  13.553  11.068  0.2036 -0.2103  0.4949
26525W        W42999  12.968  16.096  13.522  0.0772 -0.2077  0.1716
26526W        W43000   9.587  17.370   1.139  0.1906  0.2544  0.0854
26527W        W43001   6.561  18.090  14.061 -0.1539 -0.2647 -0.1258
26528W        W43002   4.194  18.190   4.882 -0.0695  0.0248  0.2521
26529W        W43003   6.773   5.056  11.161  0.1285  0.2692  0.0690
26530W        W43004   8.128   3.354   4.832  0.1369 -0.2162 -0.1154
26531W        W43005   3.876   0.439   1.107  0.4940  0.1220 -0.5174
26532W        W43006  11.491  17.087  11.875 -0.0593  0.0354  0.0814
26533W        W43007   6.485   3.499  10.597 -0.0448  0.1344 -0.1119
26534W        W43008  12.117  12.744   0.516 -0.0335  0.0161  0.1055
26535W        W43009  15.036   2.399   4.277 -0.4069  0.0781  0.0797
26536W        W43010   9.366   6.770   2.143 -0.0821 -0.1489 -0.0071
26537W        W43011  19.127  15.380   4.965 -0.1139  0.1035  0.0108
26538W        W43012  18.826   4.936  10.551  0.2004  0.0461  0.3831
26539W        W43013  14.320  17.082   1.013 -0.0771  0.5106 -0.0806
26540W        W43014  17.703  12.092   2.969  0.1496  0.1624 -0.0480
26541W        W43015  12.686  15.345  12.635 -0.1508 -0.1278  0.0328
26542W        W43016  11.302   9.720   3.508 -0.0060 -0.1508  0.2287
26543W        W43017   9.301  15.707   3.655 -0.1487  0.0544 -0.0439
26544W        W43018   3.029   2.085  13.273  0.3604 -0.0846 -0.3396
26545W        W43019  18.637   7.805  11.558  0.0648 -0.0156 -0.3895
26546W        W43020   7.876  13.143   1.232  0.1026  0.1387  0.0193
26547W        W43021   0.969  14.756   3.443  0.0791 -0.4397  0.1524
26548W        W43022   8.276  18.285   1.415 -0.2549 -0.0952 -0.0981
26549W        W43023   1.472  10.176   2.383 -0.2150  0.0082  0.0818
26550W        W43024  13.008  16.321   0.354 -0.0076  0.3049 -0.1321
26551W        W43025   4.382  18.951  10.381  0.0274 -0.0114  0.2409
26552W        W43026   7.827   9.639   0.042  0.1063 -0.1298  0.0288
26553W        W43027   8.555   1.993   2.159  0.0220 -0.0798 -0.0541
26554W        W43028  16.267   5.364  10.406  0.0471  0.1545  0.0286
26555W        W43029   2.500   4.431  11.418 -0.0404 -0.1202  0.1190
26556W        W43030  11.137  18.792   3.511  0.1385  0.1301  0.2991
26557W        W43031   6.566   4.420   5.074  0.2492  0.0238  0.1601
26558W        W43032   8.225  18.430   5.459 -0.2743  0.0453 -0.0659
26559W        W43033   1.537   2.563  10.254 -0.0427  0.1011  0.1752
26560W        W43034  11.374   8.959  13.938 -0.2571  0.1899  0.1301
26561W        W43035  13.961   9.539   0.391  0.0606  0.1477 -0.0155
26562W        W43036  18.786   4.616  14.772  0.3243 -0.1601 -0.2371
26563W        W43037  11.858   2.618   0.337 -0.1091 -0.1750 -0.1548
26564W        W43038   6.980  18.857   2.793  0.1579  0.2095 -0.0092
26565W        W43039   7.228   3.600   0.645  0.0745  0.1354 -0.0916
26566W        W43040   0.949   2.113  11.381  0.5143 -0.1379  0.0432
26567W        W43041   4.252  10.631   1.248  0.1279 -0.1812 -0.1906
26568W        W43042   3.306   7.737   3.122 -0.1751  0.0625  0.0491
26569W        W43043  15.023   2.904   2.923  0.0242  0.0637 -0.0496
26570W        W43044   0.198  17.020   3.176  0.1251 -0.1214  0.1216
26571W        W43045  12.022  14.232  14.041  0.3324 -0.1367 -0.0843
26572W        W43046   0.690  14.155  12.810 -0.1498 -0.1411  0.0553
26573W        W43047   1.801  10.032  12.376 -0.0154 -0.2454 -0.0941
26574W        W43048  12.519  14.763  11.784 -0.0622 -0.1998 -0.0758
26575W        W43049   3.438   5.150   3.969 -0.0956 -0.0301  0.3028
26576W        W43050  12.857  14.886  14.395 -0.1473  0.0416 -0.1793
26577W        W43051   4.634   1.414   2.001 -0.0362 -0.1644  0.3286
26578W        W43052  18.353  12.625  14.100 -0.3930  0.0046 -0.0506
26579W        W43053   0.731   2.864   0.771 -0.1993 -0.0851 -0.1352
26580W        W43054   1.982  17.275  10.283 -0.2568 -0.0063  0.2969
26581W        W43055   4.927  12.291  14.487  0.0498  0.0446  0.0642
26582W        W43056   6.391  12.284   2.960  0.1089 -0.0210 -0.1099
26583W        W43057  11.386   1.844   4.916  0.2137  0.1208  0.0729
26584W        W43058   0.990   5.567  13.764  0.0826 -0.1678  0.1358
26585W        W43059  16.307   8.307   4.319  0.2262 -0.0983  0.0883
26586W        W43060  12.640  13.648   1.886 -0.3530 -0.0230 -0.3136
26587W        W43061  17.440  14.561   2.312 -0.0484 -0.0735  0.1985
26588W        W43062  18.249   6.500  13.124 -0.1606  0.0224  0.1981
26589W        W43063  13.904   0.751   2.850 -0.0852 -0.2046  0.3607
26590W        W43064   4.954   6.003  13.408 -0.2133 -0.1737 -0.2882
26591W        W43065   8.284  18.911   2.202  0.0578 -0.2230 -0.0095
26592W        W43066   0.084  14.158   1.735 -0.2490 -0.0942  0.1042
26593W        W43067   9.399  14.598   0.816  0.0417  0.2526  0.4205
26594W        W43068   1.626   8.273   1.809 -0.0298 -0.0017  0.2579
26595W        W43069   0.288   7.053   4.479 -0.2725 -0.1169 -0.0653
26596W        W43070  13.314  15.290   0.739  0.1523  0.2278  0.1343
26597W        W43071   7.227   6.384   3.737 -0.1727  0.1347 -0.1554
26598W        W43072  14.008   3.239  11.175 -0.0307  0.3101  0.1335
26599W        W43073  10.174  17.636   2.516  0.0207  0.3609  0.4621
26600W        W43074   4.177  16.218  12.563 -0.0670  0.0735  0.0820
26601W        W43075   7.325  11.495   1.970  0.0046 -0.2430 -0.1014
26602W        W43076  17.965   1.228  14.360  0.0599 -0.2999 -0.0240
26603W        W43077   7.797  12.000  13.321  0.1928  0.1568 -0.2290
26604W        W43078  10.953   0.055  10.990 -0.1044  0.2114  0.2147
26605W        W43079  10.500  15.665  14.335  0.4129  0.2934 -0.2252
26606W        W43080  13.921   3.357   4.932  0.1776 -0.1535 -0.0414
26607W        W43081   3.039   9.764  13.950 -0.1920 -0.0016 -0.0005
26608W        W43082  13.032  17.259   2.877  0.2302  0.2566 -0.2878
26609W        W43083   8.651   8.109  11.143  0.0766  0.0318 -0.0831
26610W        W43084   1.714   8.312  11.009  0.0109 -0.4834 -0.2799
26611W        W43085   5.926  15.194   3.996  0.2177 -0.1293 -0.2090
26612W        W43086  10.654   6.181   2.351 -0.0402 -0.1024 -0.0528
26613W        W43087   9.828   8.988  14.038  0.0231 -0.1121  0.2566
26614W        W43088   7.319  13.113  12.202 -0.0814 -0.1465  0.1444
26615W        W43089   6.251  11.099   1.049  0.1847  0.0451 -0.1485
26616W        W43090  12.466   2.112   5.353  0.4496  0.2052  0.0183
26617W        W43091  19.110  13.217   2.951 -0.0446  0.0192 -0.1567
26618W        W43092   2.365  15.655  12.558  0.0839  0.1949  0.2808
26619W        W43093  18.854   1.862   2.524 -0.3099  0.3382 -0.0796
26620W        W43094  17.682   9.242   0.338 -0.2380 -0.2900 -0.0141
26621W        W43095   4.237   6.539   0.990  0.1296 -0.1325  0.2393
26622W        W43096  17.481   2.942   5.746 -0.1989 -0.0907 -0.2839
26623W        W43097   7.091  13.264   1.576  0.0927 -0.1957 -0.0409
26624W        W43098  11.219   3.057   3.586 -0.2461  0.1761 -0.0298
26625W        W43099   5.355   3.977   5.317 -0.2419  0.1770  0.2468
26626W        W43100  12.636   1.990  12.669  0.2809  0.2024  0.0172
26627W        W43101   3.859   5.850   3.456 -0.0624  0.1378 -0.0792
26628W        W43102   4.303   6.027  13.373 -0.3041 -0.0385 -0.2077
26629W        W43103   1.551   4.837   4.273 -0.1453  0.0912  0.0145
26630W        W43104   9.323   2.937  14.036 -0.0836  0.2609  0.1032
26631W        W43105  11.070   0.081  14.865 -0.1225  0.0626  0.4750
26632W        W43106  14.574   9.210  12.755 -0.0088  0.1093  0.1561
26633W        W43107   6.533   4.512   2.277  0.0273  0.2814  0.0071
26634W        W43108   4.102  17.952   5.822 -0.0038 -0.3906 -0.1079
26635W        W43109  11.369  12.337  13.367 -0.0026 -0.1014  0.1349
26636W        W43110   8.563  15.395  13.062  0.1416 -0.0060  0.0431
26637W        W43111  18.088   7.024   2.210  0.0824  0.0019 -0.0968
26638W        W43112   9.826   3.517  13.549  0.0638 -0.2808  0.1515
26639W        W43113  16.437   0.108   0.578  0.2591  0.1834  0.5018
26640W        W43114  11.127   2.207  13.182  0.1336  0.1446 -0.0642
26641W        W43115   3.914   4.422  11.904  0.2455  0.1773 -0.2409
26642W        W43116   1.067  11.885   3.279  0.0611  0.0922  0.0465
26643W        W43117  19.022  13.762  10.471  0.1197 -0.0921 -0.0412
26644W        W43118   6.845   5.744   4.144 -0.1116 -0.3213  0.1075
26645W        W43119  16.177  11.189  13.038 -0.1700 -0.0496 -0.0823
26646W        W43120   6.612  13.212   1.496 -0.3473  0.0834  0.0789
26647W        W43121  16.117   5.185  11.772  0.2130 -0.1216  0.0739
26648W        W43122   3.385  15.764  14.328  0.0215  0.2481 -0.1339
26649W        W43123  15.764  15.495  11.837  0.0118  0.2199 -0.0203
26650W        W43124  16.407  10.641  14.417 -0.1599  0.1044 -0.0176
26651W        W43125   3.683   7.224  13.084  0.2092  0.1326  0.3348
26652W        W43126  13.530  16.233  11.347  0.1648 -0.0321 -0.1362
26653W        W43127  13.536   3.375  11.227  0.0056  0.1194  0.1191
26654W        W43128   2.676  16.076  11.837 -0.1310 -0.4108  0.0862
26655W        W43129   0.030   5.149   1.802 -0.0186 -0.0163  0.0545
26656W        W43130  11.900   2.605  12.617  0.1638  0.0167 -0.0519
26657W        W43131   6.517  13.928  12.291 -0.3204  0.0697  0.0411
26658W        W43132  18.931   8.780   1.709 -0.0200 -0.0460  0.1776
26659W        W43133   4.989   5.054   3.956  0.1082  0.0151  0.0837
26660W        W43134  12.271   9.718  13.415 -0.0457  0.2334 -0.0607
26661W        W43135   1.288   4.815   3.311  0.2305  0.0088 -0.3081
26662W        W43136   9.007  17.961  10.855 -0.0303  0.1023 -0.0007
26663W        W43137   5.886   3.612   2.478 -0.2536  0.3393  0.0797
26664W        W43138   0.142   0.587   5.113  0.3454  0.2048 -0.0788
26665W        W43139   6.459   5.431   4.149  0.0356 -0.0875  0.0989
26666W        W43140  12.510  11.441   0.543  0.1836  0.5094  0.4219
26667W        W43141   8.444   1.705   5.515 -0.2242 -0.4059  0.1946
26668W        W43142   6.872  11.342   2.814  0.1922  0.2813 -0.0428
26669W        W43143  12.609  11.255  12.349  0.1895 -0.0647 -0.0843
26670W        W43144  11.937   0.842   2.342  0.2964 -0.0931 -0.2725
26671W        W43145  13.662  13.648   3.231 -0.0123 -0.3899  0.2621
26672W        W43146  17.966  14.886   3.413  0.1689  0.0693 -0.2932
26673W        W43147  11.114   2.306   4.851 -0.1193 -0.1369 -0.2387
26674W        W43148  18.089  17.087  13.802  0.3148  0.1886 -0.0242
26675W        W43149   6.227   0.379   3.868 -0.0397  0.1245 -0.1155
26676W        W43150   6.989   6.548   2.138 -0.0130  0.1386  0.2555
26677W        W43151  12.426  16.982   0.934  0.1248  0.0561 -0.0553
26678W        W43152  11.008   3.922  13.793 -0.3299 -0.0090  0.1845
26679W        W43153   4.852  14.829   3.185  0.1750  0.0402 -0.1161
26680W        W43154  19.013  14.326   3.298  0.0277 -0.0477  0.0060
26681W        W43155  12.063  11.376  11.561  0.0324  0.1346 -0.3768
26682W        W43156   0.645  18.992   4.916  0.2442  0.0549  0.2321
26683W        W43157   7.332   7.384  11.817 -0.0246  0.2167  0.0133
26684W        W43158   3.695  15.952  15.042 -0.0606  0.2783  0.2648
26685W        W43159   1.077   4.666   3.733  0.3112 -0.3203 -0.1471
26686W        W43160   1.697   2.003   0.098 -0.4361  0.1162  0.1821
26687W        W43161  17.136   4.791   0.498 -0.1140  0.0639  0.1431
26688W        W43162   5.442   5.348   0.103  0.1775  0.4284  0.0088
26689W        W43163   1.993  16.698  15.022 -0.5137 -0.1895  0.0062
26690W        W43164  18.929  15.174  12.625  0.0461 -0.1500  0.1485
26691W        W43165  17.668   4.734   4.558 -0.0833 -0.4048 -0.1865
26692W        W43166  18.246   3.826   3.621  0.0555 -0.4105 -0.2186
26693W        W43167   0.814  18.361   0.853  0.3283 -0.0055 -0.3123
26694W        W43168  10.110   3.922  13.883  0.1486  0.1106 -0.0423
26695W        W43169   9.155  18.759   1.596 -0.0103  0.3425  0.3227
26696W        W43170   6.293  17.435   3.227  0.0698  0.2448 -0.2176
26697W        W43171  17.031  11.465   2.872  0.1475 -0.0743 -0.1745
26698W        W43172   7.265   4.899  11.137  0.2317 -0.0025  0.0143
26699W        W43173   4.605   3.647  14.248 -0.0634 -0.1352 -0.0342
26700W        W43174   0.053  13.855  11.575  0.1299  0.3257 -0.2627
26701W        W43175  16.228  18.684   4.636 -0.3893 -0.1066  0.1441
26702W        W43176   7.781  13.549  11.290 -0.4788 -0.2036  0.2743
26703W        W43177  11.371  11.246  12.013 -0.0358  0.0391  0.0890
26704W        W43178   6.727   2.795  11.268 -0.1126 -0.0517  0.0839
26705W        W43179   6.154   3.812  13.021  0.3198 -0.0104 -0.2547
26706W        W43180   4.373   6.985  10.168  0.3986  0.2207  0.1397
26707W        W43181   4.754  13.440  11.884 -0.1283 -0.1519  0.1056
26708W        W43182   4.501  11.077  11.649 -0.2378  0.0480  0.0220
26709W        W43183   9.681   6.733   2.614  0.1661 -0.2005  0.0202
26710W        W43184  13.577   1.280   9.599 -0.1602  0.0632 -0.1662
26711W        W43185   6.025  10.829  11.061  0.2003  0.0432 -0.2023
26712W        W43186  17.931   0.512   2.783  0.0758  0.0363  0.0056
26713W        W43187   7.577   6.115  14.347 -0.0384 -0.0097  0.2813
26714W        W43188  17.318  14.465  13.930  0.1743  0.1582  0.0826
26715W        W43189  11.115  15.319  12.115  0.0262  0.0059 -0.1537
26716W        W43190   1.315  18.935   1.599  0.2398 -0.1345 -0.3079
26717W        W43191  17.333   1.910  14.484  0.0072 -0.0848  0.0289
26718W        W43192  11.732  14.808  11.062 -0.1406  0.0755  0.0253
26719W        W43193   6.658  17.088  11.595 -0.0469 -0.1766 -0.2365
26720W        W43194   2.939   3.266  14.898 -0.0067  0.0062 -0.0220
26721W        W43195   2.685  10.544  10.133 -0.3267 -0.0977 -0.3329
26722W        W43196  16.710  12.099   0.134  0.3308  0.0640 -0.0218
26723W        W43197   8.293   2.667  13.435  0.3264  0.3846 -0.2333
26724W        W43198  16.674   1.339   0.592  0.0818 -0.1761  0.2740
26725W        W43199  17.691  12.510   2.473  0.0364 -0.0477 -0.2503
26726W        W43200  15.598   7.603  14.111 -0.1657 -0.0417 -0.0597
26727W        W43201  12.753   4.887  12.683 -0.0060 -0.0544 -0.0396
26728W        W43202  11.231   9.627   2.854  0.2382  0.4441  0.0877
26729W        W43203   3.658  14.215   0.715 -0.0097 -0.0284 -0.0338
26730W        W43204   8.500   6.002   3.178 -0.2860  0.2096  0.0650
26731W        W43205  10.502  16.441   2.685 -0.1355  0.0056  0.0804
26732W        W43206   3.199   9.014   1.497 -0.1825  0.0520  0.0869
26733W        W43207  14.272   8.222   3.837  0.2658 -0.0297  0.2748
26734W        W43208   3.187   4.389  14.128 -0.0146 -0.1442  0.1361
26735W        W43209   5.690   1.112   2.186  0.1664  0.0111  0.0583
26736W        W43210   7.958  13.475   3.531  0.1903  0.1097  0.0588
26737W        W43211   7.983   5.295  11.178 -0.0010  0.0690  0.0423
26738W        W43212   8.194   3.925   1.124 -0.0106 -0.0483  0.0619
26739W        W43213  16.392   6.505   3.834  0.0455  0.0288  0.0571
26740W        W43214  10.495   9.205   3.621 -0.0673  0.0161 -0.3203
26741W        W43215  11.399   2.468  12.070  0.2025  0.0282  0.0537
26742W        W43216   4.384   7.139  12.765  0.2686  0.0060  0.0592
26743W        W43217   3.290  13.639   5.004  0.1261  0.1090 -0.1502
26744W        W43218  16.790   2.256  12.132 -0.0816  0.0055  0.1432
26745W        W43219   6.346   8.195   3.631 -0.1036 -0.0145 -0.1292
26746W        W43220  14.023  17.247   2.950  0.1398 -0.1806 -0.2940
26747W        W43221   4.991  16.929  12.668 -0.0938  0.2514 -0.1726
26748W        W43222   9.408  17.720  13.216  0.0286  0.0467 -0.1965
26749W        W43223   3.300   8.665   0.528  0.0074 -0.0701 -0.1284
26750W        W43224   8.094   0.403   2.780 -0.3478 -0.2887 -0.4030
26751W        W43225  10.860  10.841   5.070 -0.0361 -0.3764  0.1083
26752W        W43226  12.389  10.234   1.944 -0.1505  0.0731 -0.4015
26753W        W43227   1.770  19.159   3.171 -0.0489 -0.3675  0.0457
26754W        W43228   1.192   0.614   3.883  0.0267  0.0649 -0.1078
26755W        W43229   5.928  17.638   2.886  0.2863  0.1303 -0.2100
26756W        W43230  14.933  16.674   4.344 -0.2336  0.0534 -0.2709
26757W        W43231   5.760  14.881   3.567  0.0616 -0.0056  0.1224
26758W        W43232   1.597  16.740   1.684  0.0842  0.0800  0.1585
26759W        W43233   7.492   3.694  13.686 -0.2694  0.0380 -0.0969
26760W        W43234  14.196   1.965   4.290 -0.3344  0.3870 -0.0737
26761W        W43235  11.123   1.459   3.391 -0.3410  0.0370  0.1389
26762W        W43236  13.169   3.223  13.759  0.0471 -0.1832 -0.0411
26763W        W43237   6.317  11.723  12.540 -0.2411 -0.2014  0.4071
26764W        W43238   7.988  14.816  12.870  0.0221  0.2532 -0.0220
26765W        W43239   4.273   6.219   3.907 -0.1991  0.2293  0.1604
26766W        W43240   4.157  10.875   4.244  0.2333  0.2603  0.1717
26767W        W43241  17.544   4.001   0.829 -0.3580  0.2363  0.0225
26768W        W43242   5.109   8.812  13.679 -0.1188  0.0822  0.0614
26769W        W43243   5.122  16.071  14.640 -0.0077 -0.1678 -0.0437
26770W        W43244  11.299  10.111   4.459  0.1258 -0.1628 -0.0381
26771W        W43245   8.848  18.267  13.619 -0.0771  0.0416 -0.2407
26772W        W43246   8.488  17.934   0.160  0.3691  0.0379  0.2902
26773W        W43247   9.064  12.866  12.309 -0.3203  0.0015  0.1201
26774W        W43248   9.127  14.002  11.984 -0.2412 -0.2285 -0.4666
26775W        W43249  13.393  11.353  14.086  0.0427 -0.0549  0.0644
26776W        W43250  18.212  14.905   2.866 -0.0239 -0.2541 -0.0707
26777W        W43251   2.260   7.698   0.835  0.1049 -0.0116 -0.0438
26778W        W43252   5.735   2.876  13.930  0.1100 -0.1082 -0.1268
26779W        W43253   2.017   2.047   0.750  0.1519  0.0128 -0.0242
26780W        W43254   6.562  14.969   2.937  0.2116  0.3318 -0.0638
26781W        W43255  10.094  12.847   4.499  0.0457 -0.1211  0.0089
26782W        W43256  13.052  15.569  12.337  0.1390  0.1682  0.1509
26783W        W43257   3.178   4.947  11.639 -0.0178  0.1998 -0.1273
26784W        W43258  18.745  15.097   3.953 -0.0820 -0.1272 -0.0032
26785W        W43259   2.435   1.243   3.910 -0.1790  0.1513  0.0403
26786W        W43260  11.889   2.959  14.405 -0.0602 -0.1881 -0.2638
26787W        W43261  17.496  17.334  12.515  0.0076 -0.0342  0.0436
26788W        W43262   9.487  14.785  11.585 -0.0841 -0.2050 -0.0332
26789W        W43263  14.172   8.761  15.079  0.0782 -0.0061  0.0640
26790W        W43264   5.368  14.506   3.755 -0.3301  0.1227 -0.0044
26791W        W43265   6.889  19.090  10.548 -0.1584  0.1109  0.1546
26792W        W43266   3.651  15.843  13.412 -0.2208  0.3741 -0.0769
26793W        W43267  15.785  18.269  13.698 -0.0550 -0.1302 -0.0462
26794W        W43268  12.285  18.717   0.276  0.0861 -0.1578 -0.1786
26795W        W43269  13.492  17.012  14.059 -0.0430 -0.1347  0.2932
26796W        W43270  12.922  10.786  15.126  0.3349 -0.1397 -0.1116
26797W        W43271   3.753   8.019  13.106  0.3170 -0.2902 -0.1113
26798W        W43272  11.730  19.138  12.482 -0.1244  0.1256 -0.2356
26799W        W43273   7.206  17.651  14.744 -0.0196 -0.3810  0.2029
26800W        W43274  11.508   1.750   3.122  0.1347  0.1286  0.0999
26801W        W43275   9.118  14.000   0.418 -0.2497 -0.0235  0.0240
26802W        W43276   8.853   7.302  15.048 -0.1470 -0.3054 -0.2400
26803W        W43277   9.208   3.813  11.816  0.0360 -0.3477 -0.0560
26804W        W43278   0.985  14.711  12.274  0.0049  0.0453 -0.4783
26805W        W43279   9.776   5.272   1.827 -0.0743  0.0512 -0.2735
26806W        W43280  17.792   6.269   0.094 -0.0829  0.1157 -0.1307
26807W        W43281   5.464  17.444   1.670  0.0304  0.0438 -0.0661
26808W        W43282   1.746  18.701  11.810 -0.2280 -0.2598 -0.0962
26809W        W43283  14.862   0.550   0.916  0.2584 -0.0883  0.1478
26810W        W43284   0.622   7.548  13.313  0.0842 -0.1468  0.0997
26811W        W43285  18.381  16.273  12.291 -0.2769  0.2242  0.0137
26812W        W43286  14.651   8.087   2.277  0.0550 -0.2875 -0.0380
26813W        W43287  16.768  16.601   1.728 -0.1785 -0.1195  0.0907
26814W        W43288   2.524  15.959  11.043 -0.1358 -0.0484  0.0383
26815W        W43289  10.207   5.682  12.451 -0.1241  0.0841 -0.1277
26816W        W43290  14.130  10.709   0.668  0.1447  0.0727  0.2973
26817W        W43291   6.755   3.629   0.533  0.1040  0.3112  0.0323
26818W        W43292   3.074   4.169   1.497 -0.2223 -0.2390  0.1621
26819W        W43293   9.439   5.779   4.112  0.1116  0.0453 -0.1844
26820W        W43294   1.057  11.073  12.938  0.0130  0.1201  0.1240
26821W        W43295  15.021   4.730  12.222 -0.0070 -0.3632  0.0881
26822W        W43296   3.468  11.417  14.021 -0.0918 -0.0906  0.0790
26823W        W43297  12.555  12.623   2.846  0.1490 -0.0851 -0.0374
26824W        W43298   5.163  17.932   1.807 -0.0098  0.3305  0.1127
26825W        W43299   8.081   3.801   1.607 -0.2889 -0.0636 -0.2253
26826W        W43300  14.354  18.493  11.665 -0.1175  0.0226  0.0868
26827W        W43301  11.090  16.619  14.866  0.0470 -0.0206 -0.1233
26828W        W43302  14.908   6.237  11.781 -0.1962  0.2809  0.0363
26829W        W43303   9.379   4.456  11.842 -0.1186  0.1995 -0.2698
26830W        W43304  17.363  13.885   1.781  0.1221 -0.3097  0.3141
26831W        W43305   3.935  17.544   2.976 -0.0452  0.1071 -0.1495
26832W        W43306   1.191  15.436   0.009  0.1463 -0.0722 -0.0125
26833W        W43307   2.898  13.160  13.764  0.1174 -0.1998 -0.1168
26834W        W43308   7.887  14.156  10.872 -0.1489 -0.1300 -0.0744
26835W        W43309   8.644  12.598  12.189 -0.3813 -0.0224 -0.0381
26836W        W43310  15.582   3.960  11.773 -0.2865 -0.1882 -0.3755
26837W        W43311  10.678   3.146   5.232  0.1770 -0.0194  0.1390
26838W        W43312   7.363  13.690  11.520 -0.0203  0.0676  0.0509
26839W        W43313   2.382  11.240   4.827  0.4228 -0.1547  0.3181
26840W        W43314  10.210  18.168  13.297 -0.1153  0.2165 -0.1377
26841W        W43315  13.236   3.973  14.110  0.2292 -0.0437  0.0030
26842W        W43316   4.701  13.685  14.330 -0.5810 -0.2796  0.1857
26843W        W43317   7.927  12.336  13.747 -0.3151  0.0959 -0.0396
26844W        W43318   3.140  13.807  13.777  0.3042 -0.3140  0.0904
26845W        W43319  17.725   7.818  10.696 -0.0165 -0.0405 -0.3242
26846W        W43320  13.121  16.868   5.601  0.0483  0.1468  0.1878
26847W        W43321   0.833   0.947  12.140 -0.1718  0.1048 -0.1750
26848W        W43322   3.657   1.940  12.841 -0.2358 -0.0197  0.2793
26849W        W43323   3.937   7.578   4.271 -0.0562  0.0775  0.1592
26850W        W43324  10.121  14.342  10.685 -0.0789  0.0724 -0.0733
26851W        W43325  15.649   0.481  10.138  0.0757 -0.0222 -0.1481
26852W        W43326  10.989  13.446  13.692  0.2202  0.2172  0.1507
26853W        W43327   1.681   6.501  12.061  0.0212 -0.0416  0.0169
26854W        W43328   2.753   9.369   1.667  0.2929 -0.2074 -0.0793
26855W        W43329  17.471  18.685  11.297  0.0512  0.1158 -0.1730
26856W        W43330  13.533  13.307   3.639  0.1466 -0.0528  0.2139
26857W        W43331   4.773  17.615  12.924 -0.2521 -0.2868  0.3297
26858W        W43332   2.949   2.789   2.967 -0.1596 -0.2538 -0.1914
26859W        W43333  11.622  16.840   2.635 -0.0794 -0.2376 -0.1505
26860W        W43334   3.147  11.325   2.581 -0.0029 -0.0425 -0.3108
26861W        W43335   5.752  18.272   3.192 -0.4956  0.0261  0.2892
26862W        W43336   6.278  12.853   2.880  0.0267  0.0085  0.2109
26863W        W43337  15.051   6.534  12.638 -0.0803  0.1370 -0.0440
26864W        W43338   2.551   9.863   0.459  0.2262  0.1363  0.1941
26865W        W43339   1.429  15.915  14.703  0.0137  0.2193  0.1502
26866W        W43340   3.614  10.133  14.331  0.1183 -0.0298  0.0057
26867W        W43341   1.504  12.362  12.155 -0.1412  0.2562  0.0635
26868W        W43342   9.199  17.355  13.799 -0.1681  0.3081 -0.0049
26869W        W43343  17.960   7.954   3.788 -0.2089 -0.1838 -0.0494
26870W        W43344  14.837  12.324  11.632  0.0213  0.1564 -0.3937
26871W        W43345  17.879  11.240   3.325  0.0420  0.0730 -0.1058
26872W        W43346  16.095   9.433   5.436  0.0101  0.0676 -0.0859
26873W        W43347  14.217  13.957   4.624 -0.1108 -0.1932  0.1873
26874W        W43348   3.525   6.877  12.224 -0.3853 -0.0073  0.3119
26875W        W43349   9.791  17.518  13.632  0.0780  0.0134 -0.0508
26876W        W43350   9.228  18.471   2.115  0.1887 -0.0500 -0.1031
26877W        W43351   0.710  12.332   4.280  0.3353 -0.0391  0.0143
26878W        W43352   0.713  18.045   2.810 -0.1554  0.1631  0.0349
26879W        W43353  16.688  14.347   5.519  0.0247 -0.2208  0.1710
26880W        W43354   3.827  14.530  12.836  0.1256  0.0790 -0.1292
26881W        W43355  16.408   9.553  11.372 -0.0060 -0.1244  0.2470
26882W        W43356   6.000  15.243  13.601 -0.1002 -0.1418 -0.2454
26883W        W43357   2.706   8.232  13.974 -0.0716  0.3755  0.1032
26884W        W43358   0.999   5.970   2.383 -0.0205 -0.4927 -0.0526
26885W        W43359   8.403  11.807  12.638  0.1344 -0.1643 -0.0402
26886W        W43360  12.755  17.194  10.194 -0.0119 -0.0676  0.1287
26887W        W43361   9.463  10.501   3.334 -0.0253 -0.0059 -0.1313
26888W        W43362   6.120  15.544  14.926  0.0559  0.2023 -0.0536
26889W        W43363   8.136   3.936   0.593 -0.0722 -0.0281  0.1735
26890W        W43364  15.358  18.591  12.935 -0.0889 -0.1363 -0.0916
26891W        W43365   9.666  11.092   1.101 -0.2944  0.1327  0.0176
26892W        W43366  16.318  17.366  14.304  0.3199 -0.2551 -0.2734
26893W        W43367  18.776   0.721  11.191  0.2240 -0.3319  0.1655
26894W        W43368   5.196   1.178   5.383  0.3690  0.2765  0.2649
26895W        W43369   4.050   2.456   0.674 -0.0309 -0.1766 -0.4586
26896W        W43370  11.023   3.283   1.220  0.2945 -0.3713 -0.1150
26897W        W43371  18.633   4.596  12.150 -0.1619  0.2604 -0.2396
26898W        W43372  18.138  17.604  12.033 -0.0451  0.1060  0.1952
26899W        W43373   7.368   3.159   2.469 -0.1423  0.0976 -0.0889
26900W        W43374  13.184  14.025  13.337  0.2031  0.1695  0.2150
26901W        W43375   3.881  10.345  12.358 -0.2137 -0.0159  0.1150
26902W        W43376  15.939   1.951  10.719 -0.1558  0.2888  0.0259
26903W        W43377   2.231  17.594   3.713 -0.4154  0.0575 -0.2543
26904W        W43378   7.220   3.903  11.056 -0.0457 -0.2133 -0.0512
26905W        W43379   0.098  15.857   1.024  0.1063  0.0924  0.1082
26906W        W43380  12.917  16.196  14.136 -0.3824  0.1614  0.0447
26907W        W43381  14.765  11.493   2.186  0.3076 -0.0818  0.0216
26908W        W43382   0.226   6.783   4.949  0.3826 -0.0541  0.2184
26909W        W43383   9.462   9.304   0.397 -0.0788  0.2836  0.4246
26910W        W43384   8.242  11.510   1.710 -0.0697 -0.0754 -0.1910
26911W        W43385  13.213   8.985  12.538  0.1295 -0.0103  0.0142
26912W        W43386  15.995  16.147   9.396 -0.0372  0.1448 -0.2065
26913W        W43387  17.401   4.572   0.065 -0.0152 -0.2422 -0.0831
26914W        W43388  11.434  18.467   1.560 -0.0507 -0.0954 -0.0571
26915W        W43389   2.431  14.623   3.758 -0.3791 -0.2174 -0.0118
26916W        W43390  17.748   3.250   1.615  0.0811  0.2310 -0.2049
26917W        W43391  12.847   8.496   2.082 -0.2940  0.1997  0.2126
26918W        W43392  13.041   2.765   3.977  0.0081  0.0789  0.2548
26919W        W43393   4.242   2.951   6.158 -0.1068 -0.0571 -0.2936
26920W        W43394   2.389  13.751   1.354 -0.2670 -0.1307 -0.0921
26921W        W43395  11.391  17.098  11.089  0.1106  0.3347  0.2777
26922W        W43396  10.461   9.855  10.515 -0.1008 -0.1043  0.1667
26923W        W43397   6.701   1.597  10.965  0.0562 -0.0804  0.1064
26924W        W43398  16.996  18.153  14.635 -0.1483 -0.0506 -0.0409
26925W        W43399   8.170   0.918   3.049  0.1042  0.0616  0.3562
26926W        W43400  15.733  11.536   0.348  0.1169 -0.4340 -0.1994
26927W        W43401  15.883  10.328  12.841  0.2680 -0.0374 -0.0687
26928W        W43402   6.732   6.610   1.313  0.1879  0.1117  0.0840
26929W        W43403  15.596   2.162   3.320  0.0754  0.4180  0.4342
26930W        W43404   3.075  11.193   3.457 -0.1140 -0.0637  0.0947
26931W        W43405  12.742  18.454   4.121  0.1505  0.1997 -0.0293
26932W        W43406  11.808  13.861   0.371  0.4677 -0.0598  0.1218
26933W        W43407  13.372   1.097   4.490 -0.0055 -0.4253  0.2507
26934W        W43408   7.120   5.720  12.418 -0.4765 -0.1124 -0.0194
26935W        W43409  14.224  17.880   2.681  0.2524  0.0453 -0.2710
26936W        W43410   9.763  14.707   1.917  0.2542  0.1146  0.0512
26937W        W43411  13.109   2.552   9.205  0.2279 -0.0989 -0.0673
26938W        W43412   0.695  17.756   4.140  0.2593 -0.0103 -0.0807
26939W        W43413   7.061   9.996  13.980  0.1445  0.2244  0.0014
26940W        W43414  14.368   2.214  12.457  0.0007 -0.2491  0.2853
26941W        W43415  11.011  11.682  14.275 -0.1598 -0.0432 -0.3154
26942W        W43416   2.238  13.014  12.957 -0.2648  0.0414  0.0717
26943W        W43417  14.664   2.264   2.944 -0.0639  0.0379 -0.1987
26944W        W43418  16.491   8.976  15.049 -0.1675 -0.0178  0.0670
26945W        W43419  16.685  11.960   0.801  0.0893 -0.0467 -0.0836
26946W        W43420  11.278   0.686  10.378 -0.2791  0.0034 -0.2952
26947W        W43421  15.012  18.926   1.756  0.3241 -0.0299 -0.4059
26948W        W43422   1.330  13.125   5.124  0.0075  0.3526 -0.1279
26949W        W43423   2.075   5.412  11.633 -0.1693  0.3967 -0.0741
26950W        W43424   7.372  12.861   1.234 -0.0339 -0.3231  0.2440
26951W        W43425   1.840  14.926  10.985  0.1685 -0.0185 -0.2473
26952W        W43426  16.102  11.636  13.301 -0.2179 -0.0746 -0.0145
26953W        W43427   5.278  16.851  13.673 -0.1355  0.2183  0.0336
26954W        W43428  11.354   9.138   4.593  0.2130 -0.0942  0.2807
26955W        W43429  12.774   7.985   3.595 -0.0751 -0.2043 -0.1797
26956W        W43430   1.588   6.852   4.134 -0.0145  0.2156  0.3768
26957W        W43431  11.222  10.140  14.214  0.0333  0.1546 -0.2516
26958W        W43432  17.057   1.826  12.128  0.0634 -0.3025  0.0305
26959W        W43433  16.956   6.303  11.896 -0.0197 -0.3898  0.0611
26960W        W43434  15.895  18.783   5.283  0.0585 -0.0719  0.0366
26961W        W43435  16.092   1.940  15.147  0.0413 -0.2842 -0.1938
26962W        W43436  14.430  15.451   3.647 -0.0779  0.1957  0.0608
26963W        W43437   8.433   2.305  12.013  0.2674  0.2325  0.2387
26964W        W43438  15.411   7.924  11.157  0.1368  0.0140  0.2319
26965W        W43439   1.124   1.416  11.518 -0.1234 -0.2599  0.1773
26966W        W43440  15.609   3.066   4.051  0.0738  0.0473 -0.0181
26967W        W43441  14.943   2.162  13.442 -0.0713  0.2068 -0.2748
26968W        W43442   9.572  16.589   1.824  0.0030 -0.0750 -0.1803
26969W        W43443   8.126   6.881  10.699  0.1987 -0.1827 -0.2082
26970W        W43444  12.634   6.403   3.429  0.1492  0.0366  0.0144
26971W        W43445  15.070   4.795   0.257  0.0783 -0.0299 -0.0125
26972W        W43446  12.280   3.960   0.878  0.1157 -0.1212  0.2792
26973W        W43447  15.262  15.008  12.254 -0.0348 -0.1397 -0.0587
26974W        W43448  12.760  13.769   5.103  0.0182 -0.2085  0.0460
26975W        W43449   9.542   6.428  12.329 -0.0478 -0.3604 -0.0100
26976W        W43450   6.685   7.581  11.569 -0.1257 -0.1450 -0.0386
26977W        W43451   3.961  11.220   3.869 -0.2754  0.1939 -0.1551
26978W        W43452  10.947   2.257  11.990 -0.0962  0.0698  0.2095
26979W        W43453  10.338  14.967   3.689 -0.2100 -0.0159  0.1477
26980W        W43454   8.665  12.746  10.754  0.1799  0.3833  0.2858
26981W        W43455   8.003  12.077  12.273  0.0111 -0.1187 -0.0078
26982W        W43456   4.069   5.664   1.759  0.0467  0.0794 -0.0076
26983W        W43457   7.402   4.484  13.097  0.1183  0.1042  0.1462
26984W        W43458  13.269   0.283   2.178  0.1554 -0.4332 -0.3292
26985W        W43459  17.005  15.912  13.887  0.1478 -0.0044  0.2313
26986W        W43460   7.627  15.563   4.193  0.0353 -0.0563  0.1065
26987W        W43461  13.467  11.162  11.915  0.1343 -0.0936  0.2268
26988W        W43462   0.062  19.113  11.706  0.0071 -0.0482 -0.3078
26989W        W43463   8.918  12.665   2.563  0.1242 -0.1694  0.0180
26990W        W43464   6.337   2.368  14.481  0.0613  0.1460 -0.0387
26991W        W43465   2.865   1.713   1.982  0.1607  0.1444 -0.2763
26992W        W43466   4.479   6.408  13.660 -0.2084 -0.0766  0.1156
26993W        W43467  16.109   1.368  13.631 -0.0764 -0.2076 -0.0985
26994W        W43468   9.901   3.511  10.110  0.1871  0.0346  0.3095
26995W        W43469  10.843  18.254   2.370 -0.1349 -0.0326 -0.1166
26996W        W43470   9.401   1.428   4.082  0.2232 -0.1085 -0.0151
26997W        W43471   4.280  17.064   2.874 -0.2889 -0.2121 -0.3339
26998W        W43472  17.347  12.587   3.391  0.4344  0.1215 -0.3916
26999W        W43473  11.454  16.111  11.492  0.3149  0.1805  0.0946
27000W        W43474   5.441  18.802  14.555  0.2700 -0.0115 -0.2564
27001W        W43475   5.024  12.990  13.709  0.0626 -0.0805 -0.0711
27002W        W43476   0.847  18.812   3.179  0.0128 -0.2054 -0.0210
27003W        W43477   6.885   6.299   0.818  0.1695 -0.3440  0.3473
27004W        W43478  12.231   9.886  11.216 -0.1450 -0.1297  0.0544
27005W        W43479   9.858   4.925   1.328 -0.2886  0.1661  0.3145
27006W        W43480  14.985  17.513  12.287  0.0820  0.2749  0.0207
27007W        W43481  15.325   5.185   4.998 -0.2872  0.0824  0.1115
27008W        W43482  14.707   3.555   2.364 -0.1099 -0.1781 -0.3685
27009W        W43483   7.728   2.080   4.485  0.1343  0.1724  0.0046
27010W        W43484  17.021  12.114   1.941 -0.0591 -0.3991  0.0050
27011W        W43485   4.673  14.716  10.606  0.0952  0.0794 -0.1560
27012W        W43486   2.387   3.942  11.996  0.1729  0.1400  0.0872
27013W        W43487   9.751   8.737  14.972 -0.0211 -0.0804  0.2100
27014W        W43488   4.298  10.110   4.686  0.2136 -0.0526 -0.0202
27015W        W43489   0.117   2.038   2.341  0.0398 -0.0622 -0.0547
27016W        W43490   6.358  10.596   2.654 -0.1984 -0.0074 -0.1227
27017W        W43491   5.446  11.965   3.505  0.1603  0.2863 -0.0849
27018W        W43492  15.168   3.443   5.183 -0.1280  0.0809 -0.0079
27019W        W43493  18.530   6.657   2.519 -0.0581 -0.0479  0.0332
27020W        W43494  18.769  10.959  14.560 -0.0497 -0.0022  0.0255
27021W        W43495  13.546  18.738  11.608  0.1313  0.1497  0.0923
27022W        W43496  17.718  17.670   0.059  0.1558  0.0167  0.3028
27023W        W43497   2.001   8.128  13.515 -0.1249 -0.3875  0.2638
27024W        W43498  10.470  12.423  14.931 -0.0396  0.0696  0.2844
27025W        W43499   5.008  10.201  14.196  0.0621  0.0923 -0.1598
27026W        W43500  14.047   3.589  13.562  0.0786  0.1645 -0.2869
27027W        W43501  18.798   0.570  13.003  0.1660 -0.0914  0.0484
27028W        W43502  15.166   9.238   1.733  0.0411  0.1102  0.1109
27029W        W43503  14.956   1.854   2.087  0.2010  0.1666  0.0520
27030W        W43504   9.770  15.563  11.992  0.1728 -0.0569  0.2881
27031W        W43505   5.796   8.314  14.802 -0.1461 -0.0715 -0.0509
27032W        W43506   6.753   0.955   5.296 -0.1135  0.1432  0.1415
27033W        W43507   6.889  12.816  12.469  0.0471  0.0202 -0.0359
27034W        W43508  18.793  12.479  13.534 -0.2259 -0.0089 -0.1173
27035W        W43509   1.882   7.740   5.261 -0.2561 -0.0644 -0.0496
27036W        W43510  13.195   5.567   3.814 -0.0820  0.0080 -0.3131
27037W        W43511   4.753   4.799  12.730  0.0059  0.1627 -0.2011
27038W        W43512  14.350  18.654   1.144 -0.0928  0.1080  0.0759
27039W        W43513   8.324   2.308   3.045  0.0530  0.0490  0.4002
27040W        W43514   6.909  13.071   4.459 -0.1415  0.3027 -0.1118
27041W        W43515  17.039  11.230  13.188 -0.1332 -0.1818 -0.2378
27042W        W43516   4.344   0.164   1.417 -0.3045 -0.1299  0.1623
27043W        W43517  14.531   2.430  12.818  0.0402  0.1064  0.0361
27044W        W43518   1.956   1.708   4.475 -0.2820 -0.2094  0.0088
27045W        W43519   8.056   0.299  11.118 -0.2653 -0.1123 -0.0546
27046W        W43520   8.643   4.185   9.990  0.1104  0.0776 -0.3347
27047W        W43521   1.962   6.836   0.982 -0.0839  0.0882 -0.1154
27048W        W43522   7.354   1.124  14.258 -0.0452 -0.2317 -0.2815
27049W        W43523  12.634  12.936  15.115 -0.2213 -0.0510 -0.2241
27050W        W43524  10.363  14.773  11.861 -0.0281  0.0559  0.2544
27051W        W43525   0.631  18.524  10.602 -0.0355  0.3222 -0.2010
27052W        W43526   8.744   5.931  12.146 -0.1044  0.1385  0.2727
27053W        W43527   8.016   0.062  14.016  0.0473  0.0362  0.3796
27054W        W43528   1.040   1.630   4.374  0.0275  0.0352 -0.1598
27055W        W43529   1.778  10.342   3.066 -0.0437  0.1683 -0.2440
27056W        W43530   8.451   3.124  13.402 -0.2534  0.0274 -0.1010
27057W        W43531   2.679  19.109   4.730  0.0383  0.2510  0.0157
27058W        W43532   6.879   3.456   1.705  0.1737  0.0077 -0.1801
27059W        W43533  17.966   5.380  11.269 -0.1403 -0.1143  0.1289
27060W        W43534   2.096   1.570   2.812 -0.2932 -0.1325 -0.0419
27061W        W43535   7.216   6.751  10.735  0.0516 -0.1070  0.0511
27062W        W43536   2.176  11.027  14.016  0.1970 -0.1965 -0.0933
27063W        W43537   6.994  16.143  13.821  0.0084  0.0226 -0.0742
27064W        W43538  14.435  15.403  11.488  0.1589  0.1242 -0.0464
27065W        W43539   0.952   0.606  11.224 -0.1366  0.4928  0.0372
27066W        W43540  13.520   9.594  13.916  0.1197  0.1531 -0.1673
27067W        W43541  15.890  11.445  10.648  0.0997 -0.0405  0.3960
27068W        W43542   8.193  12.780   3.399  0.0506  0.0826 -0.3103
27069W        W43543  13.268   9.508  13.466  0.0226 -0.0314 -0.1162
27070W        W43544   2.542   4.082   5.732 -0.3671  0.1303  0.0497
27071W        W43545  16.465  16.504  11.700  0.1678  0.2792  0.1981
27072W        W43546  11.455  18.002   5.159 -0.0734 -0.4333  0.1547
27073W        W43547  11.973  13.380   1.662  0.0375 -0.1084  0.0098
27074W        W43548  18.940   4.744   3.165 -0.0431  0.0767  0.1017
27075W        W43549  14.365  11.353  14.345  0.0240  0.2551 -0.0803
27076W        W43550   4.614  11.490   0.180  0.0389 -0.2070  0.0203
27077W        W43551   7.629   7.088  12.737  0.1038 -0.0566  0.2301
27078W        W43552  16.720   6.003  10.891 -0.0225  0.0954  0.1174
27079W        W43553   6.973   8.157  12.802 -0.0442 -0.1990  0.2075
27080W        W43554   7.650   5.277  14.584 -0.6122 -0.0010 -0.0003
27081W        W43555  19.095  13.493   3.602 -0.0101 -0.0988  0.0150
27082W        W43556  11.066  17.109  14.979 -0.1521 -0.2054 -0.1700
27083W        W43557  17.654  14.685   4.303  0.1848 -0.0380 -0.0979
27084W        W43558   9.667   9.953   2.030  0.0798  0.1378  0.1527
27085W        W43559  16.687  10.196   1.871  0.2957  0.2267 -0.1301
27086W        W43560   7.291   7.844   3.800  0.1746 -0.1876 -0.0118
27087W        W43561   0.516  18.814   0.977  0.1391 -0.0220 -0.1712
27088W        W43562   2.118   5.946  11.589  0.0697 -0.0476 -0.5726
27089W        W43563   6.317   3.656  12.595  0.3176 -0.0104 -0.2525
27090W        W43564  12.808   1.121   3.875  0.0406 -0.1302 -0.1859
27091W        W43565   0.508  18.356   0.009 -0.0934 -0.2529  0.0612
27092W        W43566  17.761  15.795  11.193 -0.0885  0.2550  0.2998
27093W        W43567   6.495  16.698   2.848 -0.0138  0.2126  0.1654
27094W        W43568   6.217  13.028  13.552  0.0434 -0.1840  0.2225
27095W        W43569   9.944   5.990   4.242 -0.0393  0.0054 -0.0342
27096W        W43570   3.232  12.267  11.589  0.0162  0.1632  0.0013
27097W        W43571   6.957  15.740   2.066 -0.1982 -0.0164 -0.1351
27098W        W43572  12.405  18.228  14.714 -0.0254 -0.1901 -0.0346
27099W        W43573  15.373   3.719   1.537 -0.3001  0.0598 -0.0640
27100W        W43574  16.858  13.734   5.033  0.2101 -0.1811  0.0022
27101W        W43575  13.743   0.413  10.668 -0.0569  0.0223 -0.0169
27102W        W43576   1.903   6.318   2.845 -0.0632 -0.2062 -0.0759
27103W        W43577   0.285   3.737   3.920 -0.1815  0.1919 -0.0026
27104W        W43578   9.030  15.451   3.284 -0.4198  0.1941  0.0492
27105W        W43579   9.965  15.323   4.666  0.0383 -0.0920 -0.2620
27106W        W43580  18.460   4.306  11.818  0.2797 -0.0318  0.0118
27107W        W43581  13.321   0.459   3.709 -0.1495 -0.1360 -0.1790
27108W        W43582  11.250   0.917   6.064 -0.1994  0.0442 -0.0943
27109W        W43583   7.459   5.674  14.855 -0.5095 -0.4680 -0.1987
27110W        W43584   9.457   0.382  10.120  0.1067 -0.0649  0.1041
27111W        W43585  17.382   4.950   5.178  0.2332  0.0343 -0.0763
27112W        W43586   6.017   1.316   4.591 -0.3729 -0.0425 -0.1120
27113W        W43587   5.655   7.109  10.898  0.0980 -0.0257  0.0142
27114W        W43588  11.526   1.042  11.984 -0.0406  0.0814  0.1683
27115W        W43589   5.586  17.913   5.088 -0.1695 -0.0657 -0.5735
27116W        W43590   2.358   7.538   4.833  0.2848 -0.1030  0.0330
27117W        W43591  11.440   2.300   3.120 -0.4939 -0.2362  0.1800
27118W        W43592   6.198  12.526   1.928 -0.3543  0.2833  0.1485
27119W        W43593   7.111   7.361  13.445 -0.2365  0.1180 -0.2500
27120W        W43594   5.903  12.487  14.061  0.1378 -0.3802  0.1958
27121W        W43595   5.902  14.129   4.871  0.0026  0.1360 -0.0990
27122W        W43596  11.002  10.522   2.203 -0.3244  0.0361 -0.1285
27123W        W43597  17.563  17.156   1.869 -0.1821 -0.3803 -0.0119
27124W        W43598  16.314   7.018   4.060  0.2300  0.0042  0.0452
27125W        W43599  18.769   8.719   4.678 -0.0502 -0.1998  0.0468
27126W        W43600   0.483   6.987  14.652 -0.1431  0.0620 -0.0642
27127W        W43601  14.041  11.994   0.954 -0.0341  0.4758 -0.3471
27128W        W43602   1.489   4.078   0.525  0.0338 -0.1175 -0.1212
27129W        W43603   2.453   7.962   9.845  0.1650  0.0771  0.0847
27130W        W43604   8.676  10.866   0.642  0.0782 -0.0315  0.2784
27131W        W43605   3.774   7.686  13.958  0.0868  0.3231  0.0995
27132W        W43606  11.147   1.476  10.622 -0.4017 -0.0927  0.1942
27133W        W43607  17.790  13.752   2.956 -0.0766  0.1714  0.5432
27134W        W43608  16.264  18.799   1.749  0.0035  0.0558  0.1948
27135W        W43609  16.848  15.094  10.858  0.0030 -0.3031 -0.1215
27136W        W43610   2.241   2.045   2.989  0.1061 -0.2580  0.2113
27137W        W43611   2.773  15.065  15.051  0.0870 -0.0113  0.0797
27138W        W43612   1.214   3.790  13.303  0.0153  0.0283  0.1509
27139W        W43613  14.465   1.271  11.113 -0.0352 -0.0410  0.0829
27140W        W43614   2.754  16.493  12.545  0.2892 -0.0648  0.1207
27141W        W43615   0.292   7.070   1.864  0.0275  0.0150  0.1017
27142W        W43616  11.647  15.193   0.502 -0.1120 -0.3746  0.0648
27143W        W43617   3.664  14.618   0.403 -0.1875 -0.0747 -0.1056
27144W        W43618  16.482  18.198   1.308 -0.2198  0.1910 -0.0872
27145W        W43619   2.453  15.920   0.886  0.2955  0.2891  0.0190
27146W        W43620   1.599  10.764   1.892 -0.3194  0.0563  0.2458
27147W        W43621   7.850  11.303   2.017  0.5506 -0.2837 -0.1160
27148W        W43622   6.921   8.621  11.532  0.0213 -0.2519 -0.1370
27149W        W43623   5.370   3.360   3.859 -0.0930 -0.0845  0.0315
27150W        W43624   2.924  18.678   0.402 -0.0578 -0.1462  0.2550
27151W        W43625  12.338  19.117   2.024  0.0432  0.1559 -0.0085
27152W        W43626   8.242   9.569   2.788  0.1459 -0.2936  0.0482
27153W        W43627   8.439   9.354   2.143  0.0327  0.0179  0.4484
27154W        W43628   9.393   2.568   2.626 -0.0142 -0.2237  0.2297
27155W        W43629  10.895  10.114   0.451  0.1518 -0.0516  0.2363
27156W        W43630  10.073  13.167   2.745 -0.0892  0.0055 -0.2845
27157W        W43631   4.391  11.536  10.882  0.1191  0.2023 -0.2456
27158W        W43632   3.556   0.710  12.134  0.0943 -0.1446  0.1869
27159W        W43633  11.102   6.013  14.558 -0.1879 -0.0093 -0.1605
27160W        W43634   4.007   3.059   1.818 -0.0357 -0.1154  0.1166
27161W        W43635   6.801  16.714  12.655 -0.2292  0.4300  0.0623
27162W        W43636  13.845  16.692  11.054 -0.1973 -0.0121 -0.1676
27163W        W43637   3.010  10.990  11.291  0.0536 -0.2911  0.1068
27164W        W43638   1.599   1.654  14.897  0.0246 -0.0764  0.3484
27165W        W43639  12.915   5.993   3.187  0.1496 -0.1968  0.3703
27166W        W43640   5.394   6.176   1.512 -0.3014  0.0285 -0.0839
27167W        W43641   2.639  10.337   3.265  0.1986 -0.0466  0.0335
27168W        W43642   3.379   7.975   0.869  0.2170  0.2713  0.2989
27169W        W43643  13.967   2.037   2.139 -0.1848 -0.1235  0.2296
27170W        W43644  11.430  18.698   4.474 -0.0496  0.2526  0.0629
27171W        W43645  12.403   6.038  11.927  0.1615  0.1925  0.0451
27172W        W43646  11.163  13.061   3.143 -0.3012 -0.0179  0.3581
27173W        W43647  15.512  11.140  10.532 -0.0051  0.0882  0.2748
27174W        W43648   7.508   2.282   1.344  0.1044  0.1117  0.0432
27175W        W43649  17.476   3.134   1.166  0.1917 -0.0825  0.0778
27176W        W43650   7.915  11.803   4.797  0.1026  0.1839  0.1609
27177W        W43651   1.452  14.865   3.672 -0.0611 -0.3557  0.1526
27178W        W43652   1.289   2.973   1.066 -0.0862 -0.0009  0.1620
27179W        W43653  15.367   7.949   9.649 -0.1245  0.0069  0.1665
27180W        W43654   7.990   1.552   1.379  0.0484 -0.2291  0.3561
27181W        W43655  13.256   1.727  11.767  0.0602  0.0378  0.0370
27182W        W43656   1.461   4.015   3.722  0.0053  0.1205  0.1667
27183W        W43657  10.501   7.766  14.697 -0.2478 -0.2895  0.0448
27184W        W43658   8.662  17.181  15.075 -0.3143  0.0999 -0.0791
27185W        W43659  10.383  15.279   2.817 -0.2632 -0.0314  0.1049
27186W        W43660   2.396  10.894   1.077  0.1207 -0.0300 -0.2344
27187W        W43661  16.824   5.932   4.704  0.0573 -0.0458  0.3389
27188W        W43662  11.234   6.364  13.422 -0.0497  0.4686  0.0472
27189W        W43663   1.737  17.079   4.803 -0.0984 -0.1782  0.1416
27190W        W43664   3.050  15.273  14.528 -0.2776  0.0622 -0.1021
27191W        W43665   7.315  13.590  13.731 -0.0865  0.4192 -0.1444
27192W        W43666   3.625   4.750   2.170 -0.1397  0.1072 -0.1660
27193W        W43667  11.982  16.506   3.055  0.0842  0.1462  0.1584
27194W        W43668   7.682   2.234  13.107 -0.1195 -0.0846 -0.0640
27195W        W43669   1.939   3.930   2.267 -0.4535 -0.1062 -0.1265
27196W        W43670  11.944  16.989   1.887 -0.0129  0.0981  0.3043
27197W        W43671   9.638  16.481   1.351 -0.0369  0.3259  0.0850
27198W        W43672   6.688   2.418   3.295 -0.0464 -0.1477  0.3853
27199W        W43673   6.934  17.029   1.417 -0.0259 -0.1990  0.1116
27200W        W43674  16.821   4.244  14.598  0.1181  0.2705  0.1124
27201W        W43675   4.596  17.781   2.695  0.1793 -0.1095  0.2334
27202W        W43676   3.599   7.139   3.385  0.0090  0.2725 -0.0349
27203W        W43677   6.251   9.147  11.826 -0.0044  0.1260 -0.0579
27204W        W43678   3.080  10.028  12.667  0.0190  0.0005  0.1363
27205W        W43679  10.255   3.958   2.911 -0.0319  0.0924  0.1931
27206W        W43680   6.491  15.759  12.946  0.0738  0.1639 -0.2341
27207W        W43681   2.086   7.464  15.121  0.0474  0.2631  0.2710
27208W        W43682  13.262  14.822   3.896 -0.1238 -0.0659  0.1749
27209W        W43683  12.980   6.537  14.245 -0.0281  0.0219 -0.0497
27210W        W43684   1.403  10.980  10.625 -0.1319 -0.2933  0.2080
27211W        W43685   4.062   5.611   4.717  0.3028 -0.3520  0.1570
27212W        W43686   9.863  15.853  14.397 -0.3073 -0.0743 -0.1119
27213W        W43687   9.609  13.035  13.462  0.1680 -0.0239 -0.3597
27214W        W43688   7.461   5.363   1.897 -0.2047  0.1026 -0.2418
27215W        W43689   4.512   8.719  12.876 -0.0731  0.1114  0.0971
27216W        W43690   7.567   7.381  13.238  0.0872  0.2335 -0.1048
27217W        W43691  16.427   0.764   1.816  0.0521 -0.2021  0.0529
27218W        W43692   7.840   7.321  14.076  0.1350 -0.1859 -0.0393
27219W        W43693   4.692   6.025   3.813 -0.0555 -0.1047  0.1181
27220W        W43694   8.534  10.405  13.605  0.1229  0.1838 -0.0231
27221W        W43695  11.503   8.824   4.944 -0.2559 -0.0306 -0.0085
27222W        W43696   3.954  16.506   1.591 -0.0046  0.2271 -0.2158
27223W        W43697   7.538  17.803  11.190  0.0214  0.0970 -0.1023
27224W        W43698   9.649  14.177   3.738 -0.0174  0.1307 -0.0707
27225W        W43699  18.234   9.842  14.500 -0.2317 -0.0154 -0.0655
27226W        W43700  15.166   0.043   9.933  0.1765 -0.2058  0.1018
27227W        W43701  14.242   9.013  13.811 -0.1736  0.3521  0.0406
27228W        W43702  18.039   8.111  13.861 -0.3815  0.0931  0.2087
27229W        W43703   6.162   6.545  11.069  0.2151 -0.2948  0.1677
27230W        W43704   3.852  11.844  10.163 -0.0881 -0.0342  0.2346
27231W        W43705   4.530  11.833  11.777 -0.0535 -0.0097  0.1317
27232W        W43706   4.242  15.056  11.350 -0.0448 -0.1332 -0.3178
27233W        W43707  18.538  14.432   3.455  0.3131 -0.0840 -0.0164
27234W        W43708  16.229   0.726   1.286 -0.0386 -0.2359  0.0010
27235W        W43709   7.264   5.075   0.466  0.0571 -0.1260  0.2625
27236W        W43710   7.752   6.023   2.408  0.1836  0.2909 -0.1356
27237W        W43711  13.140  11.224  14.988  0.2261  0.0081 -0.1701
27238W        W43712  10.499   7.438   0.580 -0.0438 -0.0368 -0.2049
27239W        W43713   1.746   9.895   2.713  0.1672  0.0586 -0.3291
27240W        W43714   9.171  12.359   0.392 -0.0044 -0.0402 -0.0704
27241W        W43715   1.178  14.319  12.823  0.1037 -0.2276  0.0468
27242W        W43716   4.667   0.473   2.953 -0.0437 -0.2643  0.3279
27243W        W43717  16.693   0.648   4.321  0.0248  0.1275  0.0066
27244W        W43718  11.650   3.365  11.762  0.0005  0.0589  0.2661
27245W        W43719  12.018   0.999   4.811 -0.0456 -0.0069  0.0473
27246W        W43720   1.404   0.589   2.333 -0.3916  0.0257 -0.1614
27247W        W43721  14.383   6.888  13.882  0.2808  0.1720  0.0913
27248W        W43722  18.261   5.409   1.435  0.0314  0.2220  0.2334
27249W        W43723   0.263  15.344  14.929 -0.0739 -0.0935 -0.0374
27250W        W43724   8.227  10.925  14.535 -0.0096  0.0076  0.0391
27251W        W43725  10.045  11.129  12.338 -0.0856 -0.2632  0.0027
27252W        W43726  10.517   5.223   3.314 -0.0757  0.2140  0.1095
27253W        W43727  10.560   5.504  13.345 -0.1580  0.3156 -0.0326
27254W        W43728  17.477  13.816  12.382  0.3691  0.0367 -0.2842
27255W        W43729   0.210  12.241   3.234 -0.0098 -0.2915 -0.0474
27256W        W43730   1.102  14.631   2.427  0.0577  0.1367  0.1972
27257W        W43731   3.975  18.358   4.272  0.0535  0.1784 -0.2522
27258W        W43732  16.317   3.113   4.808 -0.2164  0.1836 -0.0750
27259W        W43733   1.940   8.657   1.619  0.5274  0.3268 -0.1783
27260W        W43734  17.271  13.126   3.553 -0.2796  0.2405 -0.2566
27261W        W43735  11.020   1.745  11.014  0.3010 -0.3490 -0.3015
27262W        W43736  16.943  16.899  11.989 -0.0922  0.0631  0.1265
27263W        W43737  12.399  17.914   5.723 -0.0811  0.0704  0.2639
27264W        W43738   1.274   8.961  11.550  0.2769  0.2921 -0.0036
27265W        W43739  15.699   6.017  13.706  0.3174  0.1918  0.0788
27266W        W43740   9.408   3.420  12.702  0.2207  0.0842 -0.1048
27267W        W43741   2.812   0.489   4.197 -0.2709  0.1599 -0.0295
27268W        W43742   1.243   2.474  11.112  0.0893 -0.2614  0.1601
27269W        W43743   2.475   6.088  11.170 -0.0305  0.0546 -0.0963
27270W        W43744  17.071  14.065  10.630 -0.1598 -0.0377 -0.1031
27271W        W43745  11.629   3.542   3.866 -0.3043  0.0237 -0.0369
27272W        W43746  10.723  12.500   2.552  0.3448  0.2341 -0.5520
27273W        W43747  12.127  16.153   3.936 -0.1075 -0.0893  0.0963
27274W        W43748   0.882   4.184  11.734 -0.4484 -0.1507  0.2617
27275W        W43749   1.067  12.380  11.739  0.1407 -0.1013 -0.0719
27276W        W43750   2.954   3.575  14.566 -0.2099  0.1200  0.1611
27277W        W43751   9.659   2.522  13.956 -0.1368  0.1766 -0.2415
27278W        W43752  13.921   8.284   1.192  0.0160 -0.1361 -0.0983
27279W        W43753   1.982   1.981  14.796  0.2128 -0.3056  0.1826
27280W        W43754  13.338  13.047  14.315  0.1022 -0.0582 -0.3529
27281W        W43755   9.161  14.882  15.017 -0.1316  0.2395 -0.2279
27282W        W43756   2.556  12.937   9.915  0.1107  0.0904  0.0482
27283W        W43757  17.515  12.864  11.692  0.3356  0.2253  0.0560
27284W        W43758  14.541   1.429   4.225  0.3745 -0.2511  0.2563
27285W        W43759   8.998  16.028   2.205  0.2320 -0.2059  0.0373
27286W        W43760   2.818   3.937   3.257 -0.0868  0.1466  0.4774
27287W        W43761  16.899  16.009   3.655  0.1836 -0.2212 -0.1840
27288W        W43762   6.943  15.061   2.662 -0.1678 -0.2189  0.3454
27289W        W43763   7.966  15.406   0.544 -0.2502 -0.2984 -0.0486
27290W        W43764  10.191   1.665   0.008  0.1419  0.0226 -0.0874
27291W        W43765  13.624  17.927  11.034  0.1182  0.0598  0.4395
27292W        W43766  18.617   7.014   1.484  0.1758 -0.2176  0.0236
27293W        W43767  16.257  15.674  11.020 -0.1267 -0.2855  0.1631
27294W        W43768  17.774   5.412   2.641  0.1528  0.2345  0.1014
27295W        W43769   6.697   5.085  12.457 -0.2449  0.1267 -0.0499
27296W        W43770   3.752  18.335   0.373 -0.3748  0.1524 -0.1956
27297W        W43771  16.612   0.761  14.646  0.2462 -0.0346 -0.1209
27298W        W43772   0.917  11.528  14.881  0.0349  0.3149  0.0346
27299W        W43773   3.841  11.370   2.906  0.0005 -0.4092 -0.1374
27300W        W43774  18.990   8.238   4.760  0.1294  0.0083 -0.2070
27301W        W43775  13.937  12.162  14.035 -0.2161  0.4907 -0.2348
27302W        W43776  16.231   4.605   9.958 -0.0763 -0.1554  0.2775
27303W        W43777   7.385  10.847  10.647 -0.1565  0.2153  0.0316
27304W        W43778   1.830   1.994   2.730 -0.1760  0.0565  0.0706
27305W        W43779  17.028   2.349   0.657 -0.1137  0.0098 -0.0868
27306W        W43780   1.373  12.201   1.063  0.0869 -0.2521  0.2338
27307W        W43781   2.995  19.008   2.696  0.0466 -0.1785  0.1346
27308W        W43782  15.028   4.704   3.408 -0.1756 -0.3358 -0.0707
27309W        W43783  18.944   2.661   4.938 -0.3754  0.0784  0.3336
27310W        W43784  14.994   5.653  10.958  0.1271 -0.1947  0.1337
27311W        W43785   0.744   8.290  15.128  0.2294  0.3032  0.0713
27312W        W43786  18.608  14.543  10.597  0.5448 -0.0601  0.1277
27313W        W43787  10.245   5.227  12.671  0.0277  0.0933 -0.3398
27314W        W43788  11.402  11.280   2.808 -0.0614 -0.1264 -0.0986
27315W        W43789   5.684   7.583  12.204  0.1642 -0.1786 -0.1662
27316W        W43790   5.188  12.181   2.311 -0.0247  0.0960  0.2617
27317W        W43791  17.217  17.817  12.025 -0.1765 -0.0158 -0.2353
27318W        W43792  13.892  15.055   3.027  0.0205 -0.2301 -0.2198
27319W        W43793   8.878  13.809   4.102 -0.1332  0.2171  0.1021
27320W        W43794  18.247  13.438   2.382 -0.0776 -0.2592  0.2844
27321W        W43795   3.004   1.513  14.981  0.1553 -0.1331 -0.0589
27322W        W43796  18.089   1.369  13.842  0.5344  0.0606 -0.0129
27323W        W43797  11.664   9.943  12.766 -0.0896 -0.0000 -0.1287
27324W        W43798   6.304  18.376   1.523  0.1330 -0.0067  0.2062
27325W        W43799   7.431   4.035  13.344 -0.0942  0.0333 -0.1617
27326W        W43800  16.203   6.879   3.518 -0.2643 -0.1003  0.1690
27327W        W43801   0.552  18.529   4.728 -0.2480 -0.3748 -0.4143
27328W        W43802  18.059  18.730  13.370 -0.0702 -0.2557 -0.3472
27329W        W43803  11.365  17.911   0.447 -0.0537  0.2471  0.2961
27330W        W43804   1.626   4.587   1.098 -0.0570 -0.1207 -0.4861
27331W        W43805  18.767  11.093   2.915  0.2297 -0.2704 -0.0540
27332W        W43806  17.600  16.116   1.240  0.1877  0.1063 -0.1009
27333W        W43807   7.490  17.411   5.078  0.1929 -0.2845  0.2094
27334W        W43808   4.827   5.203   0.061 -0.0321 -0.1181 -0.0297
27335W        W43809  13.729   5.593   1.119 -0.1547  0.0064 -0.0944
27336W        W43810  11.035   8.760  13.077  0.1646 -0.2538  0.2673
27337W        W43811  10.140  17.841  12.663 -0.1205  0.1445 -0.0458
27338W        W43812  12.193   9.547   5.373 -0.0304  0.2308  0.0514
27339W        W43813   0.815   1.537   3.088  0.3930 -0.0457 -0.1095
27340W        W43814  16.512  11.483  12.384 -0.1299 -0.0853  0.3814
27341W        W43815  14.385   6.553  10.929  0.1085  0.0878 -0.1350
27342W        W43816  11.981  12.526   1.440 -0.3225 -0.6392 -0.2035
27343W        W43817  17.391   8.906   4.792  0.2255  0.1376  0.2153
27344W        W43818  12.103   2.228  11.183  0.1961 -0.3168 -0.0393
27345W        W43819  11.853   8.225   0.929 -0.1195  0.0343 -0.1594
27346W        W43820   2.743  14.202   3.830 -0.0970  0.2169  0.0710
27347W        W43821   6.401   3.954   3.614  0.0892 -0.0661 -0.2063
27348W        W43822   5.804   0.064  11.751  0.0238 -0.1374  0.0142
27349W        W43823  13.851  13.160   4.117 -0.2459  0.0564 -0.1360
27350W        W43824   9.432  15.572  15.019  0.2322  0.1017  0.0673
27351W        W43825   4.471  11.067   1.106  0.0706  0.2454 -0.0069
27352W        W43826   4.255   5.149   2.962 -0.3066  0.1308 -0.0919
27353W        W43827  19.011   5.862  15.040  0.0273 -0.2713  0.0582
27354W        W43828  15.985   0.424   4.450 -0.5168 -0.4257  0.0630
27355W        W43829   7.789  19.099  10.787 -0.0589 -0.1440  0.1313
27356W        W43830  18.563  13.712   0.509  0.0246 -0.3544  0.1387
27357W        W43831  12.999   1.931  13.433 -0.2147  0.0040 -0.1377
27358W        W43832   0.128   9.669  11.067  0.3852  0.1803  0.0334
27359W        W43833  13.826   6.573   4.268 -0.0883  0.1041  0.3774
27360W        W43834   6.368  11.125   2.705 -0.3310  0.0820 -0.0026
27361W        W43835  12.487   1.394   4.156 -0.1979  0.4007  0.3785
27362W        W43836  14.639   3.937  10.727  0.3570  0.0337 -0.1937
27363W        W43837   3.069   2.824   3.440 -0.0074  0.0579 -0.1840
27364W        W43838   1.354   0.315   3.320 -0.1393  0.0182 -0.0268
27365W        W43839  15.373  14.481   0.675 -0.3730 -0.3667 -0.0369
27366W        W43840   6.199   8.659  12.866  0.4399 -0.1812 -0.3846
27367W        W43841  14.357   6.188   2.596 -0.1285 -0.0839  0.2199
27368W        W43842  18.735  12.845   4.821  0.1762 -0.0592  0.0140
27369W        W43843   6.052   0.494  12.505  0.0368 -0.1835 -0.3295
27370W        W43844  15.019   8.104  14.128  0.1256  0.0594 -0.0645
27371W        W43845  12.904  12.103   5.276  0.1098  0.3007 -0.5451
27372W        W43846  15.716   2.665  12.743 -0.2718  0.0825  0.0629
27373W        W43847  18.267  15.581   0.855  0.0871 -0.1561 -0.0785
27374W        W43848  10.687   8.398   1.509 -0.0005  0.2690  0.1413
27375W        W43849  17.576  15.680  13.593  0.3557  0.0297 -0.1068
27376W        W43850   7.064  14.351  13.519 -0.2550 -0.1069  0.2195
27377W        W43851   9.374   2.517  13.159  0.0728 -0.1868  0.1214
27378W        W43852   3.934  18.815  13.581  0.1063 -0.1233 -0.0186
27379W        W43853   4.130   8.280   2.283  0.2787  0.1342  0.0225
27380W        W43854  17.014   8.379  11.081 -0.2026  0.1786 -0.1621
27381W        W43855  18.688  17.117  15.114 -0.3246 -0.2540 -0.1116
27382W        W43856   2.248   0.933   1.750 -0.1460 -0.0871 -0.0473
27383W        W43857  17.435   7.671   0.509  0.0990  0.1403  0.3386
27384W        W43858   4.540  11.483   1.499 -0.2507 -0.0016 -0.0655
27385W        W43859  18.624  11.706  14.755  0.0796 -0.0239  0.0504
27386W        W43860  13.403   0.602   4.515  0.3188  0.2442  0.2392
27387W        W43861  15.904  14.619   3.481 -0.0472  0.4382 -0.0663
27388W        W43862   5.288  13.298  10.517 -0.0400  0.0201 -0.3190
27389W        W43863  11.343  17.330   3.407  0.2476  0.0738  0.0150
27390W        W43864   0.510  11.815  10.574  0.0613  0.3629  0.0550
27391W        W43865  11.941  13.395   3.377  0.1231 -0.1643  0.1957
27392W        W43866  10.312   1.878  10.441  0.1002  0.1388 -0.0381
27393W        W43867   7.296  14.042  14.520  0.0310 -0.1450 -0.1156
27394W        W43868   4.346   4.742   2.673  0.0440 -0.0356  0.0513
27395W        W43869   6.407   8.575   2.636 -0.0151  0.3028  0.0060
27396W        W43870  10.045   6.105  12.044  0.0108 -0.0025 -0.1338
27397W        W43871   4.295  12.429   1.330  0.1242 -0.1002  0.0741
27398W        W43872  13.983  17.773  10.698 -0.1470 -0.0635 -0.2052
27399W        W43873   2.536   2.005  12.997  0.1208 -0.1119 -0.1867
27400W        W43874   5.905  17.771  14.720 -0.0081  0.0316 -0.2035
27401W        W43875  17.202   7.559  10.619  0.0893  0.0453 -0.0885
27402W        W43876   2.428  14.492   4.241 -0.0716 -0.1838  0.1509
27403W        W43877  12.178  13.772   2.106  0.2286  0.4674 -0.3420
27404W        W43878  15.682   3.483   5.268 -0.3574 -0.3597  0.3204
27405W        W43879   9.745  18.809  11.765  0.0701  0.1240 -0.3055
27406W        W43880  15.240   2.421   1.154 -0.1565  0.0886 -0.1636
27407W        W43881   1.004   0.531   0.238  0.1830 -0.0552  0.0623
27408W        W43882   9.279  18.410  12.810  0.2696  0.2515 -0.0451
27409W        W43883   7.329   8.000   5.066  0.0573  0.3572  0.0036
27410W        W43884  10.270   6.960   3.242  0.0896 -0.1048  0.1318
27411W        W43885  13.016  12.971   3.448  0.1966 -0.1516 -0.1262
27412W        W43886   7.862   6.402   2.091 -0.0104 -0.2376  0.1996
27413W        W43887   2.498   8.105   0.520  0.1416  0.2099  0.5053
27414W        W43888   2.257  12.843  11.801  0.0946 -0.1992 -0.3343
27415W        W43889  14.778   8.748  10.595 -0.3919  0.0574  0.1480
27416W        W43890   2.717  12.127   1.881 -0.0954 -0.0341  0.4094
27417W        W43891   3.164  16.972   0.881 -0.0432 -0.0357  0.2738
27418W        W43892  18.015   8.122   0.111  0.0667 -0.2112 -0.2560
27419W        W43893  14.661   0.430  10.618 -0.0908 -0.0171  0.0244
27420W        W43894   4.118   7.227  13.367  0.2208  0.2315  0.1393
27421W        W43895  13.597  18.045  10.541  0.2802 -0.1406 -0.2813
27422W        W43896  12.657   6.107  11.375 -0.0894 -0.0798  0.0608
27423W        W43897  18.723   1.419   2.336 -0.2123 -0.2040 -0.3298
27424W        W43898   3.681   4.754   0.771 -0.2802 -0.0246  0.2077
27425W        W43899   5.619  17.213  13.442 -0.1026  0.1777 -0.0561
27426W        W43900   1.756  11.988  14.993  0.0245  0.2078  0.1004
27427W        W43901   1.483   9.302   1.835  0.0763  0.0892  0.2629
27428W        W43902  12.789   0.767   0.630  0.2234  0.0099  0.1675
27429W        W43903   5.787   9.650  10.626  0.1177 -0.0764 -0.3321
27430W        W43904   9.944  19.067  13.314 -0.1640 -0.3296  0.0199
27431W        W43905   0.532   5.180   5.322 -0.0992 -0.0794  0.0914
27432W        W43906  12.368   0.739  10.850 -0.1488  0.2729 -0.1234
27433W        W43907  14.523   6.047   0.115  0.0514  0.0327  0.1771
27434W        W43908   6.944   5.283   3.284  0.1264 -0.0311 -0.2568
27435W        W43909  11.993   1.114   1.893 -0.1156 -0.2201 -0.1779
27436W        W43910   6.207   4.984  15.074 -0.1907 -0.0021  0.0001
27437W        W43911   2.656  16.094   3.292 -0.2580 -0.2161  0.2592
27438W        W43912  13.138   9.290  14.367  0.0452  0.2620  0.1566
27439W        W43913   5.744  10.590  11.663  0.3759 -0.1572  0.0837
27440W        W43914   4.130  15.283   0.211  0.2825  0.1026  0.1737
27441W        W43915  13.948  13.936   9.958 -0.1135 -0.0663 -0.1933
27442W        W43916   3.287   8.111  13.190 -0.3233 -0.1098  0.0660
27443W        W43917   2.166  12.330  14.373  0.1921  0.2542 -0.0271
27444W        W43918   8.847   8.034  11.569  0.0591 -0.2743 -0.2775
27445W        W43919  14.240   5.382  13.594 -0.3607 -0.1325  0.2734
27446W        W43920  10.114   1.466  14.701  0.0707 -0.1033  0.2488
27447W        W43921   9.822   3.013   9.231 -0.2949  0.2830 -0.3334
27448W        W43922  11.164   3.433  10.977  0.0641  0.0053 -0.2925
27449W        W43923  15.191  13.960   1.517 -0.0503 -0.4150  0.0251
27450W        W43924   6.401   8.720  11.175 -0.1517  0.0464  0.0838
27451W        W43925  13.723  10.233  13.608 -0.4728  0.1059  0.1045
27452W        W43926  13.383   8.731   2.071  0.3203  0.0564  0.0903
27453W        W43927   1.521   9.576   9.863  0.1937  0.2929  0.1817
27454W        W43928  13.785   7.605   2.099 -0.3663  0.1322 -0.3234
27455W        W43929   6.686  18.098   3.163  0.0373  0.1636 -0.1247
27456W        W43930   9.069   4.136   2.037  0.0405  0.0882 -0.0955
27457W        W43931  10.617   2.218  14.472  0.0369  0.1565 -0.0934
27458W        W43932  19.014  11.959  14.608  0.0880 -0.0763 -0.0929
27459W        W43933   2.006  19.006   5.995 -0.1573 -0.2625  0.1298
27460W        W43934   5.230  15.296   3.073  0.0185  0.1018  0.3262
27461W        W43935   9.860   9.124  13.301  0.0939  0.0611 -0.1126
27462W        W43936  12.152  10.339   5.306  0.0709 -0.0372 -0.2206
27463W        W43937   9.149  15.527   2.778 -0.0685 -0.1214 -0.0208
27464W        W43938  18.370   3.745  13.575 -0.1799 -0.1015 -0.1503
27465W        W43939  19.074   1.866  11.387 -0.2752 -0.2169  0.1249
27466W        W43940   9.575  15.957  10.493 -0.0755 -0.1563 -0.0240
27467W        W43941  17.042  15.136  12.015  0.3505 -0.0637  0.4086
27468W        W43942  13.585   8.513  12.076 -0.0998  0.0590  0.0407
27469W        W43943   9.553  10.718   2.559  0.0681 -0.0605 -0.3696
27470W        W43944  15.208  10.925  11.521  0.1583 -0.0113 -0.2023
27471W        W43945  16.362  13.674   2.712  0.0344  0.2972 -0.0994
27472W        W43946   9.951   7.163   1.738  0.0486 -0.0890 -0.1013
27473W        W43947   4.006  17.613  13.370  0.2876  0.2431 -0.0893
27474W        W43948   1.087   8.009  12.500  0.1869 -0.4770  0.2098
27475W        W43949  17.782   7.653  13.619 -0.2519  0.2160  0.3236
27476W        W43950   4.861   9.752  11.668 -0.0686  0.1745 -0.2019
27477W        W43951   1.301   8.737   4.032 -0.1039 -0.1488  0.1920
27478W        W43952   9.678   0.829   9.979  0.0434 -0.1352 -0.1399
27479W        W43953  17.509   9.355   4.516 -0.0595 -0.3486  0.0894
27480W        W43954   2.223   6.663  14.639  0.0115  0.0658  0.1085
27481W        W43955   9.085  10.382  11.801  0.0272  0.0193 -0.1930
27482W        W43956   3.751   9.642  15.051  0.0190 -0.2762 -0.0012
27483W        W43957  16.616   6.076   2.493 -0.0648 -0.3029  0.1502
27484W        W43958  10.421  12.450  10.918  0.0850 -0.1237  0.0387
27485W        W43959   3.141  18.874   0.797 -0.1795  0.1498 -0.1027
27486W        W43960   3.072  17.209  11.864  0.2212  0.0203  0.0355
27487W        W43961  18.253   5.477   3.766  0.2267  0.1723  0.2741
27488W        W43962   7.068   6.475   5.195 -0.1634 -0.0745  0.1392
27489W        W43963   0.636  17.095  10.819 -0.0581 -0.1651  0.3156
27490W        W43964   2.228   8.570  12.766 -0.0817 -0.0560  0.0841
27491W        W43965   0.954  12.373  13.068  0.1903 -0.0185 -0.1412
27492W        W43966  15.624   1.311   4.664 -0.0400  0.0996 -0.1114
27493W        W43967   3.514  12.543   3.511 -0.4640  0.1063 -0.4643
27494W        W43968   7.179  12.783   0.068  0.1617  0.1229 -0.1527
27495W        W43969   3.669   0.384  14.757 -0.1597 -0.1467 -0.1938
27496W        W43970   7.408   6.099  12.661  0.3134 -0.0095  0.3829
27497W        W43971   8.225  13.944   0.869 -0.2397 -0.3581  0.3335
27498W        W43972   8.976  14.078   0.959 -0.4480 -0.3087 -0.0535
27499W        W43973  10.310   3.405   2.633 -0.0285 -0.0376 -0.1623
27500W        W43974  16.962  16.765  11.497  0.1462 -0.0675  0.1209
27501W        W43975   3.722  16.710  10.850  0.1446 -0.0324  0.1085
27502W        W43976  16.811   2.632   0.935  0.0913 -0.3072 -0.2977
27503W        W43977   2.019  18.488   1.996  0.0169 -0.0912  0.1680
27504W        W43978   7.202   9.443  14.076 -0.2517 -0.2187  0.2836
27505W        W43979   3.960  10.868   2.912 -0.0825 -0.1352 -0.2916
27506W        W43980   8.858  12.618  13.663  0.0902 -0.2950  0.2119
27507W        W43981   4.320  16.504   2.851  0.0064 -0.0113 -0.2385
27508W        W43982   0.277  15.806   2.053  0.0806 -0.0115  0.1118
27509W        W43983   2.205  15.447   2.055  0.0201  0.1605  0.1818
27510W        W43984  17.673  17.042  10.934  0.1200 -0.4712  0.1468
27511W        W43985  15.538  16.330   1.976 -0.0225  0.0462 -0.0175
27512W        W43986  15.818   2.203   2.895  0.0294 -0.0393  0.0337
27513W        W43987  15.981   3.147  13.362  0.0755 -0.1984 -0.0117
27514W        W43988   9.526  14.748   1.364  0.1453 -0.0044  0.0786
27515W        W43989   6.550  18.025  11.029 -0.1235 -0.3129 -0.2861
27516W        W43990   5.768  16.379  12.397 -0.7187  0.2134  0.0891
27517W        W43991  17.508  15.485   4.595 -0.0615  0.0159  0.1362
27518W        W43992  14.117  10.946  13.620 -0.0345 -0.2199 -0.1300
27519W        W43993   2.796   9.094  11.793  0.1965 -0.2014 -0.1205
27520W        W43994  15.569  17.055  12.106  0.1834 -0.2424  0.1305
27521W        W43995   0.172   2.558   2.355 -0.0903  0.1400  0.0299
27522W        W43996   6.673  18.543   4.545 -0.0613  0.1602  0.2256
27523W        W43997  18.802  11.144  11.941 -0.1313  0.0080 -0.0773
27524W        W43998   6.185  17.395  11.595 -0.0669  0.0246  0.3474
27525W        W43999  15.494  13.275  13.657 -0.1195 -0.0766  0.0268
27526W        W44000  19.121  15.144  11.855 -0.1552 -0.0393  0.2916
27527W        W44001   4.435  10.162  10.701 -0.0540 -0.3156 -0.0091
27528W        W44002   3.003  10.081  14.969 -0.2523 -0.0498  0.1267
27529W        W44003  15.395   7.341   5.011 -0.1841 -0.0544 -0.0319
27530W        W44004  18.055   9.801   1.239 -0.2287  0.1424  0.0468
27531W        W44005  15.190  14.088  10.874 -0.1296  0.0178  0.1121
27532W        W44006  14.023  11.783   0.086 -0.3441  0.0151  0.1440
27533W        W44007   8.113  10.031  14.938 -0.2760 -0.0254  0.2238
27534W        W44008   7.527   2.934  10.064 -0.0268  0.0596  0.1684
27535W        W44009  15.485   8.655   1.603  0.2016 -0.2765 -0.2460
27536W        W44010   8.003   2.128   1.127 -0.0398 -0.1344 -0.2488
27537W        W44011  18.139   8.577  10.218  0.3847 -0.0979 -0.3002
27538W        W44012  12.277  12.878   4.241 -0.1051  0.1152  0.0714
27539W        W44013  15.071   2.877   4.111  0.0061 -0.3045 -0.0781
27540W        W44014  13.588   7.490  10.881  0.4435 -0.3114  0.0931
27541W        W44015  13.022   5.327  11.964 -0.2850  0.0124  0.1861
27542W        W44016  10.232  11.693  13.852 -0.1442  0.1153  0.1763
27543W        W44017   4.306  12.927  14.272 -0.0440  0.0233 -0.1159
27544W        W44018   5.325   1.402  14.247  0.0159 -0.1179  0.1830
27545W        W44019   2.147  18.681  12.351 -0.1762  0.0307  0.0828
27546W        W44020   6.979  17.710   4.040 -0.3132 -0.1190  0.2712
27547W        W44021   4.984   4.933  12.086  0.0005 -0.2041 -0.1075
27548W        W44022  10.755   7.122   5.672  0.1776  0.2318  0.2393
27549W        W44023  14.836   5.153   4.666  0.2712  0.3474  0.0610
27550W        W44024  17.040  18.231   5.238 -0.0743 -0.0678 -0.0026
27551W        W44025   0.640  17.843   3.559  0.0699 -0.0252  0.0689
27552W        W44026  14.287  13.174   3.805  0.0128 -0.3141  0.0397
27553W        W44027   7.885   4.728  14.571 -0.1162  0.1622 -0.2022
27554W        W44028   8.493  16.498   3.132 -0.1076 -0.3031  0.1170
27555W        W44029   8.743  10.826   1.421 -0.1271 -0.1302 -0.0958
27556W        W44030  12.693  15.849   3.035  0.0794  0.0076 -0.0547
27557W        W44031  12.153  12.453  13.847 -0.0434 -0.0607 -0.1617
27558W        W44032  13.557   6.366  12.915  0.1556  0.1597  0.1185
27559W        W44033   5.572   0.006   3.992 -0.3550 -0.2014  0.1415
27560W        W44034   1.804  13.625  13.046  0.1253  0.0816  0.2254
27561W        W44035  14.614   0.416   5.349  0.1421 -0.3323 -0.3661
27562W        W44036  13.379  15.180   2.116  0.2153  0.1158 -0.1180
27563W        W44037   7.116   2.337   0.591 -0.2845  0.2239 -0.0767
27564W        W44038   4.855   5.017  11.112  0.0760 -0.1560  0.0061
27565W        W44039   6.248   7.543   2.408  0.0455 -0.0262  0.1869
27566W        W44040  15.571  11.936   0.821  0.0565 -0.4409  0.0764
27567W        W44041  14.932  14.102  11.817  0.0984 -0.1759  0.1058
27568W        W44042  12.309   7.290   4.446 -0.0861 -0.2448  0.2203
27569W        W44043   2.564  12.061   3.776 -0.0640  0.3479  0.0990
27570W        W44044   5.340  17.094   0.732  0.0960 -0.0671  0.0614
27571W        W44045   6.062   6.463   2.424 -0.2480 -0.0391 -0.0509
27572W        W44046  11.275   4.317  10.423  0.2342 -0.6550 -0.0359
27573W        W44047   8.862  11.701   4.409 -0.0636 -0.0843  0.1096
27574W        W44048   5.536  17.844   3.290 -0.2466  0.0332 -0.0566
27575W        W44049   4.417  13.478   3.085  0.1737 -0.4112 -0.1859
27576W        W44050   4.309  10.892   3.729 -0.2414  0.1615 -0.2354
27577W        W44051   2.150   0.727   5.637  0.0047 -0.1285  0.4029
27578W        W44052  11.891   4.635   2.863 -0.0431  0.3360 -0.2217
27579W        W44053   3.234   8.277  13.688 -0.2577 -0.0465  0.5261
27580W        W44054  17.762   2.528   4.546 -0.1282  0.1186 -0.0179
27581W        W44055   2.642   9.493   3.757  0.3726  0.2962  0.0364
27582W        W44056  16.325   1.586  11.368  0.0613  0.2178 -0.0194
27583W        W44057  13.044  17.308   0.802  0.0996  0.0230  0.1018
27584W        W44058  18.812  15.790   1.535  0.0860 -0.0592 -0.0983
27585W        W44059   4.446   9.262   5.080  0.1378 -0.0761 -0.3194
27586W        W44060   1.826  16.346   3.714 -0.1066  0.1028  0.1436
27587W        W44061   9.247   2.509   2.077 -0.1003  0.2045 -0.3236
27588W        W44062   6.965   5.456   0.927 -0.4451  0.1507 -0.0988
27589W        W44063  13.259  11.300   4.171  0.1982  0.1546 -0.0868
27590W        W44064   5.396   8.702   3.164 -0.1357 -0.1646  0.2596
27591W        W44065   3.099   5.867   4.410  0.1826  0.1242  0.0941
27592W        W44066  17.572   0.828   0.069 -0.0125  0.1056  0.0818
27593W        W44067  16.843   3.106   1.790  0.2788 -0.2399 -0.0406
27594W        W44068  10.069  10.772   0.968  0.1534 -0.1953 -0.2271
27595W        W44069   1.215  13.743   2.385 -0.1445  0.3150  0.3153
27596W        W44070   1.219  13.159  14.460 -0.1196  0.0220  0.2603
27597W        W44071   6.256   5.341   1.567  0.0561 -0.1090 -0.2171
27598W        W44072  10.633  14.645  12.352  0.1875  0.0940  0.1986
27599W        W44073   8.702   3.239   0.400 -0.4030 -0.0927  0.1195
27600W        W44074   6.871   0.364   4.688  0.2193 -0.1147  0.2354
27601W        W44075  16.566  17.919   3.968 -0.0633  0.0085  0.2696
27602W        W44076   9.295  13.837  13.171  0.0953 -0.2044 -0.2485
27603W        W44077  12.627   1.948  14.195  0.1908  0.0311 -0.2849
27604W        W44078  13.912   9.574  10.971  0.1449 -0.0593 -0.0640
27605W        W44079  13.066  14.356  12.892  0.2228 -0.0988 -0.1168
27606W        W44080   0.274   2.730  12.691 -0.3006 -0.1557  0.2964
27607W        W44081  11.871   5.377   3.818  0.1572  0.0926  0.1261
27608W        W44082   0.585   6.476  12.382 -0.0331 -0.2833  0.1125
27609W        W44083  16.635   2.091   3.657 -0.0937 -0.1235  0.1020
27610W        W44084  18.766   0.539   2.857 -0.0566 -0.0533 -0.3547
27611W        W44085  17.729  10.423   2.802  0.0834 -0.0877  0.2066
27612W        W44086   2.959   5.099   1.347 -0.1322  0.1885 -0.2288
27613W        W44087   4.985  16.201   1.831  0.0705 -0.3327  0.0803
27614W        W44088  12.390  10.781  13.661  0.2569  0.1618  0.2481
27615W        W44089   4.484   3.354  13.836  0.2371 -0.0540  0.0338
27616W        W44090  17.239   8.727  14.360  0.0120 -0.0872 -0.0658
27617W        W44091  14.515   4.359   2.782 -0.0876 -0.1894 -0.1083
27618W        W44092  15.330  11.741   4.167  0.0453 -0.0372 -0.0169
27619W        W44093   0.418   7.147   5.174 -0.5906 -0.1304 -0.2362
27620W        W44094  11.138  15.548  14.925 -0.1455 -0.2617  0.1376
27621W        W44095   3.116   7.151   4.594 -0.5158 -0.3129  0.0714
27622W        W44096   6.169  11.514   3.493 -0.0512  0.2639  0.2604
27623W        W44097  15.666   5.921  10.694 -0.2009  0.0400 -0.2392
27624W        W44098  14.840  18.033  11.361 -0.1768 -0.2021  0.0521
27625W        W44099   2.003  12.905  14.803 -0.1115  0.1381 -0.2560
27626W        W44100  11.159  12.573   2.305 -0.1731  0.4150 -0.1965
27627W        W44101   4.569  18.617   3.305 -0.2296 -0.3034 -0.1664
27628W        W44102   8.882  16.076  11.704 -0.2200  0.0064 -0.0320
27629W        W44103   1.398   0.015   3.722 -0.1007 -0.0124 -0.0676
27630W        W44104   0.263   5.138   3.939  0.0360  0.2730  0.3111
27631W        W44105   7.731   7.883  13.324 -0.3425  0.1666  0.1632
27632W        W44106   2.830  15.620  14.968  0.1294  0.3616 -0.1641
27633W        W44107   4.468   1.412   1.133  0.1062  0.0424 -0.2988
27634W        W44108   2.235  18.891  11.858  0.0981 -0.3566 -0.2709
27635W        W44109  15.037   4.279   3.053  0.1344 -0.0530 -0.0552
27636W        W44110   5.725  13.338  13.348  0.1838  0.0654 -0.2203
27637W        W44111   4.365  12.025   9.977  0.0192  0.4552  0.1990
27638W        W44112  10.315   7.409   4.307 -0.0092  0.0169 -0.1930
27639W        W44113  18.539   3.142  12.592  0.1084  0.0588  0.0783
27640W        W44114  15.468   0.473  14.655  0.0074  0.0708  0.2259
27641W        W44115   8.196   4.762   0.304 -0.0156 -0.3489  0.1666
27642W        W44116  12.147  13.748   0.747 -0.0621 -0.2003  0.3810
27643W        W44117  16.369   1.153  11.083  0.2987 -0.0326  0.0969
27644W        W44118  16.805  17.544  13.276 -0.1849 -0.4568 -0.0845
27645W        W44119   7.270   2.731   4.797  0.0665 -0.0738 -0.1366
27646W        W44120   4.961   5.967  14.388 -0.1112  0.0449 -0.2535
27647W        W44121  18.589   1.743   3.945  0.0095 -0.0917 -0.2761
27648W        W44122   3.732  17.221  11.171  0.1571  0.1916  0.0432
27649W        W44123   0.466  13.127   1.420 -0.2966  0.0759 -0.3634
27650W        W44124   7.199  14.410   2.487  0.2050  0.1688  0.2557
27651W        W44125  14.666  12.347  13.386  0.0387 -0.0310 -0.0641
27652W        W44126  14.132  13.573  14.311  0.0685 -0.1232  0.3058
27653W        W44127   7.400  15.737   5.199  0.1429 -0.0751 -0.2013
27654W        W44128  14.177  13.792  14.955 -0.1691 -0.0284 -0.0407
27655W        W44129  14.486  13.215   1.098 -0.2270 -0.1193 -0.0097
27656W        W44130   3.521  16.694   4.912  0.1848  0.1376 -0.1296
27657W        W44131  16.220   3.313   2.482  0.1738  0.0677  0.2902
27658W        W44132   3.495   9.564  14.321  0.1134  0.0213 -0.2858
27659W        W44133  14.066  17.831  13.111  0.1629 -0.1120  0.0269
27660W        W44134   9.467   5.642  15.130  0.0371  0.2164 -0.4419
27661W        W44135   6.562   2.359   2.173 -0.2434 -0.1032  0.2329
27662W        W44136   5.116   7.278   3.751 -0.2099 -0.0682 -0.1411
27663W        W44137   9.635   4.684  13.711  0.0584  0.2049 -0.0500
27664W        W44138   9.228   2.877   4.810 -0.1766 -0.0344  0.1456
27665W        W44139   9.875   2.396   3.922 -0.0987 -0.2981 -0.1144
27666W        W44140   8.660   0.718   3.763  0.1005 -0.0883 -0.1246
27667W        W44141   0.757   9.146   3.324  0.1184 -0.1415 -0.0516
27668W        W44142  15.950  12.806   3.314 -0.1095  0.0994 -0.0247
27669W        W44143   0.304  17.171   0.599  0.0215 -0.1113 -0.2454
27670W        W44144  16.605  18.436  14.916  0.2159  0.0259 -0.0066
27671W        W44145  15.245   4.300   4.713 -0.3312 -0.0205 -0.0500
27672W        W44146   5.706   7.713   0.808  0.1221 -0.2666  0.2123
27673W        W44147   2.510   3.276  14.578 -0.3406  0.1353 -0.1028
27674W        W44148  17.138   9.408  12.025  0.4566 -0.3319  0.0007
27675W        W44149  18.870   5.141  13.789 -0.0175  0.0391  0.1938
27676W        W44150  11.832   2.173  12.408 -0.1124  0.2526  0.1871
27677W        W44151   0.994   8.904   4.365  0.1608 -0.3105 -0.2425
27678W        W44152  18.881   7.733   4.672 -0.5306  0.0539  0.0239
27679W        W44153  18.117   6.118   4.315  0.2412 -0.0240  0.2624
27680W        W44154   5.008  18.985  14.266 -0.4328  0.0011 -0.0180
27681W        W44155   0.678   8.758  10.153 -0.1314 -0.0260 -0.4068
27682W        W44156  12.163   4.802   4.509 -0.3094 -0.0509  0.2075
27683W        W44157   6.267   8.957   0.308  0.1977  0.0092  0.2076
27684W        W44158  10.007   8.031   0.363 -0.0764 -0.1472  0.0184
27685W        W44159   3.553   1.737  15.002 -0.1141  0.2791  0.0217
27686W        W44160  11.372  10.871   6.089  0.0585  0.2817  0.1681
27687W        W44161  12.314  13.211  12.190  0.2152  0.0897 -0.1118
27688W        W44162  11.700  10.440   5.155  0.1310 -0.0281  0.2368
27689W        W44163  15.697  14.060  10.918 -0.1927 -0.2286  0.0729
27690W        W44164   4.510   3.022   0.903  0.1370  0.1372 -0.1990
27691W        W44165  18.762  14.054  11.393 -0.0676 -0.0747 -0.0822
27692W        W44166   7.106  13.245  10.662  0.0793  0.0117 -0.2245
27693W        W44167   1.556   1.652   4.833 -0.4212 -0.0308  0.1737
27694W        W44168  12.984   7.532   3.654  0.1636  0.2149 -0.0398
27695W        W44169  15.660   7.692   1.132  0.0687 -0.1341 -0.1110
27696W        W44170  19.146  11.938  10.451  0.1988  0.0226 -0.0810
27697W        W44171   5.360   6.662   3.725 -0.0857  0.0367  0.0180
27698W        W44172  11.329   4.631   4.035 -0.3042 -0.0465 -0.0642
27699W        W44173   9.900   0.503   4.845 -0.0684  0.0536  0.0828
27700W        W44174   3.667  11.164  14.509  0.4518 -0.0709 -0.1609
27701W        W44175   5.388   3.682   0.069 -0.1335  0.1523  0.1080
27702W        W44176   2.841  14.924  13.641 -0.1429  0.0550  0.0805
27703W        W44177   7.007   5.699  13.947 -0.0497 -0.0326  0.0592
27704W        W44178  11.428   5.051   2.484  0.3534  0.0268  0.0626
27705W        W44179  13.453   8.054   3.116 -0.1900  0.0151  0.0759
27706W        W44180  14.581  12.373   3.176  0.0688 -0.1991  0.0308
27707W        W44181   5.949   6.946   5.002  0.2411  0.0107 -0.1894
27708W        W44182   9.728   1.879   9.193  0.0872  0.0871  0.2631
27709W        W44183  18.200   2.741   6.092 -0.1456 -0.2546  0.0337
27710W        W44184   1.700   5.342  12.045  0.3051 -0.1292  0.2674
27711W        W44185   6.352   7.925  10.265  0.2188 -0.2901  0.0411
27712W        W44186  14.229  19.128   0.807  0.2488  0.0509  0.2509
27713W        W44187  17.686  12.552   3.018  0.1748  0.0337 -0.2900
27714W        W44188  18.017  14.959   2.191  0.1461  0.1286  0.0571
27715W        W44189  14.190   3.561  10.557 -0.0603  0.3032  0.0921
27716W        W44190  15.219  15.257  14.288 -0.3105 -0.2072  0.0952
27717W        W44191  15.329   4.656   0.698  0.0631 -0.1732  0.1257
27718W        W44192   4.878   8.572  10.872 -0.0252  0.1816 -0.0488
27719W        W44193  10.460   1.505   4.003  0.2452 -0.3079 -0.0922
27720W        W44194  13.905  19.053  10.916 -0.0453 -0.2631  0.2386
27721W        W44195  12.089   4.695   0.192  0.3812 -0.1567 -0.1688
27722W        W44196   4.882   2.807   1.998  0.0701 -0.0687 -0.0009
27723W        W44197   4.479   5.257  10.859  0.3109 -0.4667 -0.1899
27724W        W44198  17.636   5.966   1.920  0.3510 -0.0856  0.1621
27725W        W44199   7.340   1.464  13.685 -0.1728 -0.0591 -0.1079
27726W        W44200  10.196   0.629   2.167  0.2045 -0.2493 -0.1897
27727W        W44201  10.583  18.083   1.868 -0.1352 -0.4441 -0.2934
27728W        W44202   7.772  16.335   3.508  0.1369  0.3056  0.0084
27729W        W44203  10.308   1.349   2.271  0.1123 -0.0513  0.0040
27730W        W44204  11.471   9.644   0.214 -0.0772  0.2095  0.1932
27731W        W44205  18.475   8.434  13.931  0.1933  0.1125  0.0951
27732W        W44206  18.213  12.309   2.860 -0.6474  0.4588 -0.2539
27733W        W44207   6.201  15.306   5.322 -0.2500  0.0773 -0.0502
27734W        W44208   5.386  14.874  11.445  0.1569 -0.0634 -0.3910
27735W        W44209   2.176   2.221  14.368 -0.0340  0.1471 -0.0299
27736W        W44210   3.045   2.778  13.983 -0.1334 -0.1308 -0.1107
27737W        W44211  12.906  16.277  11.534  0.1631 -0.0027 -0.1120
27738W        W44212   4.878  17.263   4.041  0.0058 -0.0258 -0.1081
27739W        W44213   5.841   1.646  11.601  0.1913  0.2846 -0.0084
27740W        W44214   2.420   8.304  11.970 -0.3576 -0.1002 -0.3812
27741W        W44215  15.474   6.363   0.877  0.1413  0.0280  0.0208
27742W        W44216   5.732  15.909  11.372 -0.0885  0.0611  0.2153
27743W        W44217   0.781  15.505   4.691  0.2218  0.1460  0.0200
27744W        W44218   2.517   1.800   2.596 -0.1149  0.1292  0.0350
27745W        W44219   7.950   5.679  13.503  0.0740 -0.0432 -0.2075
27746W        W44220   5.328   3.628  12.806  0.0122  0.0656  0.0976
27747W        W44221   7.524   1.903   0.631 -0.1128 -0.0350 -0.0038
27748W        W44222  10.953   4.467  12.238  0.2275 -0.0143  0.1961
27749W        W44223   4.204   4.813   2.218  0.0516  0.1127  0.1355
27750W        W44224   8.837   0.503   1.065  0.0053  0.0140  0.1657
27751W        W44225   4.532   3.622   0.436  0.1188 -0.1204  0.3009
27752W        W44226  15.448   8.805  14.687 -0.3450 -0.1661  0.0777
27753W        W44227   9.502  17.850  12.714  0.0795 -0.0049  0.2052
27754W        W44228   6.162  17.860  13.122 -0.1078  0.1642 -0.3953
27755W        W44229   9.277   3.758  14.227 -0.0155  0.2265 -0.2747
27756W        W44230  12.351   9.554  13.880 -0.2354 -0.2724  0.1119
27757W        W44231  17.491   1.543   5.066 -0.0724  0.0621 -0.0038
27758W        W44232  15.655   0.925   2.699  0.1817 -0.0452  0.2213
27759W        W44233   7.353   6.502  14.601 -0.3693  0.0047 -0.0996
27760W        W44234  15.093  12.336   5.716 -0.2141  0.1547 -0.0270
27761W        W44235   2.545   3.495  15.077  0.1328  0.2162  0.0900
27762W        W44236   9.066  14.414   3.346 -0.0144 -0.1214 -0.0565
27763W        W44237  11.924  18.180  14.491  0.3127 -0.1108  0.0663
27764W        W44238   1.426   2.535  13.363 -0.0123  0.2035  0.3309
27765W        W44239   5.659   4.242   4.931  0.4195 -0.3357  0.0314
27766W        W44240  11.839   3.070   0.114 -0.0254  0.3763  0.2268
27767W        W44241   7.570  11.394   4.377 -0.3786 -0.0368 -0.0623
27768W        W44242   3.589  12.032  12.703  0.0635  0.2407 -0.2257
27769W        W44243   9.164  13.798  11.352  0.0948 -0.0069 -0.2377
27770W        W44244  12.587   3.016   3.889 -0.1159 -0.0335  0.1681
27771W        W44245  12.190  11.531  14.794 -0.1433  0.1170 -0.0988
27772W        W44246  14.912  11.951   5.008  0.0161  0.2694  0.0961
27773W        W44247  14.115  12.127   4.723 -0.1119 -0.3134  0.2019
27774W        W44248  12.143  14.517  11.007  0.0933  0.1216 -0.4123
27775W        W44249   1.737   0.788   1.729 -0.0808  0.3464  0.1177
27776W        W44250   4.929   6.490  14.674 -0.1384  0.0261 -0.1662
27777W        W44251  13.913  16.612   5.463 -0.2511 -0.0749 -0.0700
27778W        W44252   1.887   7.585   3.396  0.0628 -0.0906 -0.0373
27779W        W44253  17.819   4.419  13.563 -0.2772  0.0303 -0.3323
27780W        W44254   2.808  11.256   2.968 -0.0212  0.0178 -0.1864
27781W        W44255  11.889  17.334   2.243 -0.3642  0.1516  0.1399
27782W        W44256   2.228   0.149   2.346 -0.3181 -0.0173  0.2267
27783W        W44257   2.309   1.134   2.833  0.1358 -0.0956  0.0133
27784W        W44258  17.590  15.464  12.229 -0.0786 -0.1493  0.1644
27785W        W44259  16.102  14.300   2.435 -0.0360  0.0654  0.2021
27786W        W44260  12.430  15.386   5.420 -0.0033 -0.2907  0.0576
27787W        W44261   0.788  11.809  11.263 -0.0790 -0.2272  0.0323
27788W        W44262  12.825   4.333   2.579 -0.0950 -0.0024 -0.2565
27789W        W44263  14.901  14.516  13.443 -0.1460  0.0179 -0.0516
27790W        W44264   7.809  14.036   2.225 -0.0458  0.1141 -0.4255
27791W        W44265  17.496  15.331  11.123 -0.1130 -0.0268  0.0508
27792W        W44266  18.570   8.473  14.598 -0.0609  0.1641  0.1730
27793W        W44267  14.988  17.988  14.027  0.2927  0.3756 -0.0344
27794W        W44268   4.129   4.777   1.042  0.0207 -0.2294 -0.0990
27795W        W44269  10.663   8.513   0.090  0.1924  0.0597  0.0210
27796W        W44270  10.502  12.128   4.631 -0.0437 -0.3149 -0.0470
27797W        W44271   8.207  18.906   1.463 -0.3166 -0.1575 -0.4125
27798W        W44272  11.528   4.356  14.508  0.0550  0.0274  0.5059
27799W        W44273   1.528  12.553   4.508  0.0651  0.0587  0.1230
27800W        W44274   1.673  18.208   9.971  0.0723  0.1205  0.1240
27801W        W44275   5.983   5.143  11.944  0.0023 -0.0737  0.2856
27802W        W44276  14.738   8.321  13.770  0.0879  0.1129 -0.0490
27803W        W44277  17.419  11.922  13.195 -0.1481  0.3296  0.1407
27804W        W44278  13.793   5.005  11.223  0.1050 -0.1085  0.1302
27805W        W44279  12.436  14.740   1.734 -0.0653 -0.1452  0.2564
27806W        W44280  16.801  18.389   0.374 -0.3160 -0.4333 -0.2245
27807W        W44281  12.788  14.296  11.622  0.2101  0.1820  0.0257
27808W        W44282  17.063  11.485  12.138  0.1718 -0.1459 -0.1425
27809W        W44283  13.012   2.416   0.656 -0.0382  0.0323  0.1332
27810W        W44284  18.661   6.433  12.771 -0.1553 -0.0568  0.4652
27811W        W44285  16.885   3.144  13.006  0.0285  0.3386 -0.1945
27812W        W44286  16.233  19.055  11.974 -0.2815 -0.1389 -0.3093
27813W        W44287  16.291   8.458   0.729 -0.1546 -0.0679  0.0522
27814W        W44288   2.167   3.537  11.744 -0.1966  0.2786 -0.0402
27815W        W44289  13.971  18.695  11.292 -0.0500  0.2140 -0.0883
27816W        W44290   8.216   8.097   3.501  0.1238 -0.1356 -0.1425
27817W        W44291   4.106   0.400   2.942  0.0101  0.1614 -0.1376
27818W        W44292  14.743   8.885  11.970  0.1348 -0.0433  0.0232
27819W        W44293   0.353   8.351  14.594  0.1812  0.0697 -0.1621
27820W        W44294   1.722   3.781   5.952 -0.1557 -0.1342 -0.1520
27821W        W44295  14.462   7.948  14.832 -0.2350 -0.2209  0.1085
27822W        W44296   9.697  15.509   0.819 -0.0197  0.1376  0.0850
27823W        W44297  17.269   4.140  10.731  0.2584  0.1949 -0.2135
27824W        W44298  11.028   3.037  14.126  0.2267  0.3284 -0.0700
27825W        W44299  13.731  18.116   0.415 -0.0745 -0.0627 -0.3386
27826W        W44300  14.007   3.179   5.384 -0.0191 -0.2151 -0.1685
27827W        W44301   5.733  17.320   0.953 -0.0747  0.1272 -0.3154
27828W        W44302   7.626   8.856  14.567  0.0755 -0.0556 -0.4251
27829W        W44303  15.490   3.994   4.298  0.0515  0.2192 -0.0051
27830W        W44304  10.711  10.754   3.296 -0.0256  0.0187  0.0971
27831W        W44305  15.388  16.748   1.702 -0.3935 -0.2255  0.0328
27832W        W44306   9.922   9.789  11.140  0.0622 -0.0818  0.1259
27833W        W44307  11.063   6.129   4.525  0.2271 -0.0442 -0.1728
27834W        W44308  12.473  18.898   9.893  0.1084 -0.3569 -0.0364
27835W        W44309   7.113  13.113   0.927  0.0872  0.1230 -0.2369
27836W        W44310  17.741  15.663   3.300  0.1439  0.1773  0.0020
27837W        W44311   6.664  18.765  12.638  0.5779 -0.1427 -0.3300
27838W        W44312   2.462   5.563   1.582  0.0492  0.3681  0.0848
27839W        W44313   5.375   1.601  11.804  0.2062 -0.0472  0.0180
27840W        W44314   4.068  12.049  11.726  0.0056  0.2391  0.3292
27841W        W44315   1.042   7.760  12.964 -0.1389  0.1823 -0.0662
27842W        W44316   2.243   1.282  12.135  0.3375 -0.1397 -0.0424
27843W        W44317  11.914   8.963   2.485 -0.3969  0.0023 -0.1223
27844W        W44318  11.845   4.496  10.431 -0.0896 -0.4543 -0.1114
27845W        W44319   2.538  17.705  12.863 -0.0725  0.1053  0.1938
27846W        W44320   3.708   6.319  12.426 -0.1334  0.1766 -0.0270
27847W        W44321   7.252   9.315   0.902 -0.2291  0.3374 -0.0508
27848W        W44322   0.121  17.829  12.442  0.0085  0.0253 -0.1110
27849W        W44323   8.884   5.611  13.075 -0.1457 -0.1461  0.0099
27850W        W44324  14.533  15.856  14.078  0.1931  0.2394 -0.3161
27851W        W44325   9.634  19.099   3.414  0.2247 -0.1470 -0.1367
27852W        W44326  11.404   6.362   4.081  0.0361 -0.1107 -0.1229
27853W        W44327   6.496  12.632  10.786 -0.1153  0.1359  0.2035
27854W        W44328  12.947  12.304  14.140  0.0387  0.1712 -0.2249
27855W        W44329   2.963   6.107   3.799  0.0996  0.1039  0.0414
27856W        W44330  16.224  17.878  11.242 -0.0864  0.0649 -0.1051
27857W        W44331  10.346   6.597   2.200  0.2525 -0.2013  0.0645
27858W        W44332  18.613  15.715  11.280  0.1454 -0.0404  0.2494
27859W        W44333   5.492   8.727   4.500 -0.4781  0.2740 -0.3527
27860W        W44334   3.179   4.151  13.212  0.1972 -0.0227 -0.2059
27861W        W44335  16.675  12.913  14.027 -0.2625 -0.2698 -0.1204
27862W        W44336   3.921  17.043  14.187 -0.2757 -0.1192 -0.3237
27863W        W44337   8.949   5.311  12.619 -0.0409 -0.2327 -0.0627
27864W        W44338   5.157  12.426  10.325  0.2198  0.1276  0.0705
27865W        W44339   3.631   3.435  11.134 -0.0594 -0.1759  0.1950
27866W        W44340   8.472  16.018  14.211 -0.0746  0.0952  0.1876
27867W        W44341   2.509  10.910   0.588  0.2420 -0.1325  0.2770
27868W        W44342   6.257  17.473   0.246  0.0032  0.3509  0.0363
27869W        W44343   2.120  15.748  15.062  0.2627 -0.0662  0.0491
27870W        W44344   3.566   4.484   3.199  0.2698  0.2915 -0.1665
27871W        W44345   6.676   8.581   3.996 -0.3112  0.2907 -0.3454
27872W        W44346  11.288  12.228   3.189  0.1045  0.3795 -0.0656
27873W        W44347  13.788  17.122  12.662  0.4261 -0.2711 -0.0767
27874W        W44348  11.376  10.885   1.270 -0.1036  0.1339  0.1758
27875W        W44349   0.809   3.895   0.116 -0.2915  0.0097 -0.2322
27876W        W44350  10.531   4.623  13.685  0.4861 -0.1386 -0.0243
27877W        W44351  17.716   4.271   4.413 -0.3881  0.0546  0.2395
27878W        W44352  15.841   5.432   3.429 -0.0370  0.1172 -0.1826
27879W        W44353  17.787   4.090  13.165  0.1104 -0.1405 -0.1228
27880W        W44354  17.979  16.192   2.617  0.1040  0.0961  0.1704
27881W        W44355   9.299   9.035  11.020  0.1924 -0.1567 -0.1197
27882W        W44356  13.807  13.428   5.408  0.0129 -0.1323  0.1409
27883W        W44357  15.112  16.867  14.994 -0.0536 -0.1493  0.1493
27884W        W44358  16.993  15.586   4.418  0.2147 -0.1496  0.0454
27885W        W44359   9.536  12.893  11.689  0.0834 -0.3191  0.2834
27886W        W44360  17.189   1.051  13.519 -0.0149 -0.1224 -0.1153
27887W        W44361  13.750   4.480   0.836  0.1706 -0.0731 -0.0008
27888W        W44362  16.474   3.201   0.460 -0.1224  0.0347  0.0078
27889W        W44363   2.901   6.569   4.103 -0.1749  0.0409 -0.1896
27890W        W44364   2.911  12.256   1.431 -0.3129 -0.1673  0.1529
27891W        W44365   6.250  17.525  10.437 -0.0805  0.0492 -0.3640
27892W        W44366  10.751   5.352  14.158  0.0791  0.3204 -0.0666
27893W        W44367   1.161   1.702  13.420  0.0195  0.0286 -0.1585
27894W        W44368   1.926  16.078  10.953 -0.2156 -0.1961  0.6852
27895W        W44369  18.874   2.922   3.124 -0.0504 -0.0183 -0.2020
27896W        W44370  18.147   9.893   4.172 -0.2491  0.3853 -0.2490
27897W        W44371   0.497   5.699  13.286  0.0166  0.1109 -0.1904
27898W        W44372   0.975   0.979  14.556  0.1070  0.2131  0.1150
27899W        W44373  16.638  19.007  14.191 -0.2229 -0.1064 -0.0014
27900W        W44374  13.616  10.788  12.882 -0.2430 -0.4212  0.3167
27901W        W44375  18.828   4.956   0.062 -0.0971 -0.2580  0.2371
27902W        W44376  14.904  17.917   1.637 -0.1221  0.1713 -0.2136
27903W        W44377   7.554  18.771   0.526  0.1419  0.3588  0.0546
27904W        W44378   6.336   6.845  13.832  0.1248  0.1826 -0.1930
27905W        W44379  11.381   8.010  14.054  0.0998  0.3971  0.1614
27906W        W44380   4.364  17.781   5.354  0.1483 -0.0107  0.4730
27907W        W44381  15.144  16.485   9.789  0.2199 -0.0948 -0.0451
27908W        W44382  18.143  15.382  11.059 -0.0390 -0.2276 -0.1834
27909W        W44383  19.049  11.847   3.265  0.0741 -0.3497  0.0258
27910W        W44384   8.450   0.748   9.985  0.0612  0.0992  0.0405
27911W        W44385   7.939  10.694  11.921  0.5186 -0.0838  0.0857
27912W        W44386   7.663   1.434  14.599  0.3110  0.0170  0.1011
27913W        W44387   9.178  14.356  11.671 -0.1041 -0.3943 -0.0925
27914W        W44388  16.151  12.266   4.130 -0.1227 -0.0919  0.2586
27915W        W44389   3.520  13.055   0.867  0.0049  0.3079  0.0612
27916W        W44390   3.409  10.582   4.220  0.1261 -0.0430 -0.3319
27917W        W44391  10.806   7.310  13.383 -0.1393  0.0806  0.1600
27918W        W44392   7.974   9.104   0.830 -0.1833 -0.1668 -0.0577
27919W        W44393   5.133  14.532  13.332  0.4186 -0.1490 -0.0118
27920W        W44394   3.906  14.517  13.901  0.0395 -0.1285  0.0135
27921W        W44395   2.910   8.989  12.421  0.1006 -0.3122  0.0476
27922W        W44396   7.070  17.159   5.343 -0.0891  0.0400  0.1010
27923W        W44397   2.481  14.070  11.454 -0.0987 -0.2866 -0.1066
27924W        W44398   8.897   8.400   4.027  0.0580  0.2229 -0.6231
27925W        W44399   2.472  16.123  12.372 -0.1502  0.2635  0.1455
27926W        W44400  11.580   3.605  10.690  0.0136 -0.2348 -0.4105
27927W        W44401  15.796   2.253  13.539  0.2480 -0.2560  0.0519
27928W        W44402  17.927   9.707  12.070  0.2175  0.1841  0.1058
27929W        W44403   1.660  12.070  13.008  0.1726 -0.0511  0.2790
27930W        W44404   2.536  18.519  12.731  0.0578 -0.1962 -0.5224
27931W        W44405   6.398  13.290   9.568 -0.0234  0.0998 -0.3463
27932W        W44406  12.084  14.491  11.928  0.0016 -0.1601  0.3396
27933W        W44407  14.572   3.213   4.403 -0.1673  0.0805 -0.2422
27934W        W44408   8.591   2.531   5.494  0.1587 -0.2098  0.2009
27935W        W44409  16.930   7.422  11.040 -0.1290  0.1493  0.2460
27936W        W44410   2.630   8.722  15.035  0.2699 -0.1396  0.0015
27937W        W44411  10.101  10.040   3.054  0.1256  0.4027 -0.2847
27938W        W44412  16.236   1.191   0.279  0.2515  0.0793  0.2326
27939W        W44413  16.327  11.552  13.782 -0.0046  0.0401 -0.2251
27940W        W44414  19.072   7.298   9.363  0.1551  0.1066 -0.1226
27941W        W44415  14.919   9.575   0.725  0.0057 -0.2115 -0.1811
27942W        W44416  17.440  11.506   4.586 -0.1888  0.0230 -0.2243
27943W        W44417  13.885   6.867   2.616 -0.2829 -0.0030 -0.0666
27944W        W44418   7.969   2.311   3.419  0.3628 -0.0342 -0.2228
27945W        W44419   9.273  10.078   4.644  0.1539  0.2117  0.0378
27946W        W44420   3.845   3.605   0.726  0.1036  0.0637  0.1123
27947W        W44421  16.090   1.087   2.139  0.2715  0.1617  0.0178
27948W        W44422   9.473  13.091   1.981  0.1876  0.2372  0.2329
27949W        W44423   6.701  15.925   2.625  0.0279 -0.0228  0.0271
27950W        W44424  16.077   0.353  13.060  0.0635  0.1805  0.0188
27951W        W44425  10.897  10.340   0.883 -0.2816 -0.1138 -0.2430
27952W        W44426  13.736   0.637   5.387 -0.2028 -0.0520  0.1274
27953W        W44427  14.074   9.092  12.676 -0.0155  0.1415  0.5196
27954W        W44428  18.596   0.281   1.528  0.1647 -0.2223 -0.2365
27955W        W44429  17.271   4.638  14.689  0.4634  0.1647  0.0855
27956W        W44430  16.846   9.272   2.912  0.0728 -0.1907  0.1681
27957W        W44431   2.349  13.293   2.728 -0.2980  0.2532  0.0280
27958W        W44432  19.060   0.964  13.151 -0.2058 -0.0723  0.2681
27959W        W44433   5.694  11.494  13.060 -0.0748  0.0200 -0.3007
27960W        W44434  15.167   7.341   1.812 -0.0445  0.0658  0.1102
27961W        W44435   7.764  13.122  10.518  0.0732  0.2043  0.1854
27962W        W44436  16.936  17.689   2.566  0.2469 -0.1513 -0.1040
27963W        W44437  16.885   4.167   1.663  0.0409 -0.1039 -0.0832
27964W        W44438   7.422  10.493  14.356  0.3574 -0.0014  0.0238
27965W        W44439  13.868   8.822  11.694  0.0939  0.1276 -0.1857
27966W        W44440   1.102   6.453  12.363  0.1762  0.0115  0.0096
27967W        W44441   9.973  13.264   1.246 -0.2301 -0.0146  0.0039
27968W        W44442  18.317  10.351   1.360  0.0402  0.1922  0.1094
27969W        W44443   9.640   2.967  13.031 -0.0355  0.2212 -0.1528
27970W        W44444   0.527  14.827  13.628  0.1617 -0.0715 -0.1002
27971W        W44445   1.201   5.484  13.266  0.0468  0.3809 -0.0357
27972W        W44446  15.060   2.974  10.196 -0.1028 -0.2387 -0.0374
27973W        W44447   0.924   6.301  11.619 -0.1589  0.3361  0.0705
27974W        W44448  11.519   2.310  10.239  0.0174 -0.3685 -0.0661
27975W        W44449   8.921  13.168   0.476  0.2307  0.2688  0.0825
27976W        W44450   5.798   8.042   1.783  0.3321  0.0704  0.1017
27977W        W44451  12.799   4.562   0.427  0.2406  0.2498  0.2742
27978W        W44452   2.491   4.759  12.207  0.2758  0.3473 -0.1796
27979W        W44453  18.559   2.103   1.320  0.4933 -0.2662  0.2126
27980W        W44454  10.909  13.461   1.380 -0.1397  0.0341 -0.0396
27981W        W44455   3.475   7.107  11.657 -0.2260  0.0946 -0.1857
27982W        W44456   9.788   7.868  11.086  0.0579  0.1714  0.1365
27983W        W44457  11.076   2.171  14.275  0.0999 -0.0602 -0.0273
27984W        W44458  10.702   4.975  11.149  0.0220  0.2391 -0.0713
27985W        W44459   9.331   7.980  11.864 -0.2353  0.1057 -0.0348
27986W        W44460   8.330   7.526  14.117 -0.3199 -0.0433 -0.0634
27987W        W44461  14.081   6.820   0.468 -0.2167 -0.0564  0.0710
27988W        W44462   6.903   0.100  12.017  0.0810 -0.1966 -0.2877
27989W        W44463  12.003  10.213  12.511 -0.2143  0.0833 -0.0948
27990W        W44464   4.440   0.847  14.714  0.5471 -0.1383 -0.0686
27991W        W44465   9.772  14.542  11.243 -0.0426 -0.0493  0.1804
27992W        W44466   5.663   0.120   0.329  0.0913  0.3877 -0.2882
27993W        W44467   5.168   6.822   5.550 -0.2691 -0.0918 -0.1320
27994W        W44468   6.188  13.750   4.662  0.3548  0.0989  0.1850
27995W        W44469  17.799   8.954   3.221  0.0566  0.3669  0.0618
27996W        W44470   9.012  13.800  12.548  0.0714 -0.2283  0.1412
27997W        W44471   0.993   4.389   1.099  0.2287 -0.0030  0.0740
27998W        W44472   2.808   8.750   0.365  0.3706  0.2177 -0.3002
27999W        W44473  16.729   3.163  12.260 -0.1419 -0.1749 -0.3016
28000W        W44474  11.610  14.645   2.075 -0.1312 -0.1161 -0.2006
28001W        W44475  12.691  11.614  14.692 -0.1349  0.1396  0.0452
28002W        W44476   9.941  17.534   4.209  0.0869  0.0801  0.4852
28003W        W44477   0.675   0.883   0.314 -0.0342  0.0883  0.0115
28004W        W44478   6.209  15.797  11.330  0.0448  0.0028 -0.0344
28005W        W44479   2.397   8.983   3.781  0.1125 -0.2386 -0.0166
28006W        W44480   5.445   5.888   2.845 -0.2542  0.0478 -0.3130
28007W        W44481   5.089  14.754  11.876  0.1805  0.1265 -0.0390
28008W        W44482  17.509  12.073  10.886  0.3286 -0.2281 -0.1302
28009W        W44483  12.408  13.756   3.403 -0.0023 -0.0436  0.0680
28010W        W44484   5.820  13.791  14.484 -0.0629 -0.2414  0.2536
28011W        W44485   7.039  10.647   5.212 -0.1153  0.2714  0.1668
28012W        W44486  12.786   8.586  12.578 -0.1110 -0.2392  0.1323
28013W        W44487   7.844   6.503   2.562 -0.0305 -0.0138 -0.0080
28014W        W44488   8.711  15.720  13.428  0.2957 -0.0350  0.1350
28015W        W44489   9.971   1.480   3.727  0.1700  0.2197 -0.1094
28016W        W44490  12.955  13.441  11.505  0.1815  0.2545 -0.0888
28017W        W44491  18.629  18.275  11.890  0.0691  0.2824 -0.2731
28018W        W44492   4.512  10.803   0.254  0.3755 -0.0438  0.0077
28019W        W44493  12.124   9.462   1.816 -0.1217 -0.0862  0.1569
28020W        W44494   4.846   7.090  12.887 -0.0388  0.2030 -0.0330
28021W        W44495  11.253   1.302   5.074 -0.1111  0.0466 -0.2700
28022W        W44496  10.789  11.774  13.851 -0.0728  0.3679  0.2164
28023W        W44497   3.732  17.856   3.404 -0.1914 -0.1138 -0.1923
28024W        W44498   1.491   1.128  14.004 -0.2549  0.1071 -0.0451
28025W        W44499  18.665   9.988   2.724 -0.1527  0.0522 -0.1076
28026W        W44500  14.109   4.117  12.881  0.0340  0.0172 -0.2812
28027W        W44501   4.394  16.996  14.373  0.0696  0.0034 -0.2413
28028W        W44502   1.373  13.279  11.360  0.2196  0.0026 -0.1243
28029W        W44503  17.275  11.773   1.103  0.0683 -0.1969 -0.3252
28030W        W44504  14.043  11.660   4.354 -0.1534 -0.0086  0.1335
28031W        W44505  11.584   7.528   2.970 -0.2664  0.0413 -0.4460
28032W        W44506   3.548   1.551   3.241  0.0460 -0.1223 -0.0400
28033W        W44507   0.123   6.945  13.170 -0.0554  0.4193 -0.1384
28034W        W44508   1.340   3.241   0.576  0.0634 -0.1026 -0.0642
28035W        W44509  14.133   4.767  13.811  0.1917  0.0143  0.1398
28036W        W44510  17.454  17.798   0.915  0.1488  0.2813 -0.2301
28037W        W44511   6.788  12.288   2.010  0.1893 -0.3297  0.1640
28038W        W44512  18.265  11.315  12.956 -0.0057  0.1483 -0.0984
28039W        W44513   0.041   5.820   3.100  0.2010 -0.3745  0.0904
28040W        W44514  18.235  11.607   4.628 -0.2465 -0.1390 -0.1696
28041W        W44515  16.442   1.427   2.955  0.1180  0.3049  0.1756
28042W        W44516   8.992  18.740  14.139 -0.0842 -0.0512 -0.1219
28043W        W44517  17.156  14.804   4.111  0.0227 -0.0856 -0.1112
28044W        W44518   1.725   6.381  13.510  0.0862  0.0137  0.1944
28045W        W44519   0.796  13.951  15.044  0.1499  0.1879 -0.0044
28046W        W44520   7.267   7.825  12.527 -0.1794 -0.2881  0.1844
28047W        W44521  11.405  18.823   1.931  0.1482 -0.1332  0.0359
28048W        W44522   5.700  16.235   2.835 -0.1677  0.0151  0.0924
28049W        W44523  17.830   5.848  12.878 -0.0183 -0.1531 -0.1711
28050W        W44524   2.191  19.035   0.594 -0.1647  0.1172 -0.0127
28051W        W44525  18.173   2.877  13.744  0.0611 -0.1175  0.2401
28052W        W44526  17.758   3.715  12.836  0.0157 -0.0081 -0.1111
28053W        W44527  17.738   3.813   3.592  0.1306  0.3033 -0.1067
28054W        W44528  14.041   4.275  14.500  0.0165  0.5548 -0.0004
28055W        W44529   9.083   9.262   2.271 -0.1000 -0.1519  0.4754
28056W        W44530  12.305  18.347   1.442 -0.1301  0.3160 -0.0476
28057W        W44531   6.865  18.974  13.053 -0.0938  0.1052 -0.3138
28058W        W44532   0.012   7.288   3.813  0.0575 -0.2939 -0.0454
28059W        W44533   0.871  15.139  11.532  0.2304  0.1267 -0.0915
28060W        W44534   5.441   6.132  10.791  0.0025  0.3002 -0.0053
28061W        W44535   3.216   6.335  12.542 -0.0372  0.1460  0.1262
28062W        W44536  17.011   5.490   3.062 -0.2787  0.1794 -0.1838
28063W        W44537   5.291   3.588  14.175 -0.1209  0.0615 -0.0450
28064W        W44538  10.930  12.087  15.153  0.1269  0.1568 -0.2929
28065W        W44539   7.134  13.570  12.825 -0.2338 -0.0980  0.2493
28066W        W44540  11.818  13.913  14.535 -0.0588  0.1756 -0.1115
28067W        W44541  15.184  11.739  11.284  0.4221 -0.0937 -0.0281
28068W        W44542  13.390  18.368  14.035  0.2776  0.1707 -0.0400
28069W        W44543   8.759   1.895   1.727 -0.2320  0.3263  0.0952
28070W        W44544   5.235  13.564  11.627  0.0173  0.0781 -0.3745
28071W        W44545   9.699   3.001   4.851  0.0127  0.2255  0.0792
28072W        W44546   7.488   8.084  11.185 -0.0367  0.1115 -0.1283
28073W        W44547   0.365  18.020   1.825  0.2346  0.1881 -0.1917
28074W        W44548  11.145  13.030   4.975 -0.1804  0.1820 -0.0955
28075W        W44549  16.511   8.221   2.127 -0.1206 -0.0123  0.0711
28076W        W44550  18.442   1.048  14.741  0.2797 -0.0505 -0.2522
28077W        W44551  12.246   8.439   3.765  0.0930 -0.0408 -0.0364
28078W        W44552   7.239  15.931   2.487 -0.0478 -0.1454 -0.1171
28079W        W44553  10.181   8.217  12.046  0.0377  0.3012 -0.2582
28080W        W44554   1.315   9.055   3.066  0.0496  0.0113 -0.3373
28081W        W44555  15.616   2.447   2.367 -0.0584 -0.0917  0.2168
28082W        W44556  15.780  17.630  11.164 -0.0451  0.0663 -0.1223
28083W        W44557   3.197  10.459   0.050 -0.1447 -0.1908 -0.0234
28084W        W44558   1.469   3.727   2.201  0.1084 -0.0820  0.1253
28085W        W44559   7.746   9.387  12.778 -0.1641  0.2029 -0.1434
28086W        W44560  10.314   2.144   4.492  0.0263  0.1365  0.0432
28087W        W44561  18.857   6.260  10.549 -0.2084  0.1631 -0.0073
28088W        W44562   6.387  13.580  13.281  0.1963  0.1045 -0.1438
28089W        W44563   2.375   8.337  14.712 -0.0344  0.0341 -0.0499
28090W        W44564  14.258  14.950   9.892  0.0872 -0.0336 -0.0698
28091W        W44565  14.398  15.941  15.113 -0.0327 -0.2315  0.1993
28092W        W44566   5.428   5.741  11.960  0.0310 -0.0717 -0.0235
28093W        W44567  10.349   2.602   0.905 -0.1940 -0.1644 -0.3193
28094W        W44568   4.136  11.909  11.227  0.0221 -0.1827 -0.0725
28095W        W44569   4.425   9.697  14.461  0.2471 -0.2437 -0.1396
28096W        W44570  14.844   6.780  11.770  0.1592  0.0636 -0.0035
28097W        W44571  18.880  15.980  11.581 -0.0874  0.3519 -0.0828
28098W        W44572   4.245  15.533  10.485  0.1546  0.3440  0.1391
28099W        W44573   5.638  10.262   2.115 -0.3373 -0.1000 -0.1686
28100W        W44574   6.890   9.252   4.647 -0.1583  0.0880 -0.1774
28101W        W44575   1.394   3.850  12.877 -0.1347 -0.1184  0.1933
28102W        W44576   5.866  15.166  14.680 -0.0898 -0.0373 -0.3005
28103W        W44577  10.205   0.217  10.648 -0.4097 -0.0267 -0.4391
28104W        W44578  17.682   1.196  11.801  0.1068  0.3788 -0.1577
28105W        W44579  17.539   9.987   1.271 -0.0709 -0.0375  0.0835
28106W        W44580   6.785   0.825   2.015  0.0422  0.1177 -0.2894
28107W        W44581  15.947  11.192   1.747 -0.2417 -0.0315  0.0073
28108W        W44582   0.543   3.328   2.947  0.0237 -0.0514 -0.0807
28109W        W44583   5.007  18.598  11.717 -0.2346  0.1052  0.0521
28110W        W44584   7.673  17.335  10.324  0.1546 -0.2249  0.1882
28111W        W44585  10.900  13.004   5.483 -0.3665 -0.1603 -0.0544
28112W        W44586   1.428   3.013   2.754 -0.0817  0.1062  0.1384
28113W        W44587  17.896  12.183  12.890  0.0554  0.2069  0.1972
28114W        W44588  14.273  11.032   1.584 -0.1350  0.2856 -0.0374
28115W        W44589  17.741  11.861   1.777  0.2985  0.0327 -0.0096
28116W        W44590   2.301  10.401   0.907 -0.3063  0.0370 -0.1119
28117W        W44591   9.746   7.960  10.358 -0.0871 -0.2024  0.2416
28118W        W44592  16.553   1.202   4.567  0.0518 -0.1656  0.0668
28119W        W44593   2.762   9.288  10.383  0.0501 -0.1244  0.0142
28120W        W44594   3.245  14.971  12.130 -0.2702  0.0113 -0.0750
28121W        W44595   9.961  14.624   3.658 -0.0027  0.2066  0.2005
28122W        W44596  10.887  11.155  14.244 -0.2139 -0.2325  0.2689
28123W        W44597   0.876  18.622   1.413 -0.1074 -0.0620  0.1890
28124W        W44598  12.697   6.592  13.252  0.1541 -0.2407 -0.0368
28125W        W44599   7.327  10.390   0.599  0.0259 -0.0394 -0.3126
28126W        W44600  15.577   8.497   2.462  0.3817 -0.0398  0.2116
28127W        W44601   3.472  13.784   2.678 -0.0018  0.1037 -0.2267
28128W        W44602  13.929   3.425  12.217  0.0707  0.0090 -0.1565
28129W        W44603   2.631   7.797   4.095 -0.1731  0.4109  0.3113
28130W        W44604   7.331  15.432   2.237 -0.1980  0.3267  0.0473
28131W        W44605   6.411   7.231  14.829  0.0604 -0.3496 -0.2554
28132W        W44606   2.740  18.588   2.622  0.0583  0.0700 -0.0051
28133W        W44607   6.098   9.431   1.955 -0.0446 -0.0759 -0.0515
28134W        W44608  18.493   0.682   0.042 -0.2018 -0.0875 -0.3447
28135W        W44609  10.156   7.107   0.280  0.3205  0.0775  0.7154
28136W        W44610   8.809  15.347  11.835  0.0873  0.1832  0.1171
28137W        W44611   6.086  14.262  13.283 -0.1366 -0.1009 -0.3383
28138W        W44612  13.636  17.280  13.552 -0.2026  0.0179 -0.1044
28139W        W44613  17.182  11.759  10.569  0.1601 -0.3597  0.2220
28140W        W44614  14.997   4.538   4.298 -0.1581  0.2475  0.0569
28141W        W44615  12.339  14.905   0.106 -0.3868 -0.0043  0.0443
28142W        W44616  15.367  15.764   1.569 -0.2838 -0.2993  0.0584
28143W        W44617  10.037  14.142   6.006 -0.3953 -0.1087  0.2269
28144W        W44618  13.800   8.035  12.338  0.2589  0.0222  0.2603
28145W        W44619   8.501  14.284   1.915  0.3366  0.0735 -0.0859
28146W        W44620   4.521   0.523   1.881  0.0299 -0.1154 -0.0511
28147W        W44621   5.793  11.116   1.499 -0.0106  0.1323  0.1055
28148W        W44622  10.331  18.750  11.435 -0.2370 -0.3896  0.1877
28149W        W44623   5.755   4.678   4.587 -0.0733  0.2529 -0.1703
28150W        W44624   3.097   4.840   4.201 -0.0384  0.1722  0.0375
28151W        W44625   4.094   8.480  13.702  0.1235  0.3697  0.0813
28152W        W44626  11.836  14.873   2.549 -0.2076 -0.5892 -0.4706
28153W        W44627  17.980   1.392  13.130 -0.2258  0.1024  0.2590
28154W        W44628  12.345   4.351  11.168  0.0172  0.1771 -0.1930
28155W        W44629   6.962  17.556  12.479  0.0496  0.0705  0.1920
28156W        W44630   7.791   0.780   2.607 -0.0085 -0.1862 -0.0543
28157W        W44631   8.724  16.206   5.482 -0.1920 -0.0749 -0.0275
28158W        W44632  13.794   0.010  11.623 -0.1977  0.1928 -0.0786
28159W        W44633   8.956  11.225   1.714  0.1464 -0.1596 -0.0901
28160W        W44634   0.008   3.543  10.887  0.0819  0.1625 -0.3532
28161W        W44635  16.113   0.770  11.778 -0.2808 -0.0804  0.0922
28162W        W44636   5.911  16.538   4.902  0.1460 -0.1212 -0.1756
28163W        W44637  12.491  12.392   0.124  0.1945 -0.0873  0.0764
28164W        W44638   4.669   7.422   9.925  0.1985 -0.1444  0.0573
28165W        W44639   4.073  14.382   0.579  0.0021 -0.1042 -0.2252
28166W        W44640  10.592  17.327   1.654  0.0195 -0.0597 -0.0646
28167W        W44641   2.154   5.173  15.011  0.0344 -0.1974  0.1224
28168W        W44642  10.165   3.333  12.318 -0.2071  0.0002  0.1373
28169W        W44643   6.764   5.785  14.875 -0.0715 -0.2000  0.2131
28170W        W44644  12.089  11.006   0.673  0.0299 -0.1407  0.1427
28171W        W44645  10.818  14.312   4.220  0.2070 -0.0943  0.0087
28172W        W44646  13.285   5.658   4.622 -0.0679 -0.2609 -0.0908
28173W        W44647  17.746  12.300  14.779 -0.0118  0.0796  0.1353
28174W        W44648   6.128   7.056  10.815 -0.2057  0.1488  0.0029
28175W        W44649   9.665  10.565   2.041  0.0582  0.0683 -0.2324
28176W        W44650   3.912   0.591   0.638  0.1677  0.2302  0.3918
28177W        W44651   9.364   6.809   1.552  0.2865  0.0174  0.2432
28178W        W44652   3.863  12.530   3.875 -0.0029  0.2684  0.0904
28179W        W44653  13.472  15.118   1.630  0.0679 -0.0144 -0.1510
28180W        W44654  12.138  10.348   2.354  0.3599  0.0335 -0.0117
28181W        W44655  13.598  15.467  14.151  0.1295 -0.3502 -0.2067
28182W        W44656   8.282   9.610   3.321 -0.1950  0.4705 -0.0473
28183W        W44657   8.872   6.345  13.938  0.0254 -0.2091 -0.3072
28184W        W44658   0.572  12.602   5.142 -0.1346 -0.0324  0.1280
28185W        W44659   5.201   0.551   1.015  0.2245  0.1125 -0.0157
28186W        W44660   3.497  14.212   4.284 -0.2559 -0.5120 -0.0505
28187W        W44661  10.177  18.314   9.886 -0.1789 -0.0974  0.1610
28188W        W44662   6.975   9.782  11.684 -0.0690 -0.0184 -0.1286
28189W        W44663   2.943   1.262  10.047  0.0062 -0.1247  0.0094
28190W        W44664   0.295   0.799   2.314 -0.1220  0.2455 -0.1274
28191W        W44665   0.429   0.854   3.526  0.2118 -0.1492  0.0864
28192W        W44666  15.227   5.071  11.157 -0.0012 -0.0066  0.1630
28193W        W44667   7.209  17.457  10.441  0.0661 -0.0684  0.1031
28194W        W44668  18.953   5.791   1.446  0.2622  0.0592 -0.1754
28195W        W44669  12.738   4.449  13.920 -0.2178 -0.2531  0.0100
28196W        W44670   3.371   1.450  11.975  0.4096  0.3922 -0.2025
28197W        W44671  16.668  14.818  12.194  0.0295 -0.1967 -0.0787
28198W        W44672  10.603   3.581  11.290  0.2171  0.0052 -0.1933
28199W        W44673  15.578   0.138  10.645 -0.3017  0.0243  0.1117
28200W        W44674   0.432   0.455  11.073  0.0803  0.1670  0.0381
28201W        W44675  16.132   9.875  12.819 -0.0032 -0.2018 -0.1487
28202W        W44676   5.403  11.253   2.931 -0.0255  0.2836 -0.1407
28203W        W44677   4.246  15.246  12.835  0.2035 -0.0077 -0.1119
28204W        W44678   3.126   5.324   4.541  0.0628  0.0111  0.1042
28205W        W44679   5.606   6.859  12.748  0.0043  0.0946 -0.4638
28206W        W44680   4.779  10.613  12.753 -0.0941  0.0644 -0.1026
28207W        W44681   1.582   4.518   3.807 -0.1234 -0.2192  0.0606
28208W        W44682  11.812   7.458  10.756  0.0398 -0.3320 -0.0177
28209W        W44683   5.474   8.159  14.168  0.0223  0.1986 -0.0091
28210W        W44684  15.937   8.765  11.861 -0.2126 -0.1132  0.1846
28211W        W44685   8.903  11.455   0.492 -0.0269 -0.1673 -0.0841
28212W        W44686  15.976   2.521   1.409  0.0088  0.1217 -0.1906
28213W        W44687  17.638   1.491   5.608 -0.0973 -0.2328 -0.1876
28214W        W44688   1.758  16.123   3.003  0.0184 -0.2346  0.0323
28215W        W44689   8.441   0.384  13.763  0.2339  0.0078  0.0382
28216W        W44690  11.590  11.762  12.056  0.3739  0.1827  0.3981
28217W        W44691  17.461   3.647  12.367 -0.1402  0.0519 -0.1009
28218W        W44692  17.591  17.535   4.407 -0.1611  0.0853 -0.0259
28219W        W44693   3.592  11.001   2.615  0.0442 -0.0177  0.2140
28220W        W44694  18.002   0.752   0.963 -0.0652 -0.3402  0.0272
28221W        W44695  10.571   8.781  12.944 -0.0071 -0.0318  0.2411
28222W        W44696  16.044   5.254   1.234 -0.0194  0.0106  0.0426
28223W        W44697   0.314  14.749  11.844 -0.0687  0.0900 -0.2390
28224W        W44698   0.023  13.417   2.491 -0.1130 -0.1572  0.1149
28225W        W44699   4.500  13.053  12.707  0.1722  0.0718  0.0172
28226W        W44700  12.106  11.476  12.529  0.2512 -0.4135  0.0403
28227W        W44701   7.408  17.366   1.089 -0.4022  0.2210  0.1163
28228W        W44702   8.667   6.537   5.575 -0.2618 -0.4559  0.3321
28229W        W44703  19.037  18.253   4.138  0.0263 -0.0169  0.0075
28230W        W44704   2.140   9.059  13.525 -0.1829  0.0115  0.0750
28231W        W44705  15.744  12.991  14.412 -0.0225  0.0977  0.1945
28232W        W44706   9.403  13.932  10.005  0.0336  0.2200 -0.1017
28233W        W44707   1.837   5.289  14.642  0.1613  0.0885  0.2179
28234W        W44708   2.511  12.556   4.183 -0.0790  0.1901 -0.2338
28235W        W44709  16.128  18.306  14.787 -0.1489 -0.2948 -0.2203
28236W        W44710  11.875   7.035  12.037  0.0241 -0.2819  0.1742
28237W        W44711  10.561   8.987  14.155 -0.1650 -0.3013  0.0961
28238W        W44712  10.732  16.232   3.201 -0.1532 -0.1606 -0.0216
28239W        W44713   0.525   7.725  13.952 -0.0672 -0.1209  0.1596
28240W        W44714   7.737  18.520  11.863  0.0026  0.0997  0.2488
28241W        W44715  10.999   3.429   4.547 -0.1402 -0.0448  0.4342
28242W        W44716   2.776   2.893   1.855 -0.1606  0.0272 -0.0331
28243W        W44717  16.301  14.771   4.625  0.0182 -0.2560 -0.0277
28244W        W44718  17.919  11.239   4.685  0.0493 -0.0164 -0.0339
28245W        W44719  18.770  11.623   1.815 -0.1092  0.1984  0.2028
28246W        W44720  18.659  12.575   4.384 -0.2590  0.0969 -0.2610
28247W        W44721   0.361  17.895   3.148 -0.0562  0.2855  0.1003
28248W        W44722   9.592  18.512  13.678  0.2407 -0.1636  0.0610
28249W        W44723   6.793  10.478   0.729 -0.0544 -0.0705 -0.3047
28250W        W44724  18.190  11.728  10.087 -0.4087  0.1864 -0.1334
28251W        W44725  17.218  16.389  11.266  0.1036  0.1527 -0.0575
28252W        W44726   7.214  14.943  10.744  0.3379 -0.3563 -0.0510
28253W        W44727  10.844   0.504  14.823  0.0895 -0.1206  0.2927
28254W        W44728  16.555  12.862   4.909 -0.1349  0.0550 -0.3555
28255W        W44729  15.953   8.945   3.180 -0.1785 -0.1826 -0.2289
28256W        W44730  17.657   3.125  13.266  0.0428 -0.0411  0.4412
28257W        W44731  12.239   9.199  13.520  0.2765  0.0574  0.1163
28258W        W44732   2.832   4.304  14.899  0.1276 -0.0137  0.1937
28259W        W44733   2.591   3.046  11.485  0.1372 -0.1795  0.0102
28260W        W44734   0.225   0.934   4.068 -0.0422  0.1414  0.0445
28261W        W44735   5.459  15.998  13.067 -0.0276  0.1405  0.0625
28262W        W44736  13.707   0.092  12.670 -0.3117  0.0260  0.0617
28263W        W44737   1.993   4.903  13.077  0.0099 -0.2454  0.1267
28264W        W44738  12.409  15.505  10.673 -0.0243 -0.1115  0.0291
28265W        W44739  12.093   7.357   3.640  0.1791  0.2966 -0.1925
28266W        W44740   2.076  16.755   2.769  0.0327 -0.0651 -0.1022
28267W        W44741  15.662   0.602  11.531 -0.1943  0.1123  0.3387
28268W        W44742   6.212  14.250   0.665 -0.0956 -0.0240 -0.0969
28269W        W44743  17.577   8.245   3.700  0.0320 -0.2854  0.0726
28270W        W44744   5.159   5.385  11.201 -0.3718  0.0718  0.2415
28271W        W44745   0.783   4.450   3.369  0.3539 -0.1321  0.1012
28272W        W44746   9.213   6.568  13.499  0.0646  0.0888 -0.1960
28273W        W44747  16.559   8.525   3.261 -0.0953 -0.1537 -0.1857
28274W        W44748  13.785   2.087   3.863 -0.0342  0.1284  0.0810
28275W        W44749   0.768   1.166   5.680  0.0902  0.2576 -0.0733
28276W        W44750  16.003   0.575   9.423  0.0739  0.0304  0.0821
28277W        W44751  18.303   6.838  14.360  0.0259  0.1543 -0.0229
28278W        W44752  14.691  19.078   1.035  0.1058 -0.1364  0.3477
28279W        W44753  16.161   6.869  11.819  0.1156  0.0054  0.2786
28280W        W44754   9.589  18.714  13.188 -0.1368 -0.0185 -0.1720
28281W        W44755   6.296  16.275   5.105  0.0600  0.1012 -0.2637
28282W        W44756   4.614  16.181  14.603  0.0830 -0.0382  0.0688
28283W        W44757   3.776  12.195  11.378 -0.0616 -0.1683 -0.0206
28284W        W44758  17.285  16.459   1.901  0.1160 -0.0590 -0.1176
28285W        W44759   4.906  11.921   3.517  0.2132 -0.1094  0.3417
28286W        W44760  15.320   3.379   3.802  0.1052 -0.2276 -0.1084
28287W        W44761   5.267   0.164   1.444 -0.2575 -0.0598  0.1253
28288W        W44762   8.213  10.642   3.919 -0.2651  0.0175  0.0030
28289W        W44763   1.048  17.155   2.484 -0.0868 -0.1941 -0.0558
28290W        W44764   1.862  18.781   2.401 -0.1463 -0.0348  0.0284
28291W        W44765   7.213   2.212   2.380  0.0033 -0.0480  0.0004
28292W        W44766  16.120  11.498   2.652 -0.1123  0.2274 -0.0149
28293W        W44767  14.636   2.824  12.012  0.2533  0.1162 -0.2507
28294W        W44768  17.598   0.587  14.795  0.1898  0.1581  0.1544
28295W        W44769   5.996  12.530  13.502  0.0647  0.0028 -0.0692
28296W        W44770   1.377  18.353   0.713 -0.1622 -0.1756 -0.2846
28297W        W44771  16.303  16.677   5.392  0.1505 -0.0135  0.2269
28298W        W44772  17.507   1.988   3.214  0.1151 -0.1164 -0.1548
28299W        W44773   7.047  10.047  13.076 -0.3132  0.0004 -0.0445
28300W        W44774   4.309   9.659   3.506 -0.5289  0.1775 -0.1908
28301W        W44775   8.829  14.984   2.477 -0.0307 -0.4101 -0.3649
28302W        W44776   9.237  11.081   0.664  0.3048  0.1159  0.1036
28303W        W44777   5.741   3.383  14.998 -0.0084 -0.0323 -0.0397
28304W        W44778   2.672   3.511  11.941 -0.0575  0.1141  0.2558
28305W        W44779  19.056  13.839  12.096  0.0845 -0.2151 -0.0861
28306W        W44780  13.744   0.624   3.349 -0.0955  0.2923 -0.0715
28307W        W44781   0.391   8.842   3.133  0.0950 -0.1919  0.0300
28308W        W44782  11.986   8.567   2.098 -0.1986 -0.1629 -0.2919
28309W        W44783   1.261   8.557   2.973  0.0386  0.2788 -0.2198
28310W        W44784   4.943   4.526  11.855 -0.0754  0.0005  0.0098
28311W        W44785  11.394  17.273   0.153 -0.2354  0.1233  0.0796
28312W        W44786  15.000   8.620   5.892 -0.1694 -0.2306  0.1403
28313W        W44787   4.217   2.626  12.680 -0.1328 -0.3696  0.0916
28314W        W44788   7.842  18.328  11.403 -0.1554  0.1646  0.1179
28315W        W44789   0.856  13.524   0.163 -0.0999 -0.1050  0.1090
28316W        W44790   4.610  14.460   1.142 -0.3380 -0.1627  0.1247
28317W        W44791   4.414   7.508   3.002 -0.1184  0.0123 -0.1183
28318W        W44792  15.837  13.738   4.235 -0.4328  0.1934  0.1029
28319W        W44793  16.746  15.912   4.714  0.0021 -0.2004  0.1648
28320W        W44794   2.418   1.098   4.683  0.1826  0.0338 -0.2818
28321W        W44795   9.138   4.467   0.555  0.1050 -0.1250  0.2154
28322W        W44796   0.205   7.734  11.176 -0.0753 -0.0423  0.0898
28323W        W44797  12.384   9.634  11.681 -0.2016  0.0630 -0.2724
28324W        W44798  10.057  15.601   0.495 -0.2618  0.0504  0.2887
28325W        W44799   0.547   5.272  11.325 -0.1038 -0.0954  0.1552
28326W        W44800   0.811   0.883  13.364 -0.1183  0.1294 -0.1402
28327W        W44801   5.840   3.855   5.196  0.0491 -0.0025 -0.3446
28328W        W44802  11.228   1.953   1.742  0.2969  0.0996 -0.0003
28329W        W44803   8.658  11.545   1.945  0.0565 -0.0439 -0.0601
28330W        W44804   6.852   4.199   1.160  0.0433  0.0677 -0.0707
28331W        W44805  12.788   4.545  13.010  0.0007 -0.1272 -0.2099
28332W        W44806   8.141   8.679  13.630 -0.2295 -0.1617  0.1803
28333W        W44807   8.859   4.916   1.581 -0.2339 -0.1650  0.0521
28334W        W44808   2.299   9.298   3.358  0.0153 -0.0516 -0.1369
28335W        W44809  16.425  13.201   5.835 -0.0509 -0.0616  0.0588
28336W        W44810  10.667   4.033  14.481 -0.1170 -0.1119 -0.0351
28337W        W44811   3.591  10.105   0.114  0.5038 -0.1553 -0.1014
28338W        W44812   7.331   2.903   1.618 -0.0306 -0.2884 -0.1154
28339W        W44813   5.944   8.265  12.796 -0.2264  0.0535 -0.0793
28340W        W44814   3.172   2.274   2.702 -0.0983  0.0446 -0.1745
28341W        W44815   8.257  18.343   4.195  0.3731  0.2514  0.2146
28342W        W44816   1.516  13.217  14.939 -0.1118  0.0387 -0.0988
28343W        W44817   4.436  12.962   1.613  0.0828  0.2194  0.1260
28344W        W44818   8.932   6.721   1.870 -0.0879 -0.1083  0.2402
28345W        W44819   1.478  13.246   1.273  0.0841  0.0379 -0.0190
28346W        W44820   0.649  16.763   1.621  0.2076  0.0997  0.2630
28347W        W44821   7.344  11.079   1.677  0.2792  0.1182  0.1024
28348W        W44822   0.385  10.385   1.205 -0.0039  0.1649 -0.0225
28349W        W44823  15.023   9.104  14.562  0.3385 -0.3243  0.2680
28350W        W44824  18.351   9.690  13.897  0.0558 -0.0844 -0.0448
28351W        W44825  10.185   2.500  14.335  0.1227  0.0161 -0.1501
28352W        W44826  10.622   2.823   3.402 -0.2388  0.0226  0.1295
28353W        W44827   4.430  18.823  13.748 -0.0542  0.1530  0.2181
28354W        W44828  12.034   6.035  14.063  0.1056  0.1020 -0.1438
28355W        W44829  18.344   5.141  12.348  0.4184  0.1784 -0.4535
28356W        W44830  10.436   1.009   2.586  0.0441 -0.2307  0.1610
28357W        W44831   4.584   9.129   4.565 -0.1988  0.0572 -0.2751
28358W        W44832   7.330   4.173  13.872  0.0640  0.2071  0.0941
28359W        W44833   9.547   5.825   3.053  0.2233 -0.0095  0.3654
28360W        W44834  16.433   6.638  10.901 -0.0766  0.1672  0.3737
28361W        W44835  10.037   3.717  11.432  0.2215 -0.1423  0.3846
28362W        W44836  17.595  12.587  12.682  0.0724 -0.0952 -0.2242
28363W        W44837  19.020  16.778   4.803  0.2086  0.1714 -0.2387
28364W        W44838   4.921   9.580   1.812  0.1136  0.2920 -0.3492
28365W        W44839  13.518  19.158   1.309  0.4183 -0.3086  0.1396
28366W        W44840   9.748   7.828   2.998 -0.1085  0.2547  0.0622
28367W        W44841  13.388   2.031   2.931  0.3774 -0.0898  0.0275
28368W        W44842   7.192  18.304   0.714  0.0263  0.1620  0.1833
28369W        W44843   2.942   0.263  11.194  0.1886 -0.0982  0.2215
28370W        W44844   0.409   6.972  12.246  0.0538  0.0922  0.1167
28371W        W44845  16.284  13.936  11.652 -0.1662 -0.3157  0.1984
28372W        W44846   8.804   8.287   1.734 -0.2673  0.2593  0.0754
28373W        W44847  18.468  18.992   3.471  0.2138 -0.1549 -0.2689
28374W        W44848  14.153   7.279   1.863  0.0721 -0.3960 -0.2068
28375W        W44849   7.031  12.381  14.577 -0.0621  0.0588  0.2814
28376W        W44850  13.698   0.913   1.398  0.1948  0.0084  0.0294
28377W        W44851   2.814   6.890   0.576  0.2093 -0.1817  0.0140
28378W        W44852   4.499  16.587   0.805  0.1222 -0.0984 -0.4980
28379W        W44853  15.622   6.650  14.923 -0.2658 -0.3128  0.1670
28380W        W44854   0.286   4.474  11.492 -0.0384 -0.0779 -0.0070
28381W        W44855  11.201   1.910   2.685 -0.0782 -0.1830  0.2756
28382W        W44856  13.332   7.464   4.502 -0.4420 -0.1198 -0.0665
28383W        W44857   8.371   9.147   3.046 -0.1562  0.0223 -0.2958
28384W        W44858  15.021   7.612   4.843  0.1544 -0.1488 -0.1717
28385W        W44859   7.397   7.792   2.260  0.0804 -0.2409 -0.2961
28386W        W44860  16.778   6.743  13.420  0.0951  0.1699 -0.2482
28387W        W44861  14.703   0.094   1.525  0.2013  0.0293 -0.0582
28388W        W44862   8.632  16.315   1.380 -0.0043  0.0005  0.0592
28389W        W44863   9.807   6.796  14.218  0.0252 -0.0401  0.0401
28390W        W44864   1.464  11.161   3.598 -0.2209 -0.0007 -0.0333
28391W        W44865  17.043   2.677   2.689 -0.1188  0.1505 -0.1473
28392W        W44866  17.078  17.208   0.469 -0.1626 -0.1625 -0.3571
28393W        W44867  16.650   7.097   3.112 -0.0955 -0.1034  0.1654
28394W        W44868   3.628  17.676  14.712 -0.0327 -0.0748  0.3132
28395W        W44869   9.036  12.267  12.273 -0.2585 -0.0693  0.1876
28396W        W44870   4.170  14.398   2.022 -0.1092 -0.0539 -0.0514
28397W        W44871   5.245  16.614  14.747 -0.3780 -0.1424  0.2739
28398W        W44872  10.098   1.920   1.602 -0.1195  0.0078 -0.3694
28399W        W44873  15.517  18.251  14.157 -0.0587  0.1875 -0.0432
28400W        W44874  10.197  13.683   5.161  0.1563 -0.0040  0.2638
28401W        W44875  12.636   4.851  10.963 -0.0751  0.1567 -0.0807
28402W        W44876   3.940  10.202  13.873 -0.4037 -0.3404 -0.1614
28403W        W44877  11.452  18.639  12.788  0.1337  0.1008 -0.3311
28404W        W44878   0.507   4.835  14.250 -0.3165 -0.4161 -0.0240
28405W        W44879   4.874   5.334  12.583  0.0626 -0.2962 -0.1336
28406W        W44880   3.413  14.034   2.140  0.0349  0.2718  0.2619
28407W        W44881  15.392   5.625  10.313 -0.0238  0.0609 -0.0220
28408W        W44882   2.347  15.893  11.500 -0.0389 -0.1866 -0.1402
28409W        W44883  15.455   3.743  12.880  0.1085  0.0885  0.2484
28410W        W44884  18.847  19.099   2.645 -0.0537  0.0228  0.0672
28411W        W44885   4.495   8.139  13.767 -0.0367  0.0054 -0.1282
28412W        W44886  16.822  18.653  12.621 -0.0737 -0.1584  0.1887
28413W        W44887  18.445   8.053   2.270 -0.1305 -0.1786 -0.0912
28414W        W44888   3.242  15.341  11.545 -0.0143  0.0322  0.1547
28415W        W44889   9.244   4.362  13.736  0.3285 -0.2579  0.0470
28416W        W44890  13.353  11.386   3.520 -0.1057  0.0569 -0.0622
28417W        W44891  13.846  11.040   5.414  0.2737  0.1387  0.4312
28418W        W44892  14.251   4.916   0.667 -0.0957 -0.0382 -0.1478
28419W        W44893  16.683   1.186   3.441 -0.2411  0.0551 -0.2754
28420W        W44894  15.177  18.216   1.259  0.0323 -0.0942 -0.0212
28421W        W44895   1.444  12.746  15.144 -0.0036 -0.0114  0.4810
28422W        W44896  10.375   1.646  12.475 -0.0435  0.0425  0.2015
28423W        W44897  11.092  17.423  11.192 -0.1288 -0.2037 -0.0796
28424W        W44898   3.752   7.193   0.000  0.0786  0.0296 -0.3568
28425W        W44899   2.595  12.431   3.249 -0.0824 -0.0206  0.0040
28426W        W44900  16.838  18.408   0.926  0.0280  0.0483  0.1433
28427W        W44901  12.655  11.923  12.187  0.2372 -0.1461  0.1520
28428W        W44902  17.340   3.482  13.052 -0.0314 -0.0054 -0.2166
28429W        W44903   9.497  19.152   5.781  0.0494 -0.2978  0.2668
28430W        W44904   3.405  18.463   1.099  0.0481 -0.0098 -0.2526
28431W        W44905  16.153  18.341   5.411  0.0857 -0.1343 -0.1773
28432W        W44906   9.307  15.033   2.706  0.0933  0.0670 -0.2044
28433W        W44907   1.900  12.317   4.734 -0.2354 -0.1924 -0.3596
28434W        W44908   7.651  18.283   0.483  0.0407  0.0294 -0.0644
28435W        W44909   6.210   1.275  14.093  0.0407  0.2478  0.3326
28436W        W44910  13.249   0.921   2.435 -0.0874 -0.3772  0.0989
28437W        W44911  14.705  11.467  12.093 -0.1367  0.0099  0.0034
28438W        W44912  12.219   9.634   2.927 -0.0893  0.0292  0.0107
28439W        W44913  19.007   9.785   1.599  0.3627 -0.1794  0.1351
28440W        W44914  13.692   4.138   0.208 -0.0415 -0.2357  0.6218
28441W        W44915  12.302   0.281   3.341  0.2069  0.0340 -0.0475
28442W        W44916  12.749  10.107  11.636  0.0687  0.1031 -0.2283
28443W        W44917   3.904   1.917   0.757  0.1614 -0.1314 -0.2046
28444W        W44918  10.575   4.729   3.468 -0.0145  0.1817  0.2109
28445W        W44919   8.734  11.976  13.043  0.0764 -0.0059 -0.0671
28446W        W44920  18.973   2.782   0.860  0.3297  0.0123  0.4339
28447W        W44921  18.969  15.888  11.011  0.1455 -0.0782  0.1785
28448W        W44922   2.017  10.411  13.662 -0.1620 -0.0118 -0.4419
28449W        W44923  17.244   3.373   1.522  0.1972 -0.1945  0.0194
28450W        W44924   0.282   7.189  10.750 -0.3277  0.0878  0.1063
28451W        W44925  11.256   4.730  14.150 -0.3645 -0.0449  0.0878
28452W        W44926  10.102   6.386  12.467  0.0837 -0.0789  0.1860
28453W        W44927   1.329   2.991   0.101 -0.2624 -0.5039 -0.2478
28454W        W44928  11.808   4.973  12.269  0.3178  0.0668  0.1084
28455W        W44929   8.826  10.761   2.278  0.0793 -0.4097 -0.0591
28456W        W44930   3.762   9.615  11.189  0.2408  0.1180  0.3730
28457W        W44931   8.395  17.579   3.701  0.0316 -0.1128  0.1025
28458W        W44932  11.968  17.058  11.977 -0.0028  0.0091  0.0146
28459W        W44933   9.993   3.260   0.068  0.1853  0.3891  0.3744
28460W        W44934   2.683   3.267  12.888 -0.2578 -0.0447  0.0576
28461W        W44935   5.789  13.657  10.940 -0.4246  0.1435  0.0396
28462W        W44936   9.760  10.623  14.502  0.0130 -0.1520 -0.3676
28463W        W44937  11.793  15.668   0.376  0.1136  0.2540  0.0278
28464W        W44938   6.588  13.566  13.743  0.1710  0.2016 -0.1484
28465W        W44939   3.706   1.684   2.232  0.1792 -0.0790  0.0670
28466W        W44940  18.050   4.094  14.549 -0.1161  0.1969  0.2434
28467W        W44941  13.019  11.294   2.533  0.0832 -0.1699  0.0281
28468W        W44942   7.439   6.667   3.364 -0.1292  0.0832 -0.0069
28469W        W44943  16.430  16.841  12.115 -0.1994  0.2465  0.0284
28470W        W44944  16.267  10.356  10.551 -0.0576 -0.0811 -0.1440
28471W        W44945  18.297   1.799  10.091 -0.1280  0.1491  0.1343
28472W        W44946  17.795  15.170   4.227  0.3901  0.3783  0.1863
28473W        W44947  11.385   6.710  12.437  0.0733  0.2060  0.2969
28474W        W44948   2.727  14.603   1.557 -0.5185  0.2458 -0.1022
28475W        W44949  13.454   6.774  14.345  0.0578  0.0983 -0.0803
28476W        W44950   7.989   7.369  13.516 -0.0795 -0.4202  0.2663
28477W        W44951   7.414   8.808  10.696  0.0682  0.3095 -0.1200
28478W        W44952   7.812   3.121  14.282 -0.1659  0.0356  0.0383
28479W        W44953   1.106   6.153   0.305 -0.0935 -0.4845 -0.1829
28480W        W44954  11.831  10.058   1.435 -0.0441 -0.1419 -0.0978
28481W        W44955  10.215   6.920   3.776  0.0598 -0.1205  0.0389
28482W        W44956   4.284  10.296   4.110 -0.0749 -0.1414 -0.0559
28483W        W44957   8.590  13.706  14.906 -0.2531  0.2620  0.0681
28484W        W44958   7.799  13.941  14.564  0.0134  0.0476 -0.0104
28485W        W44959  11.406   1.075   2.297 -0.1175 -0.2593  0.1965
28486W        W44960   8.954   4.430  12.663 -0.2244 -0.3308  0.0150
28487W        W44961  12.788   9.298   4.067 -0.0661 -0.1408  0.1209
28488W        W44962  12.448   8.201  10.766 -0.0711  0.3021  0.1875
28489W        W44963  18.189  14.180   1.040 -0.1577 -0.1273  0.1358
28490W        W44964  11.609   1.910  13.119 -0.0641  0.0425 -0.0001
28491W        W44965   4.447   0.080   3.161  0.0854 -0.0822 -0.1236
28492W        W44966  17.800   2.852  15.046  0.1935  0.1486 -0.0845
28493W        W44967  18.277  17.016  12.874  0.2318 -0.0528  0.2594
28494W        W44968  11.639  13.150   2.989 -0.0040 -0.1536  0.0500
28495W        W44969   7.082  10.200  15.117 -0.1120  0.0258  0.1033
28496W        W44970  14.758   2.686   1.650 -0.2453 -0.2195  0.3022
28497W        W44971  16.908   1.421   5.321 -0.1562 -0.0773  0.1093
28498W        W44972   9.949   3.890   0.700 -0.3486 -0.2213  0.0852
28499W        W44973   0.433   3.538  13.927 -0.1744 -0.1267 -0.0952
28500W        W44974  13.338   0.001   1.774 -0.1811 -0.2103 -0.3874
28501W        W44975  10.906   9.194   1.735  0.3200 -0.0071  0.1391
28502W        W44976   4.596   6.321  14.257  0.0230  0.0043 -0.0321
28503W        W44977   0.114  18.612   4.944  0.2004 -0.1970  0.0435
28504W        W44978  13.152  15.365  14.367  0.3548  0.3937  0.1517
28505W        W44979  18.877   8.012   4.240  0.2584  0.1365  0.2181
28506W        W44980   8.661   7.283  12.389  0.1633  0.0082  0.0137
28507W        W44981   1.884   1.242  10.807  0.0633  0.0339 -0.0137
28508W        W44982   6.276   7.413   1.549 -0.4016  0.5292  0.0073
28509W        W44983   8.836  14.709   1.674  0.0705 -0.1294 -0.0523
28510W        W44984   0.543  18.982  14.319 -0.1122  0.0321 -0.1130
28511W        W44985  12.718   9.787  13.596 -0.3357  0.0894  0.1149
28512W        W44986   3.738  14.969   1.919  0.1259  0.2712 -0.2219
28513W        W44987  15.856   5.029   2.231 -0.0566 -0.0752 -0.2529
28514W        W44988   1.006   2.275  13.451  0.1633 -0.2251  0.1018
28515W        W44989   4.002  17.874   4.470  0.1510 -0.0485  0.2097
28516W        W44990  17.265  10.689   4.360 -0.0203 -0.3358  0.1934
28517W        W44991  17.014   8.673  12.387  0.0809 -0.3028 -0.1081
28518W        W44992  11.584   1.495  11.627  0.1332 -0.1726 -0.0756
28519W        W44993  15.871  15.067  13.729  0.0425  0.0429 -0.5827
28520W        W44994   3.835   4.144   2.918  0.0076 -0.2546  0.1444
28521W        W44995   0.173   5.526  14.902 -0.2428 -0.0525  0.2705
28522W        W44996  11.472   4.294   1.123 -0.1624 -0.1968 -0.0543
28523W        W44997  14.513  15.061  13.136 -0.0239  0.0004 -0.0299
28524W        W44998   8.119   3.760   3.443  0.2469  0.1976 -0.3156
28525W        W44999   1.638  10.867  11.065  0.0116  0.2441  0.0133
28526W        W45000  16.014   1.019   0.719  0.2399 -0.1246 -0.0311
28527W        W45001  14.926   8.875   3.212  0.2299  0.1486  0.0948
28528W        W45002   2.262  10.166  14.077 -0.0505 -0.0396 -0.3718
28529W        W45003   4.527  12.062  10.846 -0.0084 -0.0844  0.0052
28530W        W45004   2.692   7.241   2.879  0.1688  0.1185 -0.1256
28531W        W45005   5.902  17.152   1.704  0.1057 -0.1674  0.1104
28532W        W45006   9.695  10.280   2.866 -0.3244  0.1541  0.1426
28533W        W45007  13.014   8.678   1.194 -0.1796 -0.1266 -0.2090
28534W        W45008  18.524  17.121   3.628  0.1270  0.1891  0.0314
28535W        W45009   2.394   8.544   2.100  0.1720  0.0506 -0.1691
28536W        W45010   8.107  13.218  13.904  0.2539  0.1190 -0.0809
28537W        W45011   9.705   0.529   0.597 -0.1967 -0.2787  0.0450
28538W        W45012  16.543  14.450  11.836 -0.0054 -0.0592 -0.3195
28539W        W45013   9.581  15.171   4.938 -0.1209 -0.0625 -0.0832
28540W        W45014  13.630   4.063  13.708 -0.0620 -0.0145 -0.0143
28541W        W45015  13.256   7.574   1.431  0.0572 -0.0970 -0.1613
28542W        W45016  15.284  13.356   2.044  0.4341  0.0789  0.0054
28543W        W45017  15.417  17.322  13.670 -0.2950  0.0327 -0.1635
28544W        W45018  12.428   9.979  12.588  0.0485 -0.1648  0.2441
28545W        W45019   4.570  15.498   3.922  0.0875 -0.0853 -0.2903
28546W        W45020   9.590  15.746  13.297  0.0965  0.1465 -0.1418
28547W        W45021   1.849  10.795   0.049 -0.0134  0.4120 -0.3142
28548W        W45022  16.274  13.988  11.025  0.4042 -0.2825  0.0946
28549W        W45023   9.364   1.484  12.605 -0.1642 -0.1866 -0.0222
28550W        W45024   4.464  14.418   3.924  0.0653  0.4235 -0.3790
28551W        W45025  15.167  12.681  10.810  0.1008 -0.0571  0.0663
28552W        W45026   8.587   2.214   3.587 -0.1752  0.0160 -0.0063
28553W        W45027  18.346  17.529  14.335 -0.0968  0.0168  0.1655
28554W        W45028  17.957   8.458   2.430  0.2638  0.0755 -0.2484
28555W        W45029  18.166  14.568  12.713 -0.2215 -0.0357 -0.1082
28556W        W45030   3.073   5.401   1.956 -0.0090 -0.1327  0.0754
28557W        W45031  13.138   8.047   2.162  0.0422  0.1483  0.1075
28558W        W45032  11.059  10.920  13.223 -0.1642 -0.1251  0.2760
28559W        W45033  10.325  17.688   0.730 -0.0668 -0.0047  0.2146
28560W        W45034  13.073  12.149   0.097  0.1084 -0.4054 -0.1756
28561W        W45035   4.027  13.474   9.377 -0.0899  0.1992  0.0900
28562W        W45036   7.970  15.686  11.897 -0.1188 -0.0918  0.0584
28563W        W45037   4.748   7.646   4.627  0.0954  0.2915 -0.0577
28564W        W45038  17.647  16.677   3.379  0.2911  0.1537  0.1150
28565W        W45039   6.067   9.067   0.774  0.1928 -0.0875 -0.0775
28566W        W45040  13.554  16.812   3.726  0.3903 -0.0265 -0.0290
28567W        W45041   5.079  12.304   3.222  0.1138 -0.3295 -0.1134
28568W        W45042  15.857  17.970   1.976 -0.1454 -0.1246  0.0697
28569W        W45043   0.740   0.874   3.992 -0.1135 -0.0307 -0.0413
28570W        W45044   0.992  12.723   4.362 -0.0290 -0.0742 -0.0634
28571W        W45045  10.503  11.586   3.247  0.0074 -0.1483 -0.1336
28572W        W45046  12.781  18.148   3.121 -0.0369  0.0307  0.2120
28573W        W45047   5.202  15.029   4.356 -0.2172 -0.0310  0.0071
28574W        W45048   8.057   1.550  11.913 -0.0411 -0.1140  0.2038
28575W        W45049   4.167   8.769   3.407 -0.0366 -0.1598  0.0430
28576W        W45050  13.811  18.094   3.322 -0.0993  0.1285 -0.2137
28577W        W45051   6.489   7.414  11.044 -0.1733 -0.2076  0.1203
28578W        W45052  11.590   7.210  11.157  0.2315  0.1748 -0.1488
28579W        W45053  17.493  13.835   3.648  0.0074  0.1893 -0.1668
28580W        W45054   0.087   4.204   3.745 -0.0199 -0.0606 -0.2828
28581W        W45055  13.695  14.057   2.797  0.2059  0.2424 -0.2802
28582W        W45056  13.827  14.980   2.038  0.0374  0.1110  0.0137
28583W        W45057  17.995   5.617  14.574 -0.0694  0.0889  0.2843
28584W        W45058  15.202  18.105   5.194  0.3443  0.2097 -0.2542
28585W        W45059   5.287  10.461  11.347 -0.1414 -0.1392  0.3058
28586W        W45060   9.744   9.983   3.665  0.2029 -0.2205  0.0725
28587W        W45061  18.470   9.679   3.791  0.4060 -0.4042 -0.2670
28588W        W45062   2.038  10.367   2.566  0.0080 -0.0892  0.2780
28589W        W45063   4.370   6.195  12.754  0.3742  0.0120  0.0674
28590W        W45064   1.610  13.723  13.462 -0.0653 -0.0612  0.0803
28591W        W45065  18.018   3.635   0.331 -0.0057 -0.2507  0.0267
28592W        W45066  15.335   0.998  13.159 -0.0909 -0.3294  0.3907
28593W        W45067   7.683   6.738  10.499  0.0965 -0.0913  0.2034
28594W        W45068  10.587  11.187   1.777  0.0229 -0.1521 -0.0426
28595W        W45069   8.850   3.522  12.725 -0.1399  0.2325  0.2962
28596W        W45070  11.457  14.481  11.820 -0.1343  0.1471 -0.1272
28597W        W45071   2.489   2.572   5.941 -0.0212  0.0098  0.0369
28598W        W45072   6.831  15.291  12.837 -0.0661  0.0436  0.1547
28599W        W45073  15.472   2.472   4.045 -0.3317  0.2073  0.1659
28600W        W45074   3.523   5.131  12.411 -0.0515  0.0182 -0.2982
28601W        W45075  12.500   7.975   0.345  0.1016  0.1010 -0.3258
28602W        W45076   5.431  12.450  14.799  0.0290  0.0812  0.3976
28603W        W45077  10.706  16.798   3.005  0.1165  0.4275  0.3540
28604W        W45078   2.358  13.321  13.592 -0.3032  0.1352 -0.0640
28605W        W45079  13.196  17.907  12.793  0.0005 -0.1359 -0.0939
28606W        W45080   3.412   7.304  13.697  0.4898  0.1393  0.1445
28607W        W45081  15.856  13.248   4.286 -0.1393  0.1023 -0.2829
28608W        W45082  15.870   7.208  14.747  0.3417 -0.0458  0.1828
28609W        W45083  16.600  16.993   1.339 -0.0180 -0.1235 -0.0133
28610W        W45084   6.620   5.688   5.316  0.1145 -0.1585 -0.1180
28611W        W45085  10.563  11.583   3.750 -0.0948  0.4459 -0.0379
28612W        W45086   5.505   9.579   2.764  0.1915 -0.0910 -0.1411
28613W        W45087  14.548  19.076  12.898 -0.0922 -0.2186  0.0410
28614W        W45088   5.245   7.414   4.841 -0.0119 -0.2324 -0.0668
28615W        W45089  16.287  14.042   0.751  0.2188 -0.0056 -0.0067
28616W        W45090  12.946  11.051   3.350  0.0491 -0.1312 -0.2027
28617W        W45091  18.126  18.293   1.246 -0.0302 -0.0974  0.0881
28618W        W45092   9.524  10.140  12.573  0.1094 -0.2020 -0.0059
28619W        W45093  11.948  11.317  14.422 -0.5189  0.4083 -0.3200
28620W        W45094  11.709   6.753  14.639 -0.0331  0.0347  0.1794
28621W        W45095  13.412  13.213  14.771 -0.4813  0.0731 -0.1320
28622W        W45096  14.394  11.095   2.102 -0.0498  0.0477  0.0173
28623W        W45097   7.697  16.656  10.907  0.1111 -0.1078 -0.3076
28624W        W45098   9.295  17.713  14.666 -0.0466  0.0608  0.0518
28625W        W45099   8.318  15.538  12.580 -0.1599  0.3370  0.3705
28626W        W45100   3.199  18.134  12.306  0.1641  0.1605 -0.0810
28627W        W45101  11.442  10.883   0.261 -0.0247  0.3344 -0.2467
28628W        W45102  14.075  13.820  11.702 -0.0123  0.0710  0.1714
28629W        W45103   2.873  12.408  11.132 -0.1050 -0.1902 -0.2430
28630W        W45104   1.125  16.845  13.974 -0.0885 -0.0488 -0.1842
28631W        W45105  12.605   1.599   0.171 -0.1285  0.0702  0.2406
28632W        W45106   9.840   1.219  14.383 -0.1790  0.0011  0.1015
28633W        W45107  15.913  13.908   9.833 -0.2376  0.0476  0.2859
28634W        W45108  14.527  10.916   0.884  0.0978 -0.0599 -0.3383
28635W        W45109   2.536  14.224   5.186  0.2708  0.2628 -0.1062
28636W        W45110   4.455  13.916   1.886 -0.0563 -0.3037 -0.4613
28637W        W45111  10.732   4.282  14.072  0.0611 -0.1865  0.0666
28638W        W45112  17.609   8.533  13.161  0.0958 -0.0638  0.1056
28639W        W45113   7.612   3.526   0.073  0.2922 -0.1031 -0.0206
28640W        W45114  11.237  14.419  12.355  0.0514  0.0279  0.1444
28641W        W45115   5.305   8.401  14.568 -0.0798 -0.2354 -0.3302
28642W        W45116   5.455   5.853  13.171  0.0535 -0.1745 -0.1467
28643W        W45117  12.381  10.915  13.174  0.1671 -0.0183 -0.1613
28644W        W45118  13.622   8.177   0.816 -0.2032 -0.4070 -0.1513
28645W        W45119   3.399   9.054  11.576  0.2884  0.2797 -0.0519
28646W        W45120   3.106  12.945   3.683  0.0677 -0.1981  0.5754
28647W        W45121   4.617   9.628   4.807 -0.0756 -0.0768 -0.5077
28648W        W45122  12.675  16.113   4.627 -0.2511  0.0805 -0.0897
28649W        W45123  15.022  11.593   4.542  0.0912 -0.0467  0.0944
28650W        W45124  14.802  10.812  11.172  0.1802  0.3629 -0.0789
28651W        W45125  15.903   3.416   4.842  0.3546  0.3494  0.0009
28652W        W45126   7.557  12.905  13.119 -0.2590  0.0741  0.1115
28653W        W45127  18.662   3.088   0.460  0.0115 -0.0232  0.4608
28654W        W45128   8.544   2.574  14.399  0.0377  0.1449 -0.0569
28655W        W45129   4.474  16.566  14.872 -0.1762 -0.1041 -0.0117
28656W        W45130  17.292  14.947  14.774 -0.1774  0.2001 -0.1806
28657W        W45131  13.794   3.287  14.383 -0.1136 -0.1503 -0.0666
28658W        W45132  10.819   2.896   2.799  0.0957 -0.2117  0.2048
28659W        W45133  13.481   4.165   1.263 -0.0983 -0.1693  0.0286
28660W        W45134  13.568   5.174  12.539 -0.1414  0.2020 -0.0381
28661W        W45135  17.644   9.790   4.320 -0.3157 -0.3986  0.2095
28662W        W45136  17.752   6.676   3.679 -0.0025 -0.0709  0.1052
28663W        W45137   7.936  15.934  12.715 -0.3275 -0.4158 -0.0123
28664W        W45138   1.511   3.142   5.180 -0.1806 -0.2932  0.0627
28665W        W45139   4.872  14.842  14.555  0.0637  0.2689 -0.2701
28666W        W45140  18.044  13.888   2.508 -0.2639 -0.1021 -0.1705
28667W        W45141   3.869   4.614   4.743  0.2316 -0.0765 -0.0777
28668W        W45142  17.230  18.543  12.169 -0.1402  0.1777 -0.4217
28669W        W45143  14.800   7.466   1.502  0.1115 -0.0243 -0.0592
28670W        W45144   2.796   7.477  15.037 -0.0374  0.0549  0.0724
28671W        W45145  12.270  17.055   1.438 -0.0819 -0.0114 -0.0385
28672W        W45146   3.993  13.188   3.127  0.2323  0.0528  0.0193
28673W        W45147  16.781   9.002   3.359  0.0700  0.0820  0.3656
28674W        W45148   8.811   8.766  12.336  0.1782  0.2038  0.1546
28675W        W45149   8.583  18.097   5.016  0.4249 -0.1740  0.1945
28676W        W45150   3.981   5.566   0.510 -0.2915 -0.0464 -0.0446
28677W        W45151  15.672  18.144  14.631  0.0259 -0.1217 -0.0764
28678W        W45152   9.123   6.390  10.708  0.0170  0.2322  0.1634
28679W        W45153  10.094  13.771  12.679 -0.1471 -0.0577  0.0770
28680W        W45154  17.804  17.173  12.160 -0.0310 -0.0566 -0.0349
28681W        W45155  17.149   0.049   0.380  0.0768  0.1498 -0.1380
28682W        W45156  14.505   3.106   0.001  0.2837 -0.1922 -0.0904
28683W        W45157   7.156   0.050   4.338  0.1651 -0.1929  0.1123
28684W        W45158   2.058  14.636  14.545  0.1259  0.0285  0.0177
28685W        W45159  17.774  15.579   1.019  0.0574  0.3498 -0.1184
28686W        W45160  10.622   4.817  14.135 -0.3629  0.1232 -0.2993
28687W        W45161   4.471   1.942   3.325 -0.0788 -0.2490 -0.2174
28688W        W45162  11.739  10.479   0.134 -0.0575  0.1148 -0.0444
28689W        W45163  12.695  14.101  15.026 -0.0335 -0.2042 -0.3027
28690W        W45164   0.950   0.335  14.498 -0.0165 -0.0193  0.1820
28691W        W45165   5.897   5.232   0.641 -0.0301 -0.3530 -0.0454
28692W        W45166   1.575  16.457  13.091  0.1662 -0.2736 -0.2060
28693W        W45167  14.206   1.605   4.652 -0.0816  0.1093  0.1263
28694W        W45168  16.590   9.340  14.502 -0.2415  0.0505 -0.1164
28695W        W45169   7.671  17.144   3.025  0.3053  0.0740 -0.3395
28696W        W45170  13.832  13.055   3.375 -0.0724 -0.1383 -0.2654
28697W        W45171   5.451  12.947  14.923 -0.0101 -0.0011 -0.2113
28698W        W45172   7.367   4.150   0.558 -0.2871  0.0838  0.1391
28699W        W45173   7.922   9.246  11.338 -0.2381  0.1594  0.0607
28700W        W45174   3.920   1.973   5.151  0.0596  0.1643  0.1590
28701W        W45175   0.305  13.036  11.575 -0.0181 -0.1105  0.4553
28702W        W45176  12.174   1.359   0.160  0.0454  0.2059 -0.1715
28703W        W45177   4.179  10.849   2.451  0.0470 -0.2234  0.0667
28704W        W45178  13.844  10.791  14.465 -0.3801  0.1061 -0.0435
28705W        W45179  16.098   4.655   4.608 -0.2390 -0.0504 -0.0137
28706W        W45180   3.613  11.706   2.008  0.0490 -0.0685 -0.2886
28707W        W45181  11.914  15.344  11.409  0.3833 -0.0685 -0.3592
28708W        W45182  13.587  13.434  12.611 -0.0192 -0.0284  0.2751
28709W        W45183   6.806  17.180  14.075  0.0739  0.1369  0.2532
28710W        W45184  11.596  16.166   0.525  0.2647  0.1789  0.2791
28711W        W45185   7.706   1.136  13.297 -0.0054  0.1709 -0.0908
28712W        W45186   9.425  13.409   9.958  0.3539 -0.1363  0.2869
28713W        W45187   1.111   0.621   4.377 -0.1962 -0.0333  0.1314
28714W        W45188  15.629  12.122   3.984  0.2598 -0.1149  0.0281
28715W        W45189  14.723  16.696   0.371 -0.1552 -0.0842 -0.2364
28716W        W45190  16.689  13.783  13.619 -0.3064  0.2235  0.1055
28717W        W45191  10.389  11.077   3.928 -0.3892 -0.1306  0.2631
28718W        W45192  17.483  14.786   3.732  0.0203  0.1396 -0.2252
28719W        W45193  11.833  12.797  13.539 -0.1708  0.2458 -0.3414
28720W        W45194   1.737  18.130   1.690  0.1277 -0.0791 -0.0341
28721W        W45195  11.846   0.198  10.206 -0.0913 -0.0886  0.2006
28722W        W45196   3.306   4.704  12.570  0.1221 -0.1652 -0.5408
28723W        W45197   8.716   8.209   5.036  0.0252 -0.0690  0.1255
28724W        W45198  15.903   6.716   3.871  0.0238  0.1056  0.1638
28725W        W45199   2.965  18.553  13.371  0.0403  0.2008  0.1008
28726W        W45200   9.280  17.637  10.543  0.2724 -0.3493  0.2603
28727W        W45201   3.373  15.929  12.858  0.2139 -0.0969 -0.0227
28728W        W45202  14.736  17.128   4.413 -0.0704 -0.1230  0.2069
28729W        W45203  13.494  16.863  12.333 -0.0303 -0.2678  0.1229
28730W        W45204   2.789  11.563   3.773 -0.0835 -0.1902 -0.2180
28731W        W45205   8.162   4.492  13.656  0.1437 -0.1296 -0.0589
28732W        W45206   7.121   4.927  12.817 -0.1737 -0.1804  0.0304
28733W        W45207   3.936  10.784   3.416  0.2853  0.2273  0.0272
28734W        W45208  15.889   0.089   5.716 -0.0027 -0.1811  0.1637
28735W        W45209  18.140   0.335   0.309  0.0212 -0.0782 -0.0466
28736W        W45210   4.328  16.907  13.813  0.3861  0.1126  0.2894
28737W        W45211  17.810  17.785  10.133 -0.3149 -0.1730  0.1191
28738W        W45212   5.322   4.562  12.210  0.1601 -0.1927  0.0406
28739W        W45213   2.637  17.160   3.689  0.2997 -0.1059  0.0921
28740W        W45214  11.569  15.937  15.125  0.1794  0.2724  0.1454
28741W        W45215  12.176   0.571   4.579 -0.1721 -0.0058 -0.0136
28742W        W45216   9.344   6.619   3.315 -0.2823  0.0536  0.2321
28743W        W45217  19.083   1.977   1.475  0.0911 -0.1826  0.2286
28744W        W45218   7.455  15.331   2.730 -0.1415  0.0697 -0.2150
28745W        W45219  17.736   4.900  10.868 -0.0974 -0.0426 -0.1711
28746W        W45220   6.154   6.351  11.524 -0.1496 -0.0196 -0.1715
28747W        W45221   2.754   2.586   0.904 -0.2105  0.1137  0.1502
28748W        W45222   7.911   8.038   1.679  0.1198 -0.1297 -0.5253
28749W        W45223  18.387   1.211  10.184  0.0925 -0.0003 -0.0197
28750W        W45224   3.453   4.977  15.021  0.1355 -0.0767  0.0128
28751W        W45225   8.488   3.140   3.488 -0.2567  0.2350 -0.1983
28752W        W45226   2.631  13.802   4.980  0.0186  0.3099 -0.2073
28753W        W45227   8.204  15.098  13.190  0.0306 -0.4394  0.0649
28754W        W45228  16.280  14.954   1.389 -0.1361  0.1845 -0.1052
28755W        W45229   6.107   5.839  10.316  0.0371  0.1432 -0.2022
28756W        W45230  17.991   4.532   2.482 -0.0275 -0.0531 -0.0545
28757W        W45231   1.028   6.243   3.186  0.3919  0.1565 -0.1366
28758W        W45232  15.340   9.637  11.516 -0.1873  0.2693  0.3924
28759W        W45233   7.258  16.098   1.887  0.1244 -0.0089 -0.2208
28760W        W45234   6.050  15.171   0.857  0.1079  0.0402 -0.0459
28761W        W45235   6.241   3.013  12.022  0.1691  0.1471  0.2988
28762W        W45236  13.635  15.477   2.984  0.0016  0.2110  0.1066
28763W        W45237  11.504   7.398  14.077 -0.1965  0.1985 -0.0873
28764W        W45238  18.527  19.066   5.201 -0.3136  0.2098 -0.1842
28765W        W45239   8.453  16.141  15.131  0.2313  0.0451  0.1450
28766W        W45240  14.244  15.459  13.171  0.1181 -0.0668  0.0303
28767W        W45241   6.170   4.894   2.498  0.2294 -0.1401 -0.1900
28768W        W45242   3.854  16.430  14.992 -0.2036  0.2550  0.2712
28769W        W45243  17.372   3.445   2.064 -0.1588  0.0768  0.1287
28770W        W45244   8.783   6.902   2.815  0.0958  0.2116 -0.1397
28771W        W45245  12.260  17.869   4.332  0.1005  0.1245  0.0408
28772W        W45246   6.340   8.132   4.885  0.0581  0.1997 -0.1433
28773W        W45247  14.057   8.644   2.700  0.1905  0.0949 -0.0285
28774W        W45248  13.456  12.240  13.841 -0.0550 -0.2001 -0.0504
28775W        W45249  11.377  17.684  13.191  0.0264 -0.2341 -0.2713
28776W        W45250   1.737  16.634  13.567  0.1686  0.0589 -0.0256
28777W        W45251   1.424   8.326  12.346 -0.2319  0.0005 -0.0816
28778W        W45252  15.524  16.829   3.671 -0.1921  0.0401 -0.1125
28779W        W45253  17.247   8.662   3.418 -0.3085  0.0089  0.0893
28780W        W45254   9.114   1.718  14.226  0.0624  0.0373 -0.1727
28781W        W45255  10.645  15.563  13.897 -0.3570  0.0167 -0.2781
28782W        W45256   3.178   6.531   4.538 -0.0466 -0.0954 -0.2189
28783W        W45257   5.831  17.474   3.500 -0.2952  0.2617 -0.0707
28784W        W45258  14.555   7.306  11.140 -0.0197  0.0737  0.2753
28785W        W45259  15.173  13.624   0.483  0.0470  0.1485  0.0089
28786W        W45260  14.503  10.238   3.745 -0.0948  0.0757  0.0134
28787W        W45261   9.312  18.049  13.657 -0.3012  0.2422  0.3708
28788W        W45262   5.598  11.657  14.498  0.2040  0.0253  0.2526
28789W        W45263   9.162   3.072   2.811  0.0028  0.1468  0.0779
28790W        W45264  17.591  16.122   3.642  0.1668  0.2741  0.0036
28791W        W45265  11.095  10.906  13.830 -0.1196 -0.1489  0.2001
28792W        W45266  14.830   7.295   5.200  0.1591 -0.0210 -0.0568
28793W        W45267   0.810  16.110  13.279  0.1809 -0.2307  0.2387
28794W        W45268   8.185  18.612  11.710  0.0048 -0.0151  0.2230
28795W        W45269  18.304  11.574   3.547  0.2341  0.1484 -0.0017
28796W        W45270   9.407   2.657   1.232  0.0434 -0.0920  0.1078
28797W        W45271   8.217  15.896   5.325 -0.0060  0.0649 -0.3305
28798W        W45272   8.380  13.683  13.869 -0.2906 -0.2266 -0.0591
28799W        W45273   2.041  15.613   4.858  0.2202 -0.3159  0.0517
28800W        W45274   4.719  14.404   5.339  0.0391 -0.0497 -0.4542
28801W        W45275   2.121   1.205  12.688 -0.1902 -0.1715  0.0281
28802W        W45276  18.281   7.972  10.441 -0.0115 -0.0786 -0.1166
28803W        W45277   8.727  10.419  12.252 -0.1672  0.2986 -0.0473
28804W        W45278  14.355  15.402   0.875 -0.0608  0.2096 -0.3803
28805W        W45279   0.405   9.325  12.179 -0.2459  0.4393  0.2969
28806W        W45280   8.451   0.955  14.923  0.0669  0.2052 -0.1305
28807W        W45281   8.670   4.378   3.937 -0.0941 -0.3017  0.1047
28808W        W45282   4.842   8.854   1.083 -0.0377 -0.0025  0.1820
28809W        W45283   0.387  16.580  11.363 -0.0131  0.1103 -0.1830
28810W        W45284  18.198  12.505   2.338  0.4017  0.1175 -0.1043
28811W        W45285   9.043   2.146   2.461 -0.1887  0.4523 -0.0643
28812W        W45286   6.844   5.473   5.746 -0.0472  0.1824  0.1703
28813W        W45287   6.270  17.872   1.396  0.0676 -0.1942  0.1436
28814W        W45288  14.160   7.626  13.793  0.2149 -0.1761 -0.3379
28815W        W45289   4.883  16.216   0.753  0.1447  0.2270  0.0306
28816W        W45290   9.683   5.771   1.580 -0.1614  0.0875  0.1316
28817W        W45291   3.977   8.538   4.600  0.2748  0.1115  0.1947
28818W        W45292  16.344  12.978  12.734  0.1070  0.0319  0.0511
28819W        W45293  12.512  12.493  14.340 -0.0398  0.0298  0.2125
28820W        W45294  10.092  10.704  11.063 -0.0567 -0.1474 -0.0898
28821W        W45295  12.492   6.094   4.737 -0.1957  0.0639 -0.2692
28822W        W45296   5.416   5.363  14.059  0.0451 -0.0975  0.0427
28823W        W45297  13.155  15.527   3.048 -0.2469  0.1299  0.0208
28824W        W45298  16.821  14.557  14.141 -0.0554 -0.1047 -0.0419
28825W        W45299   4.985   3.598  11.933  0.1235 -0.0660 -0.0651
28826W        W45300   4.673  11.147  13.979  0.0045 -0.0128 -0.1068
28827W        W45301  17.830   2.775   1.347 -0.3356  0.0711 -0.3077
28828W        W45302  10.407  13.472   1.472  0.0200  0.2022  0.2113
28829W        W45303   6.186   5.744  14.914 -0.0377 -0.1910 -0.3351
28830W        W45304  14.962   3.009   1.229  0.2687  0.1582  0.2616
28831W        W45305   8.901  11.099   5.060  0.2607  0.0396 -0.1245
28832W        W45306  17.823  16.087   0.539  0.0123 -0.1905 -0.1422
28833W        W45307  11.033   5.565  14.661  0.0487  0.2743  0.4250
28834W        W45308   1.030   4.886   9.645 -0.1914  0.0981 -0.0485
28835W        W45309   6.257  11.317   0.525 -0.1955  0.1226 -0.0819
28836W        W45310  17.224   3.139   4.892 -0.1951  0.4025  0.1148
28837W        W45311   7.721  18.610  10.705  0.3268  0.1129 -0.0749
28838W        W45312   5.791  15.471  11.122 -0.0058  0.0253  0.0813
28839W        W45313   2.212  15.044   0.914  0.0557  0.0956  0.0147
28840W        W45314   4.285   7.623   2.457  0.0642 -0.3445 -0.0628
28841W        W45315   1.716  17.883   2.657  0.1589  0.0284 -0.1366
28842W        W45316  10.715  15.670   0.114 -0.1270 -0.0315  0.0890
28843W        W45317  12.758   3.422   4.888  0.0021  0.0349 -0.0633
28844W        W45318  17.353   5.217   4.610  0.0474  0.0749  0.2807
28845W        W45319  10.299   4.605   0.035 -0.0947  0.0434  0.0531
28846W        W45320   7.414   7.200   1.540  0.1337 -0.0115  0.1025
28847W        W45321  13.053   3.804   3.423 -0.0784  0.2011  0.0493
28848W        W45322   5.137   6.325   2.701 -0.0181 -0.0784  0.2297
28849W        W45323  19.055  15.636   4.563  0.0854  0.0488  0.3602
28850W        W45324  15.704   4.072   1.640 -0.1162  0.4381  0.0327
28851W        W45325  14.836   0.526   1.820  0.1770  0.0131 -0.0498
28852W        W45326   7.247  16.483   3.538 -0.1182  0.0602 -0.1040
28853W        W45327  11.604   4.848   3.288 -0.0728 -0.1658 -0.0072
28854W        W45328  19.013   8.311   3.824 -0.0258 -0.3634  0.0848
28855W        W45329  16.520   1.539   5.060  0.0936 -0.0375  0.0804
28856W        W45330   8.277  14.383  13.258 -0.2421  0.4578  0.0500
28857W        W45331  18.744  12.734   0.293 -0.2419  0.0515 -0.1875
28858W        W45332  17.289   1.140   4.158  0.0777 -0.3137  0.1125
28859W        W45333  12.877  15.138  12.013  0.0790  0.3056 -0.0881
28860W        W45334  17.712   3.197   3.872  0.1396 -0.1014  0.0474
28861W        W45335   4.638   8.586   2.053  0.3166  0.0538 -0.3511
28862W        W45336  18.303   5.510   3.258 -0.3585 -0.0062 -0.4212
28863W        W45337   6.913   4.395   0.173 -0.1005 -0.2479 -0.0476
28864W        W45338   7.211  13.791   1.415 -0.2672 -0.0710  0.3904
28865W        W45339   5.515  10.612   1.163  0.0100  0.1968  0.0467
28866W        W45340   3.822  19.130  12.402  0.0677 -0.0057  0.3983
28867W        W45341   4.718  15.034   2.651 -0.0438  0.1460  0.0593
28868W        W45342   6.474   7.316  10.573  0.4527  0.1174 -0.0281
28869W        W45343  18.618  11.838  14.305 -0.1360  0.0280 -0.1261
28870W        W45344  10.632   9.751  14.969 -0.0306  0.4146  0.0872
28871W        W45345   0.613   6.092  10.551  0.1178  0.2549 -0.0832
28872W        W45346   0.567  11.702   0.700  0.3350  0.1402  0.4123
28873W        W45347  14.054   0.537   3.776  0.0060 -0.0227 -0.2855
28874W        W45348  19.018   4.312  12.074 -0.0952  0.1689 -0.2704
28875W        W45349   3.067  10.705  12.311  0.1085  0.1520 -0.0108
28876W        W45350   6.448   7.259   0.726 -0.0151 -0.1830 -0.1649
28877W        W45351  17.214  11.611  13.516  0.0966  0.0297  0.0210
28878W        W45352   0.034   5.079   4.462 -0.1241 -0.1996 -0.0716
28879W        W45353   0.903   4.781   2.980  0.3008 -0.3262 -0.2278
28880W        W45354   1.403  14.126  14.334 -0.3249  0.0595  0.1306
28881W        W45355  14.564  11.561  11.349  0.1977 -0.1185 -0.0885
28882W        W45356   0.664  18.636  12.593  0.1961  0.0901 -0.1278
28883W        W45357  15.099   1.272  13.707  0.2451 -0.0424  0.1416
28884W        W45358   2.155  12.055  12.158  0.0014  0.1544  0.2215
28885W        W45359   4.948   5.899   2.424  0.2285 -0.2312 -0.0395
28886W        W45360   9.903   8.510   0.578 -0.0637  0.0761  0.1835
28887W        W45361  16.957  16.617  13.004  0.0078 -0.0477  0.3001
28888W        W45362   5.615  13.239   4.194 -0.0426  0.0219  0.0210
28889W        W45363   5.873  18.834   2.028  0.0823  0.0618  0.0809
28890W        W45364   0.214  11.595  14.369 -0.1317 -0.0101 -0.1822
28891W        W45365  16.502  16.201  13.708  0.1684 -0.0576 -0.3487
28892W        W45366  17.393  11.483   3.349 -0.1565  0.0578 -0.5532
28893W        W45367   6.294   2.288   2.984 -0.1503 -0.0438 -0.0735
28894W        W45368  13.850   0.552  11.804 -0.0272 -0.1835 -0.0798
28895W        W45369  12.758   5.324   0.141  0.0964  0.3453 -0.3183
28896W        W45370  10.832   1.639   0.969 -0.1577  0.2255  0.0550
28897W        W45371  14.067  15.496  12.658  0.3562  0.0110  0.2632
28898W        W45372  16.479   2.678  12.284  0.3191 -0.2986  0.0318
28899W        W45373  13.614  18.356  13.477  0.2185 -0.0173 -0.1579
28900W        W45374  12.199  14.516   5.311 -0.3263 -0.2047  0.3708
28901W        W45375  17.205  16.216   3.222 -0.0767  0.1859 -0.3378
28902W        W45376  18.069  16.912   0.025  0.1430 -0.2922 -0.1594
28903W        W45377  17.378   9.895  12.083 -0.2781 -0.1619  0.1086
28904W        W45378  18.582  11.214   1.309 -0.0343  0.0500  0.2463
28905W        W45379  19.158  17.841   5.953  0.1539  0.0631 -0.3030
28906W        W45380  13.141   0.710   0.125  0.1309 -0.4639  0.0151
28907W        W45381   2.549  18.301  13.772  0.3799  0.0564 -0.0712
28908W        W45382  13.018  11.545  12.015  0.2008  0.0563  0.1522
28909W        W45383   4.522  19.055   0.849  0.0255  0.0030  0.1183
28910W        W45384  10.172   3.765  13.115 -0.0935 -0.0037 -0.1113
28911W        W45385   4.952  13.412   4.501  0.3811 -0.2999  0.4940
28912W        W45386  15.519   7.910   2.433 -0.0942 -0.1843 -0.1925
28913W        W45387  15.443  18.492   3.519 -0.2639  0.0909  0.0966
28914W        W45388   0.235  17.946  13.547 -0.1930  0.1632 -0.0120
28915W        W45389  13.011   7.502  10.027 -0.0420  0.2081 -0.1135
28916W        W45390   6.819  15.750  10.666  0.0698  0.2260  0.1601
28917W        W45391   0.431  17.831   0.068 -0.0048 -0.0927  0.0280
28918W        W45392   0.740   5.317   3.059 -0.0624  0.0541 -0.2253
28919W        W45393   0.987   9.361   2.941  0.0461  0.1352  0.2409
28920W        W45394   2.417   6.099  14.092  0.0725 -0.3093  0.2093
28921W        W45395  13.623   3.814   3.572  0.0594 -0.1040 -0.1799
28922W        W45396   8.608  16.006   4.956  0.2551  0.2323 -0.2740
28923W        W45397  18.572  13.575  14.400  0.1272 -0.0754  0.0809
28924W        W45398   3.788  16.199   3.587 -0.2253 -0.0494  0.1047
28925W        W45399  18.369   3.191   6.211 -0.1299 -0.0439 -0.0232
28926W        W45400   6.762   6.527  13.802  0.3159  0.1483 -0.1035
28927W        W45401   5.779   4.968   4.123 -0.1569  0.0227 -0.0475
28928W        W45402   3.217  10.975  14.335  0.1547 -0.1154  0.0185
28929W        W45403   2.495   4.426   0.917 -0.0805 -0.0950  0.2324
28930W        W45404  17.832  11.983  14.294  0.0688  0.4426  0.1223
28931W        W45405  12.968  16.753   3.085  0.1569 -0.3091 -0.0574
28932W        W45406   7.441  18.411  13.654 -0.3319 -0.1208 -0.1731
28933W        W45407   0.822   9.736  14.438  0.0616  0.2121  0.3230
28934W        W45408  14.751   0.395   2.875  0.1237 -0.3392  0.0107
28935W        W45409   5.613   7.538   5.804  0.0226 -0.0569  0.1908
28936W        W45410  13.955  15.270  11.744 -0.0149  0.0152 -0.0617
28937W        W45411   0.615   1.387   1.740 -0.0041  0.1221 -0.1715
28938W        W45412   9.286  13.298  13.117 -0.4322  0.1717 -0.1044
28939W        W45413   5.260  11.043  13.713 -0.4134  0.1310  0.2884
28940W        W45414  13.424   0.374  13.529 -0.0842 -0.0042  0.1733
28941W        W45415  13.993  11.239  14.700 -0.0750  0.1220 -0.0634
28942W        W45416  10.800  10.545  14.557 -0.0278  0.2391  0.0139
28943W        W45417   6.410   3.447   9.693  0.1368  0.0300  0.1694
28944W        W45418  15.294  13.012   3.013  0.0186 -0.0026  0.1134
28945W        W45419  16.414   2.825   1.594 -0.4186 -0.0963  0.1620
28946W        W45420   7.241  12.305   4.718 -0.1825  0.0328 -0.1350
28947W        W45421  10.431   7.215  13.018  0.1200  0.0022 -0.4866
28948W        W45422   0.776   9.299   3.821  0.0377 -0.2047  0.2668
28949W        W45423   1.257   4.525  11.649  0.1850 -0.1083 -0.2765
28950W        W45424  17.236  16.243   0.887 -0.2164 -0.0106 -0.1489
28951W        W45425   6.226   0.343  11.492 -0.0107 -0.1265  0.1642
28952W        W45426  17.468   0.287  13.694  0.2531 -0.1242  0.0316
28953W        W45427  17.511  17.845  14.723 -0.3158  0.2735  0.1022
28954W        W45428   4.825   9.645   3.545  0.4844 -0.1614 -0.4522
28955W        W45429  10.302   7.143  10.832  0.1059  0.1842  0.0572
28956W        W45430  17.420   6.113  13.353 -0.0411 -0.0746 -0.0622
28957W        W45431   1.648   5.739  12.350 -0.0662 -0.0030  0.0686
28958W        W45432   7.813  12.550   3.798  0.3290  0.1342 -0.2802
28959W        W45433   2.316  11.128   3.873 -0.3956  0.0891 -0.2763
28960W        W45434  16.061  12.473  12.620 -0.2895  0.1744 -0.2389
28961W        W45435  12.186  14.298   4.191 -0.1182  0.4039 -0.0381
28962W        W45436  11.608  10.993   0.776  0.0551 -0.2148 -0.2624
28963W        W45437   0.191  15.901   1.559  0.1998 -0.0578  0.1309
28964W        W45438  13.336   8.470  11.085  0.0006  0.2322 -0.0380
28965W        W45439  11.814   3.207  13.612  0.2290 -0.0418 -0.0363
28966W        W45440   6.698   5.568   2.308  0.0305  0.1455 -0.2651
28967W        W45441   7.163   7.657   4.696  0.1752  0.0752  0.1230
28968W        W45442   5.828   6.697  10.680 -0.0562 -0.0697 -0.0405
28969W        W45443  18.766   2.081   0.443 -0.2251  0.0239 -0.2759
28970W        W45444   8.474  16.010   2.226 -0.0769  0.1177  0.2895
28971W        W45445   3.942  14.242  10.921 -0.1417  0.2688 -0.0527
28972W        W45446  19.105  14.983  15.064 -0.4516 -0.1321  0.1461
28973W        W45447  15.912  18.621   0.904 -0.0836 -0.1472  0.2671
28974W        W45448  18.941  10.404  14.330 -0.1440 -0.0014 -0.0642
28975W        W45449  13.724   9.364   4.004  0.2157 -0.1951  0.1853
28976W        W45450   9.511  13.557   1.861 -0.0721 -0.2400  0.0491
28977W        W45451   1.162  17.876   3.641 -0.0127 -0.0199 -0.0740
28978W        W45452  15.696   5.354  14.511  0.1650  0.0329  0.1435
28979W        W45453   4.840  11.930  12.175 -0.1115 -0.0968  0.1651
28980W        W45454  18.448   1.600  11.696 -0.4461  0.1019 -0.0834
28981W        W45455   9.088  12.696  11.334  0.1720 -0.1815 -0.2254
28982W        W45456  10.366  16.150  10.584 -0.0678 -0.2862 -0.1824
28983W        W45457  11.362  13.748  14.287  0.0107  0.1317  0.3175
28984W        W45458  11.944   3.184   1.551  0.1282  0.1905 -0.1378
28985W        W45459   7.973   2.122   0.495  0.0487 -0.1167  0.3277
28986W        W45460  10.790   1.785   0.025 -0.0073 -0.2144 -0.4113
28987W        W45461  10.063   8.024   4.972 -0.2412 -0.2412  0.1454
28988W        W45462   7.458   0.214   1.621 -0.1098  0.0499 -0.0892
28989W        W45463  10.054   6.111  13.001  0.1770 -0.0273 -0.0378
28990W        W45464   7.127   4.553  11.580  0.0904 -0.0365  0.3002
28991W        W45465   2.987  13.763   1.700  0.0851  0.2129 -0.1399
28992W        W45466   1.581   8.739  15.030  0.4448 -0.0183  0.2751
28993W        W45467   5.913   0.239  14.991  0.3859 -0.0934  0.0851
28994W        W45468  10.699   6.463   1.746 -0.1337  0.1658  0.1402
28995W        W45469  11.976   0.316   2.395 -0.1155 -0.2463  0.1443
28996W        W45470   7.971   2.491  12.270 -0.0493  0.1265 -0.4308
28997W        W45471   0.639  12.577   2.605 -0.1592  0.1950  0.0878
28998W        W45472   8.178  12.032  14.546  0.0485  0.0473  0.1581
28999W        W45473  12.220   2.986   3.574 -0.0417 -0.3172 -0.0595
29000W        W45474   0.033  12.109  13.450  0.2108  0.1607  0.0146
29001W        W45475   4.277  11.852   0.038 -0.0876  0.2175 -0.0077
29002W        W45476   7.904  16.713   1.487  0.1550 -0.0179  0.0775
29003W        W45477  18.918   0.769   3.829 -0.0683 -0.0039  0.2611
29004W        W45478  11.861  17.353  10.508  0.1258  0.1237 -0.0508
29005W        W45479   0.550   9.363   0.113  0.1107  0.0693 -0.0352
29006W        W45480   3.249   8.265  12.051  0.3053  0.0381  0.2772
29007W        W45481  14.190  14.575   3.089  0.0057 -0.0008  0.0848
29008W        W45482   9.028  13.429  12.242  0.1301  0.1417 -0.2276
29009W        W45483   3.170  14.833   2.535 -0.3873  0.1965  0.1664
29010W        W45484   6.165  13.784   3.833 -0.1089  0.1679  0.0565
29011W        W45485   7.284   9.308   3.867 -0.1415 -0.0129 -0.2958
29012W        W45486   7.264  11.932  14.067 -0.2679  0.0035  0.1888
29013W        W45487  15.953   4.078  12.996  0.1275  0.1262  0.0248
29014W        W45488  10.432   4.987   1.235 -0.1026  0.3823  0.1157
29015W        W45489  13.650   6.338  11.532  0.2276 -0.2067  0.1831
29016W        W45490   1.715  12.922   3.844 -0.1926 -0.0688 -0.0781
29017W        W45491   9.704   6.720   4.630 -0.0263 -0.3127 -0.2585
29018W        W45492  13.707   9.923   0.715  0.1174  0.0276 -0.1287
29019W        W45493   0.248   6.111   2.749  0.0363  0.1226 -0.1050
29020W        W45494   9.479  12.866  11.040  0.0578  0.1245  0.1083
29021W        W45495  17.122  10.238   2.176 -0.4306 -0.2786 -0.1776
29022W        W45496  16.802  16.284   0.285  0.1223  0.3700  0.1016
29023W        W45497  18.618  14.440   1.224  0.3181  0.3645 -0.0768
29024W        W45498  10.241  15.772   5.046  0.0576 -0.1160  0.0192
29025W        W45499  17.862  16.849  14.602 -0.0854 -0.0271  0.0732
29026W        W45500  12.058  19.064  15.057 -0.3254 -0.4016 -0.3469
29027W        W45501  16.918   2.844  11.173  0.0976  0.2201 -0.0357
29028W        W45502   6.871   0.784   1.507  0.0518  0.3126  0.1968
29029W        W45503   9.754  12.386   1.290 -0.2606  0.1146  0.1805
29030W        W45504  13.083  11.107  12.270  0.3364  0.0918 -0.1360
29031W        W45505  17.875  12.892   0.666  0.0670 -0.1190  0.1506
29032W        W45506  14.257  17.839   1.181 -0.3272  0.0335 -0.0870
29033W        W45507   8.868  10.350  11.368  0.0857 -0.1839  0.0515
29034W        W45508  11.543  14.343   0.528 -0.1943 -0.1044  0.2616
29035W        W45509   5.504   5.008  14.405  0.1851  0.3744 -0.1904
29036W        W45510   2.240   3.982  14.096  0.0527 -0.2095 -0.1065
29037W        W45511  15.349  10.099  10.630 -0.0285  0.0756 -0.3080
29038W        W45512   8.751  16.311   0.825 -0.2467  0.1749 -0.2851
29039W        W45513   0.642  17.890   1.059 -0.2699 -0.1229 -0.2323
29040W        W45514   0.937   8.808  12.126 -0.3542  0.3128 -0.1597
29041W        W45515   9.671   3.071  10.144 -0.2606  0.0228  0.5295
29042W        W45516  17.137   3.985  11.431 -0.0193 -0.0570  0.0933
29043W        W45517  14.648  10.662  14.119 -0.0140  0.0240  0.0112
29044W        W45518   8.760  17.643   2.119  0.0048 -0.2155 -0.0661
29045W        W45519  12.662  10.657   4.463  0.2986  0.0788 -0.0400
29046W        W45520  14.183  16.431   1.610  0.3399 -0.1348  0.0623
29047W        W45521  12.935  13.691   0.949  0.4369  0.3043 -0.0068
29048W        W45522   6.593   0.445  12.296  0.2041 -0.0691 -0.0073
29049W        W45523  12.538   5.268   4.627 -0.0117  0.1068  0.1404
29050W        W45524   6.281   4.919   3.935 -0.0784  0.3119 -0.2875
29051W        W45525  17.396  18.483   4.072 -0.2540  0.1130 -0.0203
29052W        W45526  18.211  14.877   4.486 -0.0236  0.0574  0.1177
29053W        W45527  10.163   3.825   1.133 -0.2914 -0.3130  0.0150
29054W        W45528  18.674  10.619   0.600  0.1163  0.0564 -0.1699
29055W        W45529  18.205   0.513  10.854 -0.0505  0.0091 -0.2926
29056W        W45530  15.743  10.541  13.572  0.0126 -0.1012 -0.5135
29057W        W45531   2.944  16.454   1.734 -0.3698  0.3441  0.1201
29058W        W45532   3.050   8.056   3.980 -0.1203 -0.1990  0.0220
29059W        W45533  10.028   6.065  13.536 -0.1904 -0.2109  0.1546
29060W        W45534   6.364  16.202  10.425  0.0356 -0.2416  0.0129
29061W        W45535   0.995   2.672  12.103  0.0705 -0.1655 -0.0132
29062W        W45536   0.414   0.450  13.601  0.0852 -0.2420  0.1319
29063W        W45537   7.221   7.269  10.550 -0.1871 -0.2040 -0.0362
29064W        W45538  16.247  15.776   1.192 -0.2149 -0.2369  0.2218
29065W        W45539   6.302   4.044  11.984 -0.2572 -0.1656 -0.0053
29066W        W45540  12.355   7.414   0.474  0.2665 -0.0634 -0.2069
29067W        W45541   6.417   6.257   2.019  0.1247  0.0833 -0.0975
29068W        W45542   7.523  17.937  13.804 -0.3649  0.0926  0.0495
29069W        W45543  14.108   9.810   1.102  0.0455  0.3751  0.0251
29070W        W45544   2.991  18.592  11.265  0.1595 -0.0661  0.2928
29071W        W45545   9.031   2.390   4.812 -0.0413 -0.2919 -0.1633
29072W        W45546  11.199   5.627  14.184 -0.0183 -0.0232  0.2483
29073W        W45547   1.883  14.544   2.996  0.0267  0.0059 -0.0281
29074W        W45548  18.317  15.651   1.326  0.2445  0.3203 -0.1194
29075W        W45549   4.136   0.527  13.974  0.2385 -0.0351 -0.1052
29076W        W45550  18.630   2.660  14.802 -0.2031  0.1623 -0.2327
29077W        W45551   4.056  15.660   5.602 -0.3165 -0.1130 -0.0954
29078W        W45552  17.342  18.729  14.502 -0.2066 -0.0941 -0.0745
29079W        W45553  14.716   9.306  13.610 -0.3085 -0.0706  0.0276
29080W        W45554  16.986  18.274   2.593 -0.3140  0.0791  0.4261
29081W        W45555  15.109  17.973   2.717  0.1281  0.0734 -0.2865
29082W        W45556  16.001  13.576   2.354 -0.0866  0.1611 -0.2338
29083W        W45557   3.388  14.661   2.099  0.1309 -0.1530  0.1902
29084W        W45558   0.062   3.311   4.291  0.3058  0.1362 -0.3433
29085W        W45559  15.386  18.083   2.277 -0.2907  0.0313  0.1143
29086W        W45560  17.136  19.035  14.167 -0.1857 -0.1582  0.0114
29087W        W45561   8.430   5.027   1.885  0.0545  0.0429 -0.0351
29088W        W45562   1.563   3.397   1.231  0.1901  0.0290  0.3904
29089W        W45563   8.695  13.640  11.333  0.4686  0.1541 -0.1240
29090W        W45564  13.490   5.193   1.331 -0.2565 -0.1897 -0.2842
29091W        W45565  14.259   4.350   4.647 -0.1277 -0.4171 -0.1254
29092W        W45566   2.301   7.952   5.081  0.1352 -0.1186 -0.0691
29093W        W45567   5.549   2.991   3.565  0.1130  0.3280 -0.2940
29094W        W45568   6.603   5.664  12.573 -0.1235 -0.1655 -0.1077
29095W        W45569   3.098   1.868  12.798  0.0768 -0.0101 -0.1138
29096W        W45570   0.353  11.660  11.412 -0.1071  0.0054  0.2516
29097W        W45571  17.477  13.045   2.287  0.0622 -0.1056  0.0124
29098W        W45572   7.875   6.406   0.549 -0.0532 -0.2115 -0.2423
29099W        W45573  16.098  18.238  14.143 -0.0461  0.0882  0.1288
29100W        W45574  14.774   6.165  13.440  0.4125 -0.1745 -0.0333
29101W        W45575  12.997   9.279   0.017 -0.1487 -0.2216 -0.1948
29102W        W45576  16.923  16.614   0.579 -0.2487 -0.1631  0.0014
29103W        W45577   8.812   9.219  11.660 -0.1254 -0.1505 -0.2194
29104W        W45578  11.501   0.143  11.871  0.0712 -0.0729 -0.1954
29105W        W45579  11.466   3.922   9.722  0.1530  0.1715 -0.0826
29106W        W45580   7.375  17.173   1.659  0.1401  0.0689  0.1781
29107W        W45581  12.344   4.682  12.079 -0.0504  0.1895 -0.0769
29108W        W45582   0.846   3.136  10.584  0.0643 -0.2129  0.3342
29109W        W45583  12.527  13.290  13.583 -0.0282 -0.2074 -0.2858
29110W        W45584   3.546   2.789   4.335 -0.0764  0.1610 -0.0918
29111W        W45585   0.977   7.744   3.502 -0.1799  0.1240  0.1026
29112W        W45586   1.000  18.168  12.554  0.0886 -0.5444  0.0799
29113W        W45587   6.520   2.086   3.847  0.0131 -0.0270  0.3087
29114W        W45588   5.131   6.895   4.118  0.1310 -0.1225 -0.1615
29115W        W45589  18.529   8.723   1.118  0.0815 -0.0631 -0.1059
29116W        W45590   0.627   5.810   3.090  0.0875  0.0417 -0.1364
29117W        W45591  15.623  14.319  12.751 -0.4145  0.2187  0.1684
29118W        W45592  15.555   0.828   9.482 -0.0780  0.0330 -0.0636
29119W        W45593   5.570  17.185  12.639  0.3439 -0.1533  0.1861
29120W        W45594   2.430   0.720   3.792  0.0712  0.0519 -0.4827
29121W        W45595  13.332   3.540  14.437 -0.0098 -0.1934 -0.3096
29122W        W45596  12.609  12.460  13.720 -0.0463  0.2311  0.0170
29123W        W45597   8.867   1.313  14.129 -0.4998 -0.3069  0.0527
29124W        W45598  10.409  14.464  13.647  0.0072 -0.2018  0.1493
29125W        W45599  11.006  13.773   3.513  0.3557  0.1596  0.0641
29126W        W45600   7.164  14.844   4.139 -0.2232  0.1972  0.3311
29127W        W45601   8.209  12.394  10.883 -0.0028 -0.3177 -0.1099
29128W        W45602  16.820  11.602  10.899 -0.0839  0.2202  0.2539
29129W        W45603  14.975   9.683   3.794  0.1613  0.1742 -0.0014
29130W        W45604  18.212  18.383  12.909 -0.1720  0.0659  0.2892
29131W        W45605  11.322  11.443   3.485 -0.0174 -0.1932  0.3829
29132W        W45606  15.358  15.528  11.017 -0.2397  0.1139 -0.3419
29133W        W45607  10.025  15.880   3.342 -0.3998 -0.4150  0.1085
29134W        W45608  17.600   8.894   1.200 -0.1533  0.1686 -0.2806
29135W        W45609   3.426  17.178  14.980  0.1348 -0.2644 -0.0089
29136W        W45610   5.244  12.096   0.110 -0.1340  0.0628 -0.1041
29137W        W45611  19.104  18.620   1.115 -0.1229 -0.0286  0.1485
29138W        W45612   5.261   4.984   5.376  0.0271  0.0865 -0.1743
29139W        W45613   7.880   5.781   9.879 -0.1205 -0.2225  0.2852
29140W        W45614  11.498   8.798   2.669  0.2476  0.1425  0.0324
29141W        W45615  15.297  17.538   0.059  0.1148  0.1992  0.1175
29142W        W45616  10.349  12.396   2.017 -0.0737 -0.1088  0.5466
29143W        W45617   4.045   1.760  13.094  0.2807  0.1439  0.0099
29144W        W45618   3.688  15.496   0.027  0.1272 -0.1439  0.3175
29145W        W45619   6.234  15.736  13.466 -0.3329  0.1623  0.1942
29146W        W45620  15.826  11.556  13.728  0.1805 -0.2740 -0.0493
29147W        W45621   8.709   3.981   2.662  0.3085  0.0379 -0.2254
29148W        W45622   2.105   8.768   4.669  0.2140 -0.2631  0.0271
29149W        W45623  16.267   3.509   1.156  0.1962  0.1548 -0.0074
29150W        W45624   2.145   2.890  14.037  0.2635 -0.2857 -0.4920
29151W        W45625  10.483  15.273   3.313 -0.3061  0.1757 -0.0161
29152W        W45626   5.926  16.400  11.402 -0.3020  0.1354  0.1104
29153W        W45627   5.010  13.530   1.378  0.0101 -0.0120 -0.0227
29154W        W45628   8.952  16.538  14.210 -0.1108 -0.1554 -0.1410
29155W        W45629  11.673  15.762   4.800 -0.2627 -0.1060  0.0793
29156W        W45630   8.187  12.506  12.490 -0.1163 -0.1059 -0.1625
29157W        W45631   2.562   0.042   1.906 -0.0754  0.0672 -0.2854
29158W        W45632  13.399   7.182  11.750 -0.1018  0.2604  0.3002
29159W        W45633  18.066   9.552   0.173 -0.2432  0.0526  0.2610
29160W        W45634   0.150  18.108  14.881 -0.0567  0.0257 -0.1037
29161W        W45635   9.033   2.043  13.737 -0.0739 -0.0987 -0.2835
29162W        W45636   8.386   2.948  10.572  0.1404 -0.2669  0.1616
29163W        W45637  14.670  15.944   4.231  0.3086 -0.2006 -0.3766
29164W        W45638  13.159  15.846  11.422  0.2073 -0.0972 -0.1753
29165W        W45639   7.633   8.552  11.097  0.1821  0.4967  0.0826
29166W        W45640   0.629  15.261   0.132  0.1413 -0.1774  0.0752
29167W        W45641  16.868  14.038   3.749 -0.0690  0.2203 -0.0087
29168W        W45642  16.343   8.358   9.796 -0.0689 -0.3553 -0.2578
29169W        W45643  15.299  18.557  14.649  0.0674  0.0435  0.4014
29170W        W45644   5.736   7.227   2.790 -0.0491  0.1211  0.1260
29171W        W45645   9.287  14.277  11.205  0.1612  0.2380 -0.0826
29172W        W45646  19.092  16.311   3.700  0.3140  0.1039  0.1230
29173W        W45647  10.377   6.561   1.414  0.0294  0.2776  0.1725
29174W        W45648   8.578  17.497  13.293 -0.3191 -0.0200  0.1783
29175W        W45649   3.564  12.164  10.500 -0.1878  0.0534 -0.0712
29176W        W45650   1.099   8.317   2.154 -0.2407  0.1331  0.2805
29177W        W45651   1.390   7.950   1.447  0.4205 -0.1915 -0.0399
29178W        W45652  13.619  18.288   5.089  0.1484  0.0375 -0.2177
29179W        W45653   9.756   8.577  14.428  0.1403  0.1286  0.1704
29180W        W45654   7.831  10.966  13.214 -0.3075 -0.0913 -0.2649
29181W        W45655   8.324  11.267  13.138 -0.0854  0.3086  0.0797
29182W        W45656   5.826   3.123  12.944  0.0514 -0.2086  0.2679
29183W        W45657  16.858  14.593   4.611  0.3849 -0.3860 -0.0691
29184W        W45658  11.379  12.944  11.221  0.1372  0.1076 -0.3403
29185W        W45659   2.852   5.805   1.751 -0.1227 -0.0500  0.1603
29186W        W45660  17.903  19.067   1.199  0.2870 -0.3190 -0.2979
29187W        W45661   0.881   3.479   0.681  0.0805  0.0463  0.0072
29188W        W45662   6.602   7.334  13.555  0.0165  0.2029 -0.3198
29189W        W45663  15.135  15.983   3.972  0.1069 -0.5439  0.1749
29190W        W45664  13.782   2.298   2.571 -0.0335  0.2390 -0.0628
29191W        W45665   7.534  13.388   4.075  0.0924  0.0076 -0.1658
29192W        W45666  14.641   3.678  14.284 -0.1277  0.1535 -0.0243
29193W        W45667  15.497  12.507   5.478  0.1426  0.2133  0.1121
29194W        W45668  11.781   7.346   4.332 -0.0953  0.1884  0.3274
29195W        W45669  14.385   8.057   4.606  0.1351 -0.1094 -0.0108
29196W        W45670   4.482  15.216   0.888 -0.4297 -0.0232  0.0882
29197W        W45671  18.999  17.390  12.655 -0.1300  0.1239  0.2297
29198W        W45672   7.048   9.426   5.070  0.0526  0.1354 -0.0634
29199W        W45673   6.712  13.000   2.659  0.2558 -0.1255  0.0200
29200W        W45674  10.352   3.515   5.080 -0.3036 -0.1934  0.1888
29201W        W45675  18.680  18.868   1.017  0.0560 -0.0061 -0.0257
29202W        W45676   0.909   5.507   5.304  0.1579 -0.3487 -0.1786
29203W        W45677   5.690   5.800   0.265  0.0905 -0.0110 -0.1371
29204W        W45678  13.535   4.349  13.273 -0.1566  0.1966 -0.0206
29205W        W45679  17.113   5.535  11.911 -0.1431 -0.0377  0.1669
29206W        W45680   8.377   8.517  14.106 -0.4261 -0.0621 -0.2564
29207W        W45681   5.325  12.991   0.566  0.0664 -0.0747  0.1200
29208W        W45682  11.267  12.130  12.096  0.1935  0.1400  0.1322
29209W        W45683   7.949   9.394   1.591 -0.1056  0.0132 -0.1328
29210W        W45684   8.895  13.142   3.400 -0.3489  0.0050  0.3114
29211W        W45685  12.023   9.685  12.491 -0.2571 -0.0984 -0.2888
29212W        W45686   8.431  14.750  10.700 -0.3618  0.0798  0.1597
29213W        W45687   9.106  16.728   0.770  0.3141  0.1868  0.2477
29214W        W45688  17.283  17.099  11.205  0.2032  0.0871  0.1742
29215W        W45689   5.218  14.694   2.799  0.1286  0.2925 -0.0217
29216W        W45690  10.137  17.875   3.965 -0.0302 -0.0557 -0.0170
29217W        W45691   3.730   2.227   0.354 -0.1134  0.2280 -0.1803
29218W        W45692   2.645   2.271   2.688 -0.0703  0.1365 -0.2137
29219W        W45693   8.129   6.572   4.359 -0.0810  0.1039  0.0565
29220W        W45694  16.603   7.220  11.963  0.2762 -0.0329  0.0670
29221W        W45695   5.650   7.782   4.386 -0.2943  0.0673  0.2575
29222W        W45696   2.353  14.646  12.432 -0.3241  0.0618  0.0851
29223W        W45697  12.686  15.222  13.158  0.3823 -0.0655  0.2399
29224W        W45698  12.124  10.392   3.826  0.1573 -0.0227  0.0926
29225W        W45699  10.353   1.278   3.428  0.4699 -0.0223  0.1314
29226W        W45700  12.281  14.864   1.124  0.1517  0.1049  0.1213
29227W        W45701   0.206   9.735  14.161 -0.1432 -0.0299  0.0507
29228W        W45702   7.481   0.437  14.995 -0.3543 -0.1332 -0.3724
29229W        W45703  17.059   9.527  14.212 -0.1680  0.0386  0.0266
29230W        W45704  12.755   6.341   0.143  0.5267  0.0809 -0.1334
29231W        W45705  10.123   6.538  13.757  0.1792 -0.0065 -0.1192
29232W        W45706   2.500   9.086   1.955  0.1156 -0.2986 -0.0986
29233W        W45707   9.688  11.561  13.106 -0.2674  0.3059  0.3133
29234W        W45708  11.481  16.360  13.733 -0.1538 -0.2281  0.0647
29235W        W45709  13.980   7.649   5.021  0.0190  0.0484 -0.0692
29236W        W45710   9.221  14.420  13.690  0.3654 -0.1494 -0.1151
29237W        W45711   5.166  18.419   3.776  0.1542 -0.4222 -0.0685
29238W        W45712   2.705   4.300  13.342 -0.2790  0.1157  0.2963
29239W        W45713   3.756   6.356   0.751  0.1483  0.1040  0.3306
29240W        W45714   4.738  14.807   0.702 -0.1260 -0.1755  0.0750
29241W        W45715   0.257   9.579   3.834 -0.0252  0.1922 -0.0170
29242W        W45716  17.771   2.632  14.547 -0.2206  0.1202 -0.2223
29243W        W45717  13.873   0.065  13.587 -0.1737 -0.1269  0.0683
29244W        W45718   3.230   0.836   0.123 -0.1861  0.1282  0.0881
29245W        W45719   8.925  13.209  12.732  0.0275 -0.3398  0.1940
29246W        W45720  14.062  14.958   5.036 -0.4072 -0.1377 -0.0743
29247W        W45721   7.937  12.908  11.483  0.0381 -0.2641  0.1201
29248W        W45722  10.155  16.017  11.281  0.1113  0.1712 -0.0890
29249W        W45723   6.026  10.571  12.109 -0.0151 -0.2249 -0.2977
29250W        W45724  18.150  11.359  10.445 -0.0227  0.1935  0.1967
29251W        W45725   0.553   8.708  12.719  0.0281  0.0543  0.4897
29252W        W45726  17.369   0.339  12.377  0.0388  0.1780  0.1042
29253W        W45727   7.456  14.874  12.132  0.2066  0.0126  0.0945
29254W        W45728   2.976  15.390   2.640 -0.0023  0.0277  0.1527
29255W        W45729   6.877   3.626   2.504  0.0177 -0.0473 -0.4210
29256W        W45730   3.858   3.048  12.635 -0.3460 -0.1096  0.1567
29257W        W45731   0.097  13.548  14.534 -0.0089  0.1506 -0.3944
29258W        W45732   8.233   6.151   4.639 -0.2109  0.0223 -0.1161
29259W        W45733  18.047  13.904   4.683 -0.1752 -0.2743 -0.0163
29260W        W45734   8.675   7.283  13.366  0.1736 -0.1916  0.1442
29261W        W45735  15.389  14.051   4.174  0.0766  0.0061  0.3693
29262W        W45736   3.466  18.839  11.491  0.0342 -0.1336 -0.0414
29263W        W45737   4.179  14.252   1.110  0.1968 -0.0331  0.1856
29264W        W45738   2.692  15.825   2.857  0.0173  0.1066  0.1521
29265W        W45739   0.561   6.515  13.240 -0.2426  0.1279  0.0062
29266W        W45740   8.889   0.052  11.244 -0.0149  0.2971 -0.1355
29267W        W45741  11.855  10.539  10.757 -0.1501 -0.2254 -0.1566
29268W        W45742  16.976  14.043  11.127 -0.1450 -0.0510  0.0201
29269W        W45743  17.305   1.428  14.248 -0.1772  0.1763 -0.0109
29270W        W45744  10.298   1.707  13.616  0.1591 -0.0041  0.0672
29271W        W45745   3.410   6.302  13.812  0.0036  0.3518 -0.3066
29272W        W45746  10.341   3.782  12.209  0.0493 -0.1276 -0.1336
29273W        W45747  14.937  11.737  10.846  0.1951  0.0250 -0.0137
29274W        W45748   7.547  12.823   4.122 -0.1569 -0.0571  0.1314
29275W        W45749   3.574   8.381   3.896 -0.0793  0.0150 -0.2446
29276W        W45750  18.814   6.944   3.712 -0.1312  0.0857  0.0350
29277W        W45751  14.894   1.628   3.200 -0.2143 -0.1840  0.0743
29278W        W45752   7.467   9.564  13.144 -0.1390  0.0739 -0.0053
29279W        W45753  11.206   1.826  12.796  0.1528  0.2591  0.0898
29280W        W45754  17.404   1.702   0.303 -0.1645 -0.2001  0.0228
29281W        W45755   2.196   2.421  14.892 -0.0956  0.0715 -0.4043
29282W        W45756  11.902   5.652   4.251  0.1587  0.4575  0.0989
29283W        W45757  11.175  11.288   0.569 -0.3123 -0.1660  0.0118
29284W        W45758   9.113  12.939   4.362  0.0804 -0.0367 -0.1209
29285W        W45759   1.104  16.310  12.967 -0.1516  0.1149  0.3029
29286W        W45760  10.989  17.595   3.697 -0.0934 -0.1030 -0.0450
29287W        W45761   7.706   1.334  10.215 -0.1411  0.0845  0.2710
29288W        W45762  16.924   9.234   2.277  0.0768  0.2155 -0.3070
29289W        W45763   2.755   1.070  14.892  0.1973 -0.3298 -0.1921
29290W        W45764  11.735  15.410   3.198 -0.0260  0.3889 -0.1490
29291W        W45765  14.613  13.387   0.369 -0.2413 -0.0083  0.0143
29292W        W45766   0.769  16.662  11.061  0.1403 -0.1065 -0.0466
29293W        W45767   7.102  14.526  11.934  0.3231 -0.1089  0.1669
29294W        W45768  13.919  11.754   3.468  0.0482  0.0101  0.0125
29295W        W45769  18.996  11.666  14.051  0.0320 -0.2097 -0.0573
29296W        W45770   0.050  10.221  11.739 -0.0963 -0.0137  0.0817
29297W        W45771  17.946  17.910  11.107  0.1671  0.2966 -0.0577
29298W        W45772   3.288  16.681  13.365 -0.1148  0.0171 -0.2318
29299W        W45773   6.046  10.608  13.014  0.0775 -0.0622 -0.2057
29300W        W45774   8.564   0.602  14.549  0.1762  0.0140  0.0720
29301W        W45775  14.587   3.853  12.062  0.1588  0.2454 -0.1978
29302W        W45776  18.987   9.055  15.100  0.5204 -0.1641  0.1087
29303W        W45777   7.816   7.223  15.040  0.1658  0.0323 -0.3253
29304W        W45778   8.663   2.115   5.113 -0.0622  0.1244  0.0586
29305W        W45779   6.542  17.496  11.954 -0.0233 -0.0754  0.1103
29306W        W45780   9.897   1.387   4.256  0.1623 -0.1013 -0.1043
29307W        W45781  11.373   3.236  14.455 -0.0854  0.1586  0.0789
29308W        W45782  10.834   4.725  15.038 -0.5164 -0.0287  0.1543
29309W        W45783   7.727   3.734   0.618 -0.1908 -0.1274  0.3417
29310W        W45784   3.961  18.078   3.880  0.0328  0.0429 -0.1578
29311W        W45785  17.271  13.376  13.285 -0.2070 -0.1982  0.0787
29312W        W45786  16.605   0.085  11.663  0.1665 -0.2165 -0.3116
29313W        W45787   2.038   6.271  12.570  0.0069  0.1725 -0.0492
29314W        W45788   0.914   7.967   1.224 -0.2960 -0.0621 -0.0003
29315W        W45789  14.557  16.109   1.657 -0.2915 -0.1395  0.2137
29316W        W45790  12.057  11.094   5.668 -0.2373  0.1232 -0.0263
29317W        W45791   2.241   3.158  12.959 -0.2271 -0.3162  0.1824
29318W        W45792  16.118  17.854   2.903 -0.0541  0.0837  0.0644
29319W        W45793  18.653  18.176   0.313 -0.1039 -0.0126 -0.0414
29320W        W45794  18.749   9.605   3.277  0.1441  0.0674  0.0030
29321W        W45795   4.758   5.151   2.821 -0.1117  0.0565  0.0183
29322W        W45796   3.390  13.328  10.366  0.4496 -0.2727  0.0374
29323W        W45797   2.389  17.507   2.178 -0.1735 -0.3687  0.1212
29324W        W45798  11.748   8.530   3.957  0.2096 -0.0691  0.0510
29325W        W45799   3.321   0.251  12.419  0.0048 -0.2191 -0.2163
29326W        W45800   8.764  16.394   4.636  0.1521 -0.4202 -0.2134
29327W        W45801  17.898  12.931   2.636  0.0091 -0.1156 -0.0179
29328W        W45802   3.694  15.072  10.940 -0.1634  0.1469  0.1013
29329W        W45803  12.337   6.855  12.073 -0.0206  0.1734  0.1409
29330W        W45804  12.745  17.782   5.142 -0.1661 -0.1370 -0.4930
29331W        W45805   9.687  18.555   1.685  0.1467 -0.1392 -0.2354
29332W        W45806   0.416   2.568   4.690  0.0136  0.2431 -0.2906
29333W        W45807  11.179   3.230  11.562 -0.0137 -0.3583 -0.1022
29334W        W45808  11.954  13.750   5.162  0.0699 -0.1293  0.3614
29335W        W45809  10.263  17.168  11.362 -0.1601  0.5691  0.0447
29336W        W45810  19.064   9.377  12.266  0.0295  0.0230  0.1902
29337W        W45811   9.562   1.071  10.458 -0.2470  0.1047  0.1933
29338W        W45812   9.339   2.949   4.000 -0.0253 -0.1712 -0.3005
29339W        W45813   9.103  16.913  13.915 -0.0577  0.2307  0.3262
29340W        W45814  17.321   8.400   2.628  0.0921  0.1219 -0.2488
29341W        W45815  18.576  18.327  12.601 -0.1130 -0.0405  0.1866
29342W        W45816  18.043  13.913  14.369 -0.1037 -0.3445  0.3297
29343W        W45817  18.469   7.246   0.108 -0.0636  0.0702  0.0554
29344W        W45818  12.767   1.874   4.491  0.1366  0.0327  0.2964
29345W        W45819   5.569  10.300  12.042 -0.2625  0.1902  0.0289
29346W        W45820   6.273   7.268  11.572 -0.0905  0.2457 -0.0337
29347W        W45821  18.050   8.831  13.658 -0.3570 -0.1638  0.1437
29348W        W45822   9.064  16.056   1.604 -0.3297  0.1161 -0.2081
29349W        W45823   1.783   9.055  12.574 -0.1098  0.1105 -0.0958
29350W        W45824  14.039  14.510  11.506 -0.1428 -0.0175  0.1105
29351W        W45825   4.753   7.253   4.241 -0.1159  0.0268 -0.1132
29352W        W45826   6.095   8.095   4.386  0.1196  0.1633 -0.1424
29353W        W45827  17.829  16.609   5.298 -0.1859 -0.3357 -0.2273
29354W        W45828   3.063  12.357  14.984  0.0814  0.0218 -0.0358
29355W        W45829   0.369  12.071   2.772 -0.0025 -0.0585  0.0973
29356W        W45830  12.210  16.922  14.367  0.0576  0.1033  0.2555
29357W        W45831  19.084  11.150   4.634  0.2625  0.0688 -0.3908
29358W        W45832   6.676   1.953   5.189  0.0450 -0.0201  0.2646
29359W        W45833   7.974  15.454   3.068 -0.1125  0.0923  0.2847
29360W        W45834  14.204   3.971   2.091  0.0569 -0.0385  0.1726
29361W        W45835  18.540  11.763  12.881 -0.0750  0.1093 -0.1433
29362W        W45836   1.484   6.505   3.163  0.0752 -0.1486  0.2983
29363W        W45837  16.672   5.339  11.658  0.0270 -0.2836 -0.2082
29364W        W45838  16.899   4.224  11.002 -0.0461 -0.0096 -0.1465
29365W        W45839  17.982  11.438  13.567  0.0750  0.4913  0.0688
29366W        W45840   0.066  12.041  11.628  0.0160  0.1052 -0.0170
29367W        W45841  17.796   6.180   1.433  0.0581  0.0420  0.0563
29368W        W45842   7.059  15.450   0.930 -0.0420 -0.1753  0.0516
29369W        W45843  12.627   0.904   5.230  0.0711 -0.1668  0.0867
29370W        W45844   8.203   6.867  14.895 -0.2675  0.1495 -0.1462
29371W        W45845  14.622  14.352  13.867  0.2446 -0.2856  0.0581
29372W        W45846   0.565   1.750  12.642 -0.0221 -0.1917  0.1799
29373W        W45847   7.453   4.452   1.212  0.1909  0.0235  0.0202
29374W        W45848  18.377   5.169  13.927  0.3224  0.2449  0.0627
29375W        W45849   4.042  11.745  12.787  0.0939  0.1965  0.1796
29376W        W45850  17.798  13.380   2.598  0.1460 -0.0931  0.0910
29377W        W45851   0.277   7.622   2.442  0.1559  0.2856 -0.4782
29378W        W45852  16.635  16.115   1.363 -0.1089 -0.0943 -0.0262
29379W        W45853  12.790  13.281  11.085  0.2130 -0.0146 -0.0426
29380W        W45854  10.584   9.328   4.171 -0.4342 -0.5010  0.0633
29381W        W45855  17.448  17.122   3.034  0.2384 -0.0751  0.1154
29382W        W45856   5.747  13.675  14.027  0.0169  0.1815  0.2344
29383W        W45857  12.220   9.934   4.145  0.1406 -0.1221 -0.1201
29384W        W45858  18.656   4.996  11.433 -0.2141 -0.3129  0.0204
29385W        W45859  13.087   1.674   5.098 -0.0499 -0.3620 -0.0931
29386W        W45860  11.453  17.024   2.089  0.2712 -0.1131  0.1511
29387W        W45861   9.516   3.178   3.284  0.2988 -0.0921 -0.1993
29388W        W45862  17.845  13.743  13.294 -0.1248  0.0472  0.0810
29389W        W45863   4.385  10.190   2.776  0.4616  0.0238 -0.0028
29390W        W45864   3.232  17.912   4.762  0.0669 -0.2057 -0.0025
29391W        W45865   5.731   2.892  14.820  0.2075 -0.3331  0.0296
29392W        W45866   2.834  11.007   3.851  0.3719  0.2399 -0.3138
29393W        W45867   7.896  15.248   1.027  0.0288  0.0352 -0.2182
29394W        W45868   0.594   7.964   3.208 -0.2167  0.0398  0.1945
29395W        W45869  10.820   4.919  11.941  0.1564  0.1584  0.2648
29396W        W45870  10.680   7.963  13.467 -0.3775 -0.2625 -0.0955
29397W        W45871   8.677  17.742   2.592 -0.0763  0.2424  0.2049
29398W        W45872   0.129  16.589  13.797  0.3054 -0.0958 -0.0072
29399W        W45873  14.980   1.167   3.369  0.1817  0.0245  0.4170
29400W        W45874  17.862   0.736   3.870  0.2085  0.2298 -0.1515
29401W        W45875  11.895   5.027  13.349 -0.2153  0.0666  0.2212
29402W        W45876  10.378  14.056   2.676 -0.1156 -0.1369 -0.1713
29403W        W45877   8.233   9.731  14.544  0.1215  0.1850 -0.0390
29404W        W45878   4.799   1.777   1.031 -0.1216 -0.1267  0.1662
29405W        W45879  14.558   9.245   3.258  0.0603 -0.1273  0.1893
29406W        W45880  17.480  10.553  11.960 -0.0028 -0.2514 -0.2096
29407W        W45881  14.629   2.572   4.841  0.1210  0.0855 -0.2919
29408W        W45882  14.057  17.697  11.278  0.0655  0.1311  0.2090
29409W        W45883   3.366   0.964  11.810  0.1335 -0.2059  0.3939
29410W        W45884   1.437   7.969   3.457 -0.1378 -0.2369 -0.0843
29411W        W45885   3.666  13.827  15.049  0.0142 -0.0893  0.3594
29412W        W45886   7.765   8.539   1.926 -0.1366 -0.2263 -0.1104
29413W        W45887  15.634  18.260   4.009 -0.2352  0.0230  0.1045
29414W        W45888  16.369  12.579   1.533 -0.0247 -0.0134  0.1386
29415W        W45889  14.852  15.124   3.423  0.1032  0.0828 -0.0538
29416W        W45890   6.758  13.576   3.509 -0.1800 -0.0437 -0.5202
29417W        W45891   2.103  13.708   2.278  0.1278 -0.0469  0.0719
29418W        W45892  11.926   7.745  14.376  0.1453  0.0927  0.2184
29419W        W45893   0.557   1.150   4.963 -0.2515 -0.4337  0.1492
29420W        W45894  16.335  16.024   4.398 -0.0641  0.1738 -0.3513
29421W        W45895   3.568  15.042  10.292 -0.0240 -0.0058  0.1341
29422W        W45896   5.119  15.528   2.597  0.2723 -0.0250 -0.0121
29423W        W45897   7.025  10.350  14.508 -0.0801  0.1291  0.2073
29424W        W45898   2.394   5.806  10.780  0.3019 -0.2818  0.2531
29425W        W45899  16.152   2.843   3.878  0.0252 -0.0241  0.2145
29426W        W45900   9.634   9.796  12.885 -0.0602  0.0990 -0.1012
29427W        W45901   1.750   5.247   4.970 -0.2203  0.0324  0.0617
29428W        W45902   7.099   6.866   3.129 -0.2467  0.0531 -0.3980
29429W        W45903  13.499   8.625   1.348 -0.0163 -0.2624 -0.1148
29430W        W45904  18.576  13.292   0.968 -0.2182  0.2228  0.1498
29431W        W45905   4.999   5.620   2.966  0.0299 -0.2399 -0.3236
29432W        W45906   7.002  12.725  10.838 -0.2046  0.2267 -0.0088
29433W        W45907  13.731   8.985  13.947 -0.0634 -0.1208  0.0369
29434W        W45908  18.128  12.780   3.105 -0.3351  0.5574 -0.0517
29435W        W45909   2.139   8.964   2.469 -0.2424  0.0515  0.1476
29436W        W45910   8.198  15.608  10.573  0.2214  0.2172 -0.1276
29437W        W45911   8.106  14.367   4.404 -0.1306 -0.2038  0.1930
29438W        W45912   8.673  12.784  15.125  0.1633 -0.2034 -0.0374
29439W        W45913   4.206   6.274  10.391  0.0086 -0.0197  0.1828
29440W        W45914  15.075   0.753   5.252 -0.0883 -0.1300 -0.2303
29441W        W45915  13.738   7.726  11.346 -0.0037 -0.0501  0.0694
29442W        W45916  14.494   7.717  12.848  0.2084  0.0571 -0.0812
29443W        W45917  15.580  11.945  13.943 -0.2129 -0.1133 -0.0974
29444W        W45918  14.839  13.165   1.722  0.2443 -0.2923 -0.2357
29445W        W45919   1.350   4.064   0.022  0.0585  0.0259  0.1878
29446W        W45920  11.630  13.706   1.447 -0.3151  0.0815  0.0363
29447W        W45921  18.541   6.624   4.300  0.0474 -0.0264  0.1094
29448W        W45922   7.912   0.472  13.228  0.0709 -0.1686 -0.0743
29449W        W45923  11.159  15.950   4.895 -0.2106 -0.2875 -0.2855
29450W        W45924  18.188   5.896   1.199  0.1709  0.1638 -0.0048
29451W        W45925   1.063   5.074   5.113 -0.1667  0.0049  0.3405
29452W        W45926  14.996  12.909   0.351  0.1285 -0.1640 -0.3696
29453W        W45927  11.177   6.805   4.065  0.1270  0.1271  0.2301
29454W        W45928  11.868  15.654  10.989  0.0752  0.0284 -0.1561
29455W        W45929  15.602   9.238   2.937 -0.0185 -0.1373  0.0434
29456W        W45930  17.571  12.792   1.464  0.1033  0.3988  0.0081
29457W        W45931   8.647   3.594   3.637 -0.0120 -0.0015 -0.1423
29458W        W45932   2.272  12.110   4.374  0.0282  0.1755  0.3353
29459W        W45933   8.228   0.059  12.334  0.1278  0.0033 -0.0146
29460W        W45934   9.219   2.306   1.616 -0.3982  0.1240 -0.1840
29461W        W45935  13.426   5.666  11.786 -0.3891 -0.0276 -0.0499
29462W        W45936  14.574  11.080  13.886 -0.0367  0.2498  0.1993
29463W        W45937   1.326   4.930  13.192 -0.6263  0.2988  0.1265
29464W        W45938   7.071  10.247  11.640  0.2622 -0.0152  0.4182
29465W        W45939   8.399   9.472   4.578 -0.1175  0.2733 -0.0654
29466W        W45940   7.084   2.015   1.149 -0.0369  0.1962  0.1478
29467W        W45941   9.083  17.898   1.787  0.0739 -0.2729  0.1572
29468W        W45942   4.675  11.910  13.477 -0.3255 -0.0220 -0.0324
29469W        W45943   6.326   2.992   1.329 -0.2698 -0.2859 -0.0695
29470W        W45944   6.111   4.630  11.786  0.0184 -0.0946 -0.0296
29471W        W45945   6.113  17.936   0.046 -0.2366 -0.0874  0.2715
29472W        W45946   0.470  14.800   5.003  0.2293 -0.0731 -0.1168
29473W        W45947   9.745   1.242   1.300 -0.2262 -0.1298  0.1307
29474W        W45948  16.671   5.389   1.760  0.0316 -0.0877  0.0315
29475W        W45949  19.001   2.385  13.270 -0.2536  0.1337 -0.0816
29476W        W45950  10.530   6.010  13.436 -0.4267 -0.1414 -0.4254
29477W        W45951  12.324   5.789   2.493  0.4140 -0.1870  0.1863
29478W        W45952  14.922  13.767  13.135  0.1354 -0.4311 -0.0807
29479W        W45953  13.925   0.364   0.500 -0.1543  0.0592  0.0472
29480W        W45954   2.212  11.105   2.360 -0.0149 -0.3286 -0.1572
29481W        W45955  13.920   3.696  12.727  0.1681 -0.0235 -0.0066
29482W        W45956  19.057   0.341  14.590 -0.1126 -0.0810 -0.1841
29483W        W45957   9.024  14.888   3.178  0.0621  0.1622 -0.1726
29484W        W45958   3.065   6.359   5.207  0.1532  0.3010 -0.0847
29485W        W45959  14.856  15.058   1.208 -0.0334  0.3729  0.0802
29486W        W45960   4.366   0.424   4.066 -0.1822  0.2764  0.0916
29487W        W45961  13.966   7.577   2.790  0.1066 -0.1639 -0.1062
29488W        W45962   9.072  12.352  10.898  0.2372  0.1584  0.2201
29489W        W45963  18.432   2.110  13.401  0.0172 -0.1794 -0.0039
29490W        W45964   0.306  11.761   1.204  0.1042 -0.0697 -0.0602
29491W        W45965   0.501   0.596  10.619  0.1622 -0.0630 -0.0572
29492W        W45966   8.419  11.882  11.211  0.1668  0.1923 -0.3110
29493W        W45967  12.576   8.088   4.545 -0.1469 -0.3203 -0.0806
29494W        W45968   6.363   0.644   0.166  0.0995  0.2908 -0.0290
29495W        W45969   7.850   4.479  12.703 -0.1469 -0.0764 -0.0065
29496W        W45970   8.732  15.758  12.740 -0.1070  0.1027  0.1970
29497W        W45971   4.845  14.477  11.449  0.0585 -0.0545  0.1991
29498W        W45972  18.078  11.807  11.674  0.2330  0.2023  0.0673
29499W        W45973   3.809   9.789   0.441 -0.2866 -0.3280 -0.0328
29500W        W45974  15.695  14.435  13.227 -0.1848  0.1980  0.1209
29501W        W45975  15.134  15.677   4.326  0.0067 -0.2997 -0.0258
29502W        W45976   4.841   0.617   1.459  0.0354  0.3967 -0.0364
29503W        W45977  13.675  18.148  14.768 -0.0549 -0.0569 -0.1055
29504W        W45978   4.099   8.349  13.142  0.0057  0.0869 -0.1245
29505W        W45979   0.398   6.781  12.776 -0.0155  0.0931 -0.0480
29506W        W45980   7.672   9.720  12.347 -0.4116 -0.2410  0.0142
29507W        W45981   4.973   8.258   3.749  0.0494 -0.1740  0.3730
29508W        W45982   6.299  13.367  14.970 -0.1256 -0.1631  0.2405
29509W        W45983  11.522   4.311   4.874  0.1077  0.3124 -0.1389
29510W        W45984   6.900   7.070   2.190  0.2081  0.1649 -0.2014
29511W        W45985   7.753  14.890  14.173 -0.1257 -0.0297 -0.4774
29512W        W45986   6.090  18.290  13.472 -0.0309 -0.2344 -0.1497
29513W        W45987  14.288   7.691  11.518  0.0872  0.2279  0.3601
29514W        W45988  17.767  18.551   5.525  0.2471  0.2654 -0.0458
29515W        W45989   1.514  11.475   1.989 -0.0859 -0.2727  0.0439
29516W        W45990  15.378  11.852   0.165  0.0343 -0.2776  0.0546
29517W        W45991  17.170   3.634   2.626  0.1674 -0.0870 -0.1811
29518W        W45992  12.886  13.078   5.457  0.0202  0.0561 -0.0164
29519W        W45993   0.329   5.771   2.349 -0.2310  0.0762  0.1559
29520W        W45994  13.351   9.610   0.243 -0.0858 -0.0931 -0.1623
29521W        W45995   5.416  15.306  13.041  0.3203 -0.2233 -0.3190
29522W        W45996  16.773  15.458   4.928  0.0197 -0.0373 -0.0363
29523W        W45997   6.938  10.128   0.425 -0.0851 -0.1797 -0.1531
29524W        W45998  14.340   1.112   4.662 -0.2795 -0.0546  0.2281
29525W        W45999  14.600   4.814   2.043  0.1058  0.2675 -0.1392
29526W        W46000  14.065   3.358   1.698  0.0573  0.0942 -0.1423
29527W        W46001  17.159   3.649   4.944 -0.1521  0.2399 -0.1589
29528W        W46002   4.093  10.644  13.996  0.2032 -0.0269  0.0588
29529W        W46003   6.228   9.788   3.524 -0.2703  0.2073  0.1591
29530W        W46004  11.629   1.687  12.115  0.0125  0.2443 -0.3690
29531W        W46005  10.955   0.484   4.742  0.1123 -0.2015 -0.0977
29532W        W46006  16.987  11.398   3.764  0.0398  0.2121  0.0787
29533W        W46007   1.263  11.484  14.428  0.2717 -0.0078 -0.2313
29534W        W46008   9.542  12.106   4.434  0.1156  0.0615 -0.1685
29535W        W46009  12.776  12.114   0.503  0.2513 -0.1960 -0.1402
29536W        W46010  17.076  17.874  11.543  0.0299  0.1264  0.0900
29537W        W46011   7.954  18.659   5.114 -0.3337  0.0052  0.2837
29538W        W46012   7.309  11.780  13.381 -0.4365  0.0660  0.0800
29539W        W46013   0.240  14.215   2.215  0.3416 -0.0465 -0.4285
29540W        W46014  18.298  10.020   0.216 -0.0689 -0.1245  0.0236
29541W        W46015  17.991   0.794  13.935 -0.0594  0.1242 -0.1003
29542W        W46016  18.629  15.079  10.332 -0.1354 -0.4513  0.1597
29543W        W46017  17.588  14.722   0.726  0.1029 -0.3757  0.1881
29544W        W46018   2.761  17.962   2.586 -0.1124  0.0992  0.0102
29545W        W46019  14.475   8.547  14.717  0.2277  0.0626  0.0959
29546W        W46020  18.376  12.025  13.331 -0.0905  0.0959 -0.1860
29547W        W46021  14.503   4.730   3.396 -0.2318  0.0364  0.2788
29548W        W46022   3.766  17.067  12.155  0.3576 -0.1121  0.0989
29549W        W46023   8.113   2.999   4.042  0.0134 -0.1774  0.1148
29550W        W46024  15.807   4.953   0.640 -0.2325  0.1842  0.0656
29551W        W46025   1.923  12.788  14.298  0.1190  0.0680  0.3061
29552W        W46026   7.309   8.087  14.969 -0.0036 -0.0277 -0.3100
29553W        W46027  17.949   6.662  14.725  0.1280  0.0475  0.1547
29554W        W46028  17.438  17.073  13.285 -0.2845 -0.3249 -0.1846
29555W        W46029  13.448   7.921   1.759  0.2144 -0.2412 -0.0274
29556W        W46030   4.827  10.457   0.641  0.1803  0.2182  0.1318
29557W        W46031   5.178  10.908   1.878 -0.4756 -0.0585  0.0861
29558W        W46032  13.870  12.724   4.675  0.1689  0.2107  0.3507
29559W        W46033  10.781   7.226   1.022 -0.0819  0.1257 -0.3321
29560W        W46034  18.365  13.068  11.097  0.0024  0.0106  0.1714
29561W        W46035  17.832   1.324   4.186 -0.2937  0.1143  0.0242
29562W        W46036  14.929  13.032  12.656  0.2131  0.1905  0.1686
29563W        W46037   0.705   3.838   5.433  0.0399 -0.2844 -0.3937
29564W        W46038   0.835   2.276  10.822  0.2846  0.1059  0.0397
29565W        W46039  17.238  15.783   0.582  0.2028  0.0031 -0.0693
29566W        W46040  10.614  11.562  14.626 -0.0395  0.1061  0.1461
29567W        W46041   3.328   7.419   0.075  0.0868  0.0315 -0.0123
29568W        W46042  14.294   2.167   3.772 -0.1279  0.0133 -0.1038
29569W        W46043   1.435  12.344   5.042 -0.0058 -0.0593 -0.0684
29570W        W46044  16.392   4.174  10.827 -0.0819 -0.0795  0.2404
29571W        W46045   5.994   3.364  11.579 -0.2338 -0.1379  0.0799
29572W        W46046   5.421   5.874   1.959  0.0576  0.0456 -0.0692
29573W        W46047  12.323   8.500  14.808 -0.0043  0.0720  0.0621
29574W        W46048   7.978   8.790  14.239  0.0570 -0.2802  0.2249
29575W        W46049   1.340   5.375  14.707  0.0899 -0.3708 -0.0136
29576W        W46050  18.953   2.787   2.586  0.2600 -0.2876 -0.5214
29577W        W46051  17.373   3.130   0.585  0.1923  0.1324 -0.0188
29578W        W46052  16.441  12.863  10.311  0.1539  0.0871 -0.0459
29579W        W46053  10.534  10.337   1.253  0.1151 -0.0281 -0.1125
29580W        W46054  17.640  16.674   1.639 -0.2578 -0.0729 -0.3105
29581W        W46055  19.135  16.442   4.422  0.2587 -0.0548  0.0723
29582W        W46056  11.486  10.985   3.781 -0.1839  0.1082  0.1034
29583W        W46057  16.366   0.798   3.247  0.0022 -0.1133  0.1865
29584W        W46058   5.431   5.421  12.468  0.1800 -0.1423 -0.1472
29585W        W46059   2.798  10.769   3.378 -0.2753 -0.3196  0.1752
29586W        W46060   4.719   4.871   2.278  0.1031 -0.0681  0.0523
29587W        W46061   5.555  11.309  12.617  0.0249  0.1848  0.2495
29588W        W46062   0.537  15.233  11.898  0.3676  0.1406  0.1338
29589W        W46063   2.233   1.864   4.051 -0.2114  0.3312 -0.0918
29590W        W46064   7.147   2.596  11.749 -0.2629 -0.0912 -0.1381
29591W        W46065   5.457  15.570  10.588 -0.1992  0.3637  0.1644
29592W        W46066  14.281  10.428   0.259  0.1430 -0.1301 -0.0500
29593W        W46067   8.161  12.572   2.000  0.4663 -0.0175  0.0638
29594W        W46068   6.147  11.103   3.984  0.1215  0.2050 -0.0950
29595W        W46069  11.696   9.778   4.474 -0.1050 -0.0090  0.2676
29596W        W46070  10.783  11.564   0.319 -0.3950  0.0488  0.1398
29597W        W46071   4.054   8.495   1.419 -0.2630  0.3934  0.2627
29598W        W46072   7.460  13.664  12.019 -0.2500  0.1963  0.2235
29599W        W46073   4.243  15.319   4.296  0.2362 -0.1511  0.1440
29600W        W46074   8.046   0.820  14.667  0.1808  0.1626  0.0102
29601W        W46075   9.974   3.574   2.954  0.1638  0.1973  0.0025
29602W        W46076  14.255  17.797  12.653  0.2257 -0.0457  0.1643
29603W        W46077   3.652  18.030   0.884 -0.1237  0.2324  0.0835
29604W        W46078   0.265   5.514  11.579  0.4985 -0.0603  0.0327
29605W        W46079   5.855   6.107   5.089  0.3416 -0.2555 -0.0666
29606W        W46080   9.226   2.603  13.617  0.3120  0.2300 -0.2992
29607W        W46081  16.833  19.127   1.459 -0.0591  0.4366 -0.2544
29608W        W46082   5.304  15.899  11.657 -0.2153  0.2972  0.2879
29609W        W46083  12.778   5.696  14.738 -0.1098 -0.1442  0.1923
29610W        W46084  16.874  18.576   4.642  0.0588 -0.0539 -0.0140
29611W        W46085  16.861   4.697  14.375 -0.1263 -0.1563  0.3843
29612W        W46086  14.892  12.136   9.938 -0.0688  0.0105  0.0061
29613W        W46087   7.305  11.869   2.262  0.0641 -0.0965  0.3470
29614W        W46088  11.732  13.959  15.014  0.1004  0.0132  0.2673
29615W        W46089   7.642   4.834  11.567 -0.1178 -0.1449 -0.2943
29616W        W46090   1.634  19.037   1.030 -0.2819 -0.2221 -0.2826
29617W        W46091  12.984   6.908  11.801  0.0000  0.1899 -0.2766
29618W        W46092   7.598   0.215  11.323  0.0302  0.0787 -0.0056
29619W        W46093   0.099  13.055   4.801  0.1645 -0.0439  0.0139
29620W        W46094   4.854   3.760  13.363 -0.0393 -0.1248  0.0254
29621W        W46095  13.271   3.386   0.136 -0.0041  0.0390  0.1484
29622W        W46096  10.036  16.379   2.528  0.0392 -0.0597 -0.0967
29623W        W46097  14.926  18.816  13.852  0.1114  0.1246  0.0777
29624W        W46098  10.023   2.277   3.251  0.3309 -0.1526  0.0672
29625W        W46099   9.345   7.989   3.501  0.3021  0.4399 -0.2375
29626W        W46100  12.765   3.453  13.607  0.3461 -0.2553  0.0924
29627W        W46101   6.321  18.658   4.007  0.1552  0.3075 -0.4140
29628W        W46102  15.091   0.819   2.773  0.0845  0.1501  0.1941
29629W        W46103   2.166   0.691   4.697  0.1562 -0.1775 -0.0207
29630W        W46104  13.452  14.422   5.550  0.2361  0.3016 -0.0223
29631W        W46105  15.779  13.338   3.363  0.0193 -0.2541  0.1054
29632W        W46106   5.651   9.183  10.712  0.0210  0.0054 -0.0661
29633W        W46107  11.120   2.647   0.693  0.1676  0.1817  0.2519
29634W        W46108  15.905  17.921  12.355 -0.3234 -0.1118 -0.1027
29635W        W46109  16.878   4.913   4.465  0.0179 -0.2303 -0.0241
29636W        W46110   8.086   6.704   1.682 -0.1611  0.2329  0.0503
29637W        W46111  12.088  15.651  11.830 -0.0899 -0.0681 -0.0890
29638W        W46112  12.332  10.630   2.788  0.1198  0.1083 -0.4070
29639W        W46113  12.831  18.231  13.250  0.3883  0.3074  0.1889
29640W        W46114   4.865   9.689  15.038 -0.2021 -0.1870 -0.0571
29641W        W46115   5.700  16.373  10.948 -0.0431 -0.0930  0.1849
29642W        W46116  18.195  17.780  15.008 -0.0344  0.1805 -0.0177
29643W        W46117   6.427   5.136  13.319  0.0957 -0.2681 -0.1836
29644W        W46118   5.256   5.478   0.746 -0.1344  0.0882 -0.2760
29645W        W46119  10.500  17.714   4.363 -0.0767  0.0015  0.4055
29646W        W46120  15.273  15.373   3.199 -0.2552 -0.0184 -0.2043
29647W        W46121   2.363  12.449   4.700 -0.0547 -0.1810  0.1867
29648W        W46122   7.134   6.918  12.614  0.0169  0.0786 -0.0808
29649W        W46123  12.043  11.599   2.295  0.0860 -0.0459 -0.0343
29650W        W46124   8.775   8.786   3.040  0.0736 -0.0690 -0.0580
29651W        W46125   3.574   1.542   0.703 -0.1362 -0.1601 -0.0963
29652W        W46126   3.259  15.323   5.140 -0.1892  0.1209 -0.1844
29653W        W46127  17.838  13.636   1.020  0.1590 -0.1947 -0.3472
29654W        W46128  10.983   1.940  14.728  0.0594  0.0894 -0.0990
29655W        W46129   6.455  12.133   1.529  0.1222 -0.0149  0.1410
29656W        W46130  15.070  14.589  13.908 -0.0542  0.3477 -0.2587
29657W        W46131  17.952   8.533  11.333 -0.0702 -0.0702  0.2714
29658W        W46132   9.805  13.508   4.907 -0.0121 -0.1112 -0.0258
29659W        W46133   5.988  10.999  10.492 -0.4453 -0.2164  0.0073
29660W        W46134  16.749  10.677   4.310  0.1074  0.0281 -0.1102
29661W        W46135  12.640   7.201   0.868 -0.2471 -0.1790 -0.4711
29662W        W46136  13.245   0.581  13.905  0.1237  0.0526 -0.0391
29663W        W46137   2.384  10.115  12.187  0.0999 -0.0209 -0.0506
29664W        W46138  17.112   0.293  11.944  0.0890  0.0016 -0.0736
29665W        W46139   9.344  18.927   0.226  0.0637  0.0840  0.0924
29666W        W46140  13.246   1.466  10.994 -0.1306 -0.0290  0.2093
29667W        W46141  11.064   1.124  13.279 -0.0374 -0.0365 -0.0500
29668W        W46142   7.184  15.757  14.729  0.0193  0.2653 -0.2697
29669W        W46143  16.835   7.921  12.963 -0.0738  0.1657  0.2285
29670W        W46144   1.623  11.199  13.931  0.5085  0.1542  0.2222
29671W        W46145   8.213  17.496   1.989 -0.1311  0.2108 -0.2832
29672W        W46146  18.965   4.026   2.386 -0.1230  0.2193  0.0897
29673W        W46147  14.115  16.885  11.757  0.2137 -0.1223  0.1057
29674W        W46148   6.739  13.900   4.602  0.2449 -0.1722  0.0210
29675W        W46149   5.718   5.886   4.585 -0.0978  0.0329 -0.0790
29676W        W46150   0.295   1.402   3.129  0.1399 -0.0304 -0.2394
29677W        W46151  10.574  10.747   0.853 -0.3519  0.2538  0.0151
29678W        W46152  15.457  10.407   0.267  0.1912  0.1947 -0.0702
29679W        W46153   3.434   0.841  10.720 -0.1095 -0.0347 -0.0500
29680W        W46154  10.099   2.766   2.150 -0.3181 -0.0533  0.2946
29681W        W46155  13.446   6.769   2.460 -0.0981 -0.1643 -0.0697
29682W        W46156  17.636   6.050  10.229  0.0974 -0.3079  0.0104
29683W        W46157   0.840  14.240  14.545  0.1895 -0.0517  0.2299
29684W        W46158  11.306  14.244  15.133  0.2345 -0.2657  0.0806
29685W        W46159  15.628   3.516   4.179  0.1882 -0.0370 -0.0511
29686W        W46160  10.908  11.186  12.364  0.1403 -0.0249  0.1591
29687W        W46161  10.289   0.836  13.402 -0.1947  0.0124  0.3883
29688W        W46162  17.865   6.398   2.976  0.0076  0.2098 -0.1551
29689W        W46163  14.599   4.289  12.583 -0.0009  0.1095  0.0966
29690W        W46164   4.777   3.889   5.205 -0.2290  0.0012 -0.1886
29691W        W46165   9.773   4.972  12.741 -0.0942 -0.0688  0.2299
29692W        W46166   0.247   7.763   9.275  0.4359 -0.1530  0.0196
29693W        W46167  15.893   4.548   3.175 -0.3851  0.0135  0.0115
29694W        W46168   7.105   0.384   1.041 -0.0378  0.3702  0.1600
29695W        W46169  18.741  10.046  14.153  0.2291  0.1506  0.0911
29696W        W46170   4.929  18.894   4.624 -0.1733 -0.0314  0.0466
29697W        W46171  12.942   3.940  10.662 -0.2266  0.0160  0.1649
29698W        W46172   5.578   7.099   3.624  0.3578 -0.0089 -0.0017
29699W        W46173  13.996  10.137  14.697 -0.0105 -0.2801  0.0241
29700W        W46174   4.701   1.680   3.721 -0.1352  0.2441 -0.5151
29701W        W46175   3.142   4.523   5.179  0.0404 -0.4636 -0.2275
29702W        W46176   4.557  15.989  11.556  0.3253  0.0956  0.0499
29703W        W46177  16.036  18.434  12.525  0.1453  0.0867  0.0167
29704W        W46178   6.423  17.172   2.761  0.0859  0.2942 -0.2015
29705W        W46179   4.431  10.674   0.756  0.1035 -0.3267 -0.1380
29706W        W46180  14.556  10.153  14.093  0.0248 -0.0584 -0.2597
29707W        W46181  14.483   3.477   1.300  0.1066 -0.0339  0.0090
29708W        W46182   0.761  15.070   4.042 -0.1423 -0.2618  0.1195
29709W        W46183  15.946   0.494   2.802 -0.0825  0.0897  0.0645
29710W        W46184  18.013   8.299   0.631  0.0780  0.0479  0.0973
29711W        W46185  13.138   7.569  14.109  0.1597  0.2659  0.0555
29712W        W46186  10.075  12.073   4.277  0.1572  0.0625 -0.1502
29713W        W46187   0.687   0.864   1.924  0.0905 -0.0695 -0.0642
29714W        W46188  18.188  11.015  14.239 -0.0015  0.0599  0.1074
29715W        W46189  17.800   5.657   3.528 -0.1114  0.0441  0.0048
29716W        W46190   0.276  16.095   2.823  0.0837  0.2639  0.0061
29717W        W46191   4.974   6.726  13.588  0.2864  0.0397 -0.0822
29718W        W46192  10.371  13.386  12.242  0.1626 -0.0039 -0.0853
29719W        W46193  12.403  14.464  12.659 -0.1520  0.0447 -0.1043
29720W        W46194  13.986   3.835  10.163 -0.1517  0.2728 -0.2951
29721W        W46195   4.191   7.716  10.118  0.0335  0.3097  0.2867
29722W        W46196   5.070  16.677   0.682 -0.3555 -0.1909 -0.1623
29723W        W46197   7.980   4.806  14.034  0.2709  0.1627 -0.0436
29724W        W46198  10.417   6.097   1.301 -0.2086 -0.2439 -0.1294
29725W        W46199  13.963   2.050  13.510  0.0254  0.1689  0.1463
29726W        W46200  16.374  14.670  14.571 -0.0248  0.0761  0.0213
29727W        W46201   2.414   3.841  13.624  0.0763  0.1011 -0.1483
29728W        W46202  16.195  17.613   3.762  0.2195  0.2560  0.0739
29729W        W46203  16.157   7.942  13.402 -0.1518 -0.2626 -0.0891
29730W        W46204   2.669  10.473   0.392  0.0084 -0.2573  0.2041
29731W        W46205   5.469   2.244   4.770 -0.2232 -0.2480 -0.0549
29732W        W46206   2.175   3.596   0.276  0.1691  0.1258  0.1698
29733W        W46207   9.188  18.422  13.313 -0.4257  0.2102  0.0930
29734W        W46208   6.322  15.198   1.464  0.2791 -0.1195  0.2405
29735W        W46209  15.129   8.307   1.525 -0.1880  0.1025  0.1373
29736W        W46210   5.129  10.288  10.884 -0.3279  0.1448 -0.0056
29737W        W46211  18.569  14.560   5.592 -0.1791 -0.0960 -0.1449
29738W        W46212   7.070  12.402  11.552  0.0792  0.2400  0.0923
29739W        W46213   8.669   6.118  10.599 -0.3737  0.2443 -0.0613
29740W        W46214   1.882  18.333  12.074 -0.0121 -0.0690  0.4148
29741W        W46215  13.777   0.357   4.813  0.0720 -0.0535  0.1891
29742W        W46216  12.728  10.416  13.054 -0.0815  0.2215 -0.1228
29743W        W46217   0.925  14.480   2.949  0.0493 -0.0633 -0.2739
29744W        W46218   8.938  16.231  11.182  0.0053 -0.0568  0.0651
29745W        W46219   9.467   5.751   5.195 -0.1758  0.0522 -0.1809
29746W        W46220  12.410   6.902   0.175  0.1797 -0.0004  0.1928
29747W        W46221   1.654  12.395  10.364  0.0642  0.0449  0.0643
29748W        W46222   5.260  10.857   5.573  0.1753 -0.0453 -0.1366
29749W        W46223  14.102   5.216  14.871 -0.0193  0.3631 -0.0376
29750W        W46224  10.492   2.984   1.375  0.2217 -0.1273 -0.4487
29751W        W46225   5.802  11.906   1.196  0.1811  0.0911 -0.5294
29752W        W46226   1.587   6.513   1.013  0.1463  0.1286 -0.1900
29753W        W46227   1.918   4.122  10.296 -0.0406 -0.1583 -0.1963
29754W        W46228  10.588  10.076   5.807  0.1723  0.1049 -0.0348
29755W        W46229  14.460   6.956  14.505 -0.3512 -0.0251 -0.0668
29756W        W46230  11.084  18.400   1.975  0.3016 -0.2633  0.0062
29757W        W46231   5.041   3.858   1.226 -0.1526  0.0794  0.0276
29758W        W46232   6.053   2.982   1.733  0.0701 -0.2215 -0.0687
29759W        W46233   1.290   1.388   0.668 -0.3607  0.0110 -0.3027
29760W        W46234  10.044  11.715   3.401  0.0319 -0.0733 -0.3700
29761W        W46235  16.047  18.407   9.997 -0.0089 -0.2399  0.0423
29762W        W46236  12.399  14.391   2.210 -0.1909 -0.0915 -0.3081
29763W        W46237  15.421   6.280   4.256  0.3561 -0.1547  0.3067
29764W        W46238  10.850   3.553  12.806 -0.1070  0.0630  0.0351
29765W        W46239   2.162   0.923   0.526 -0.2805  0.0041 -0.3131
29766W        W46240   5.167  10.773  10.764  0.1465  0.0084 -0.0413
29767W        W46241   5.266  17.859  12.996 -0.1670 -0.0617 -0.0631
29768W        W46242  16.847  14.750  14.593 -0.1595 -0.2223 -0.0357
29769W        W46243  10.343   3.287   2.019  0.2153  0.0080 -0.0192
29770W        W46244   6.026  10.501   9.487  0.0068 -0.0453  0.1280
29771W        W46245   5.601  15.878  12.558 -0.2420 -0.0432  0.3086
29772W        W46246  18.086   9.903   9.482  0.0231 -0.0250 -0.5770
29773W        W46247   9.017  18.849  13.128  0.2759  0.0216 -0.1374
29774W        W46248   2.800   6.289   4.791 -0.0914  0.0706 -0.0875
29775W        W46249   5.530   7.557   3.898 -0.0918 -0.3222  0.1387
29776W        W46250   1.355  11.441  13.598  0.1666 -0.1431  0.4008
29777W        W46251   7.490  13.663  12.494  0.1756  0.0098 -0.1972
29778W        W46252  16.281  16.527  14.504  0.0686  0.4015  0.0283
29779W        W46253   8.915   7.589   4.689 -0.0867  0.3203 -0.0368
29780W        W46254   2.402   7.138  14.894 -0.1776  0.0723 -0.3199
29781W        W46255  16.774  14.250   0.940 -0.0195 -0.1263  0.0908
29782W        W46256  14.295  16.552  12.515 -0.0798 -0.1050  0.1255
29783W        W46257   4.266  13.546  11.727 -0.2259  0.0204 -0.0431
29784W        W46258  15.875  15.404   0.652 -0.2694 -0.0806 -0.0982
29785W        W46259  16.298   2.013   2.545  0.0427 -0.5226 -0.1328
29786W        W46260   0.513  12.841  12.487  0.1071 -0.1835 -0.0780
29787W        W46261  16.515   3.248   3.943  0.1344  0.2343 -0.1698
29788W        W46262  13.457  17.493   4.811  0.0914  0.3340  0.3693
29789W        W46263   6.298   7.068  13.252 -0.2099  0.0918  0.0763
29790W        W46264   3.236  16.288  11.531  0.0986  0.0298  0.0704
29791W        W46265  12.252  16.936  11.093  0.0530  0.1353  0.2376
29792W        W46266  17.174  15.462  10.757  0.1785 -0.1612  0.0216
29793W        W46267   7.701   3.479  14.699  0.0931  0.0996 -0.0667
29794W        W46268  10.537   8.911   0.909 -0.1087 -0.1148 -0.1759
29795W        W46269  16.339  18.354   3.241 -0.0141  0.0389  0.3070
29796W        W46270  14.431  13.506  12.379  0.1212  0.0557  0.0215
29797W        W46271   0.279   8.674  11.505  0.1457  0.1631  0.1442
29798W        W46272  13.180  17.836   0.936 -0.0072  0.1161 -0.0844
29799W        W46273   3.146  13.726  11.841  0.2496 -0.1101 -0.2164
29800W        W46274  13.633   2.276  10.529 -0.1242 -0.1791  0.0878
29801W        W46275   8.212   4.446   0.957 -0.2639  0.3571  0.2899
29802W        W46276  17.638   2.088   5.042 -0.0651  0.0040 -0.2244
29803W        W46277  12.406   7.620   2.642 -0.1830 -0.0774 -0.1695
29804W        W46278  15.486   4.542   1.769 -0.1123 -0.0698  0.1177
29805W        W46279  13.102   0.918   1.061 -0.0518 -0.1826  0.1714
29806W        W46280   3.592  13.524  13.049  0.2222 -0.2757  0.0298
29807W        W46281   8.793   7.330   3.221 -0.0213  0.4707 -0.4470
29808W        W46282  13.991   7.994   3.461  0.1051 -0.1567  0.0265
29809W        W46283  18.203   3.936   4.982 -0.1022 -0.0711  0.3526
29810W        W46284  13.362  12.972   4.003  0.0736  0.1521 -0.4483
29811W        W46285  10.097   1.941  14.497  0.2649 -0.3523 -0.1028
29812W        W46286  14.730   8.190   0.574  0.0190 -0.0050  0.0961
29813W        W46287  12.738   5.082   3.302  0.0282  0.2469  0.3037
29814W        W46288  10.972  18.376   3.038 -0.4138  0.0114  0.0419
29815W        W46289   4.373  17.926   3.163 -0.0699  0.1509  0.1519
29816W        W46290  15.593  17.111   0.401  0.0794  0.1410 -0.2054
29817W        W46291   1.503  15.302   3.438 -0.0030  0.0326 -0.1389
29818W        W46292   4.552   7.418  11.694 -0.0321 -0.1472  0.2417
29819W        W46293  14.855   9.012   1.051 -0.0342 -0.1252 -0.2594
29820W        W46294   5.015   9.934   5.231  0.0584  0.0135  0.3051
29821W        W46295  13.060  13.460  13.411  0.1639  0.1941  0.2010
29822W        W46296   4.084   5.783  12.941 -0.1739  0.3372  0.1603
29823W        W46297   0.971   5.768  11.919 -0.3753 -0.1157  0.4233
29824W        W46298  14.190   6.469   0.037 -0.1040  0.0556 -0.1492
29825W        W46299   3.486   4.567   2.691  0.1370 -0.0845  0.2742
29826W        W46300   2.146   2.489  11.086  0.0145  0.1936  0.3526
29827W        W46301   5.834  10.021  14.281  0.0545 -0.1374 -0.0476
29828W        W46302  17.570  15.720   0.239  0.0304 -0.3043 -0.0703
29829W        W46303   1.055   7.287  10.786  0.0508 -0.1420 -0.1637
29830W        W46304   6.096   5.010  13.654 -0.1085 -0.0623  0.0531
29831W        W46305  14.614  10.669  12.899 -0.1217  0.2809  0.2782
29832W        W46306   0.979  13.689   3.943  0.1268  0.1658 -0.2830
29833W        W46307   3.878  15.833  14.106  0.0382 -0.1611  0.0412
29834W        W46308  14.399   9.669   0.694  0.1544  0.2061 -0.1489
29835W        W46309  18.422   0.217  11.255 -0.2369 -0.0602 -0.1223
29836W        W46310  12.424   5.815   5.111  0.0321  0.3436 -0.2589
29837W        W46311  13.503   8.420   2.613  0.0442  0.3295 -0.3053
29838W        W46312  12.222   4.154   1.338  0.0460  0.4215  0.6124
29839W        W46313   6.199   2.823   0.021 -0.0409  0.2870  0.0619
29840W        W46314  12.947   8.969  13.324 -0.0036 -0.0641  0.0194
29841W        W46315  18.582  13.068  13.219 -0.2547  0.2357 -0.0922
29842W        W46316   4.632  14.658   2.052 -0.0854 -0.3380 -0.0875
29843W        W46317  12.010   2.503   1.609 -0.3135 -0.1239  0.1019
29844W        W46318  17.339  11.466  14.342  0.3910 -0.0756  0.2290
29845W        W46319  10.765  11.486   0.825 -0.3104 -0.0572  0.1745
29846W        W46320  13.450   6.479   3.981 -0.1167 -0.1909 -0.1302
29847W        W46321   6.963  16.158  11.530 -0.2373  0.0505 -0.0324
29848W        W46322   0.216  18.708  12.859 -0.2175  0.2806 -0.0115
29849W        W46323  10.392   9.475  13.408 -0.1285  0.0032  0.4720
29850W        W46324  13.368   0.921   3.575 -0.0454 -0.3165 -0.0674
29851W        W46325  16.461  15.563  14.173 -0.1881  0.0209  0.3040
29852W        W46326  17.267  10.792  13.298 -0.0765  0.1186 -0.0971
29853W        W46327   2.630   7.521  14.002  0.2570  0.0278 -0.4320
29854W        W46328  18.941   0.198  10.919 -0.2372  0.4405  0.2674
29855W        W46329  16.074  17.829  14.477 -0.1100  0.1528  0.1188
29856W        W46330  12.531   9.082  12.376  0.0117  0.0406  0.4493
29857W        W46331  16.644  18.238   3.619 -0.0624 -0.3079 -0.0477
29858W        W46332  10.951   9.882   4.119 -0.0184 -0.0115  0.0118
29859W        W46333  17.387   4.350   3.323 -0.1355 -0.1505 -0.0199
29860W        W46334  12.560   2.160   2.329 -0.0423 -0.2580 -0.0112
29861W        W46335  17.314  14.707  11.551 -0.1866  0.0077 -0.1478
29862W        W46336   1.414   1.167  15.017 -0.1593  0.0403  0.0462
29863W        W46337  11.500   6.968   5.043  0.0572  0.3652 -0.3488
29864W        W46338   7.766   7.939  12.360 -0.4844  0.2819 -0.1238
29865W        W46339  13.991  15.627   4.429  0.2838 -0.0846 -0.1608
29866W        W46340   0.507  12.131   1.799 -0.0940  0.1954 -0.1478
29867W        W46341   4.920   3.591  13.801 -0.4723  0.0657  0.0332
29868W        W46342   8.904   3.031  13.701  0.1727  0.0404  0.1564
29869W        W46343   5.938   7.121   8.860  0.1617  0.0095  0.0374
29870W        W46344   5.591   9.178   4.136  0.3973  0.2034  0.0291
29871W        W46345   0.544   0.945  13.823 -0.0468  0.1059  0.0413
29872W        W46346  17.835  18.642  14.354  0.1044 -0.1080  0.0095
29873W        W46347  13.350  16.639  12.813 -0.1541 -0.2331 -0.1057
29874W        W46348   5.120  14.644   1.900  0.1421 -0.1556  0.1983
29875W        W46349   2.630  11.790   3.323  0.0476 -0.1619 -0.1907
29876W        W46350   6.000  10.273   5.380 -0.1787 -0.2713 -0.0508
29877W        W46351  16.932  18.064   3.210 -0.0339 -0.0263  0.2313
29878W        W46352   4.979   3.587   5.937  0.1348 -0.3722  0.1963
29879W        W46353   8.346   4.100   3.162  0.0298  0.0213  0.1460
29880W        W46354   2.928  10.489   9.703  0.0531 -0.0958 -0.1043
29881W        W46355   7.801  16.292   2.805  0.0228 -0.1167  0.0871
29882W        W46356   1.729  18.329   1.164 -0.0583  0.0192 -0.0512
29883W        W46357   9.272   9.790   0.987  0.1793  0.3583 -0.0676
29884W        W46358  14.295  13.873  11.257  0.0180  0.1917 -0.0632
29885W        W46359   8.247   8.370  11.079  0.0225 -0.0941 -0.0011
29886W        W46360  13.429  17.416   3.692 -0.1240  0.5701  0.3044
29887W        W46361  14.713  17.259  12.654 -0.1005  0.0451 -0.2721
29888W        W46362  11.895   7.718   2.628 -0.0525 -0.2689  0.3079
29889W        W46363  10.288  14.069   1.425  0.1437  0.1568 -0.1296
29890W        W46364   3.881   9.930   4.356  0.2004  0.0511 -0.0186
29891W        W46365   1.171   8.914  10.247  0.3152 -0.0397 -0.0939
29892W        W46366   3.131   2.719  11.131 -0.0245  0.1653 -0.3721
29893W        W46367  14.814  18.272   2.407 -0.3267  0.0394  0.1230
29894W        W46368   0.964   4.311  12.236 -0.0587  0.0539 -0.2574
29895W        W46369   8.229   6.041  12.033 -0.0187  0.0868 -0.3866
29896W        W46370   6.810   9.143  11.580 -0.3696 -0.2681  0.2725
29897W        W46371   6.805  13.299   5.574  0.1887  0.3739  0.1746
29898W        W46372  11.829  11.453   3.701 -0.1096 -0.1881 -0.1943
29899W        W46373  10.758   7.036   3.314 -0.0989  0.0697  0.0627
29900W        W46374   1.874   6.779  13.796  0.2729  0.1218  0.1259
29901W        W46375   1.961   1.104   1.418 -0.0505 -0.1066 -0.0691
29902W        W46376   0.209  18.800  10.491  0.0269  0.0556 -0.3087
29903W        W46377  11.490   4.121  12.844  0.1850  0.1158  0.1641
29904W        W46378   7.862  11.829   4.230 -0.0890 -0.1320 -0.1825
29905W        W46379  16.392   4.674  14.452  0.0451  0.0026  0.2346
29906W        W46380  16.032   3.843  13.624  0.0207  0.2218 -0.0505
29907W        W46381  16.395  13.222  12.267  0.1461  0.1868 -0.0888
29908W        W46382   7.023   9.984  12.182  0.2082 -0.0713  0.0718
29909W        W46383   0.787   2.927   5.523 -0.1085 -0.2514  0.0036
29910W        W46384   1.260   6.806  14.472 -0.2430  0.0518 -0.2226
29911W        W46385   8.517   5.176  10.808  0.1381  0.2916 -0.0443
29912W        W46386  16.375   9.847  14.956 -0.1882  0.0342  0.1998
29913W        W46387  14.262  12.500   2.274 -0.1363 -0.1592  0.0850
29914W        W46388   3.514   9.323   1.762  0.1595  0.3012  0.0133
29915W        W46389  15.978   3.966  14.703 -0.1264 -0.0006  0.0072
29916W        W46390  10.499  13.692   5.566 -0.1327  0.2381 -0.1412
29917W        W46391   7.019  19.076   4.850  0.2461  0.1422 -0.1785
29918W        W46392  11.554   7.241   0.489 -0.4352 -0.0634 -0.0222
29919W        W46393   5.520   1.671  10.628 -0.0458 -0.1968 -0.1317
29920W        W46394  10.284   9.267  10.303 -0.0556 -0.0044 -0.0264
29921W        W46395   9.997   4.162  12.188 -0.1567  0.1527 -0.0357
29922W        W46396   8.921  11.247  13.466  0.2671  0.0200  0.3147
29923W        W46397   3.971  14.019   9.308  0.1976 -0.1356  0.3452
29924W        W46398  10.673   0.115   4.313  0.1679  0.2286  0.1821
29925W        W46399   2.466  18.114   2.141  0.1740 -0.0658 -0.0437
29926W        W46400   1.255   6.818  10.610  0.3235  0.1486  0.0429
29927W        W46401  18.919   4.257   1.396  0.2564 -0.2177  0.2613
29928W        W46402  16.800   3.133   2.822  0.0545  0.2592  0.4283
29929W        W46403  18.432   7.934   5.624  0.0212  0.2348 -0.1363
29930W        W46404   8.086  17.702   0.545  0.1741 -0.1791 -0.2776
29931W        W46405  13.402  10.177  12.020 -0.1401 -0.4713  0.2191
29932W        W46406   1.952  13.438   3.721 -0.1581 -0.2835 -0.3365
29933W        W46407  15.001  17.628  11.701  0.2142  0.0598  0.1737
29934W        W46408   0.928  15.723  12.464 -0.1270  0.1589 -0.1977
29935W        W46409   2.378  15.565  12.052  0.2913  0.0230  0.0860
29936W        W46410   6.839   5.787  13.481 -0.2166  0.1888  0.3568
29937W        W46411   2.617   0.746   0.485  0.1371  0.0154  0.1247
29938W        W46412   6.560   7.943   3.238  0.1254  0.0034 -0.1204
29939W        W46413   4.172   6.514   1.555 -0.1284 -0.0540  0.0948
29940W        W46414  15.435  15.719  13.004 -0.0590 -0.0374 -0.1342
29941W        W46415  14.029  12.151   1.882  0.2413  0.0334  0.0509
29942W        W46416  17.058  10.627   1.867 -0.0233  0.1327  0.0308
29943W        W46417  15.162   1.659   1.649  0.2115  0.3013  0.5105
29944W        W46418   4.527  15.062  11.887 -0.0504  0.1186 -0.3084
29945W        W46419   7.601   1.968  11.146  0.4798 -0.1206 -0.2377
29946W        W46420   9.252  17.376   4.599 -0.2423 -0.4184  0.2027
29947W        W46421   1.469   1.192   5.040 -0.4065 -0.0826  0.2090
29948W        W46422  12.203  18.009   5.222 -0.1121  0.4280  0.0635
29949W        W46423  13.440   1.026   0.433  0.2574  0.0233  0.1075
29950W        W46424   5.897   8.983  14.179 -0.1171 -0.2174 -0.0294
29951W        W46425  16.950   2.641  10.668 -0.2990  0.0421  0.0761
29952W        W46426   3.445  11.115  10.778  0.4612 -0.3907 -0.0719
29953W        W46427   9.074  17.107  10.830  0.1308  0.0761  0.1125
29954W        W46428   3.266   5.025   0.888 -0.0804  0.2792 -0.0332
29955W        W46429   0.063  14.925  12.295  0.0372 -0.1158  0.0963
29956W        W46430  12.404  18.548   3.135 -0.0754  0.1098 -0.1857
29957W        W46431   4.324  12.852  10.655  0.3023  0.2861  0.0333
29958W        W46432  18.059   9.284  13.887  0.0631  0.2042  0.0813
29959W        W46433  12.047   4.205   0.449  0.0438 -0.1539  0.0269
29960W        W46434  11.287  14.303  13.440  0.3242 -0.1543 -0.1846
29961W        W46435  16.205   8.939  10.561  0.0389  0.1855  0.0974
29962W        W46436   0.119   4.627   0.213  0.2034  0.2235 -0.0302
29963W        W46437  17.495   7.701  14.678  0.3258  0.2604 -0.1079
29964W        W46438   6.086  13.564  10.440  0.0518  0.1417 -0.0052
29965W        W46439   1.873  18.185   3.061 -0.4311 -0.0493  0.0311
29966W        W46440   7.686  14.253   3.448  0.0295 -0.0034 -0.3213
29967W        W46441  11.174   7.859   1.852  0.0316  0.2622 -0.1087
29968W        W46442   4.070  19.018   4.363 -0.1733 -0.0116 -0.1441
29969W        W46443   4.694   0.669  12.757 -0.1649  0.0022  0.3645
29970W        W46444  14.776  11.853  11.733 -0.1155  0.0847  0.2476
29971W        W46445   2.265   3.279   1.628  0.2573  0.1467 -0.0025
29972W        W46446  15.003   0.207  12.743 -0.2845 -0.2145  0.2431
29973W        W46447  16.928  15.648   1.509 -0.1212  0.1844 -0.1883
29974W        W46448   9.761  17.551   4.974  0.2015  0.1209  0.2411
29975W        W46449  15.467  17.695  12.467 -0.0056 -0.3819  0.2497
29976W        W46450   8.146   6.192   1.808  0.1079  0.2732  0.0233
29977W        W46451   6.799  18.363  13.058 -0.0960 -0.0552 -0.4201
29978W        W46452   6.640  15.098   3.439  0.1018 -0.0857  0.0310
29979W        W46453   2.795  17.864  14.636  0.2540 -0.0875  0.0284
29980W        W46454  15.787   8.268  13.576 -0.1053 -0.3032 -0.2413
29981W        W46455  18.723   1.720  13.301 -0.1392  0.0307 -0.2993
29982W        W46456   3.150  16.654   0.466 -0.1007 -0.1298  0.2186
29983W        W46457   7.475  16.156  14.053 -0.0460 -0.2572  0.1735
29984W        W46458  17.114   2.128   4.805 -0.0408 -0.2253 -0.0592
29985W        W46459   6.308   4.274  11.506 -0.3669  0.0468 -0.4484
29986W        W46460  12.277  18.977  12.436  0.0698  0.2434  0.2273
29987W        W46461  14.412   8.625   2.380  0.1214 -0.2006 -0.2968
29988W        W46462  15.313  13.380  12.369 -0.0931 -0.1675  0.0760
29989W        W46463   4.884  11.621  13.888  0.0282 -0.1848  0.5000
29990W        W46464   1.098  12.238   2.882  0.3708 -0.0833 -0.1419
29991W        W46465   7.062   2.074  13.832 -0.1338  0.3096 -0.1309
29992W        W46466  10.433   9.675   5.029 -0.1579  0.3068 -0.0409
29993W        W46467   0.789   8.949  11.262 -0.1998  0.2669 -0.1025
29994W        W46468   8.583  10.557   1.872  0.5292 -0.0790 -0.0744
29995W        W46469  16.292  12.614   2.591 -0.2054  0.0266  0.2886
29996W        W46470   8.163   7.680   4.259  0.0124  0.1868 -0.0779
29997W        W46471  11.783  15.348  13.075 -0.2259 -0.3040 -0.3250
29998W        W46472   3.084   0.012   3.232 -0.0106 -0.2572 -0.1793
29999W        W46473  10.990  14.613  15.019 -0.2794 -0.1745 -0.4967
30000W        W46474  14.988   3.280   1.901  0.3545 -0.4044  0.0386
30001W        W46475  11.195   1.726  13.289  0.3067 -0.0590 -0.2745
30002W        W46476   3.323  18.098   3.265 -0.0175  0.0418  0.0102
30003W        W46477  17.531   5.432   5.034  0.0397 -0.1667  0.0027
30004W        W46478   1.542  11.078   3.072 -0.2832 -0.0783 -0.1235
30005W        W46479  15.815   3.398   0.180 -0.0513 -0.1376  0.1034
30006W        W46480   5.469   6.057   9.631  0.0303 -0.2341 -0.1193
30007W        W46481   7.429   5.696   1.508  0.1591 -0.0490 -0.1466
30008W        W46482  14.295   1.147   0.340  0.0975 -0.0436  0.0318
30009W        W46483   3.709  15.635   5.246 -0.1436  0.3935  0.0519
30010W        W46484   5.510  15.502  13.783 -0.0466 -0.0745  0.1177
30011W        W46485  18.503  18.828   4.437 -0.0437  0.0727 -0.1981
30012W        W46486  10.445  11.335  14.126  0.0649 -0.0312 -0.1300
30013W        W46487   6.104   7.360  13.638  0.1991  0.1264  0.3897
30014W        W46488   5.411   3.993  11.982  0.1158  0.2122  0.1094
30015W        W46489   4.559  15.127  10.308  0.1325 -0.0036  0.0532
30016W        W46490   1.707  16.992   0.165 -0.0567 -0.2469  0.0726
30017W        W46491   7.361  14.435   4.846  0.1936 -0.2239  0.2098
30018W        W46492   7.942   0.852  10.904 -0.4704  0.2404  0.2287
30019W        W46493   0.531  15.349  12.636  0.3069  0.1242 -0.1795
30020W        W46494  17.495   1.067  14.520 -0.1411 -0.0866  0.0488
30021W        W46495  17.289  11.895   4.829  0.0618 -0.0488  0.0531
30022W        W46496  13.643   5.201   0.116  0.1223  0.0273  0.0731
30023W        W46497   7.253   3.347  12.771 -0.1509 -0.0118 -0.2408
30024W        W46498  11.487   8.970  11.103  0.5225 -0.1566 -0.0376
30025W        W46499  13.135   8.676   4.567 -0.1923 -0.1847  0.0563
30026W        W46500   4.049   2.051  11.088 -0.1459  0.1101 -0.1665
30027W        W46501   5.089   9.385  12.491  0.0484 -0.4065  0.1588
30028W        W46502   8.974   3.341   3.201  0.1241 -0.2308 -0.2039
30029W        W46503   3.715   0.909  11.128 -0.4335  0.0044 -0.2299
30030W        W46504   7.849  10.247  11.385 -0.1616  0.1275 -0.2738
30031W        W46505  16.960   9.988  10.119  0.1942 -0.2447 -0.3033
30032W        W46506  15.480  16.293   5.133 -0.2585  0.2567  0.0757
30033W        W46507  16.941  13.203   4.928  0.0486  0.0670 -0.0357
30034W        W46508   6.449   9.344   4.445 -0.1506 -0.1721 -0.0811
30035W        W46509  12.409  11.699  13.282 -0.1992  0.0868  0.1188
30036W        W46510   9.409  11.480  15.034  0.0761 -0.0614  0.1270
30037W        W46511   0.744  14.256  12.059 -0.2728 -0.1385 -0.0384
30038W        W46512  15.203  17.019   2.543  0.3064 -0.0951  0.2763
30039W        W46513   4.921   0.280   3.873 -0.0931  0.2047  0.3047
30040W        W46514   7.233   7.793  13.106 -0.0983  0.2109  0.2909
30041W        W46515   2.029   8.346   2.877 -0.0716  0.1172  0.0457
30042W        W46516  17.970   5.500  13.222 -0.3605  0.1219 -0.0760
30043W        W46517  12.991   0.429  12.220  0.1567  0.2853  0.0516
30044W        W46518   8.149  16.939  11.024 -0.1324 -0.1315 -0.2718
30045W        W46519   9.367   3.993   3.404 -0.1018 -0.0344  0.2727
30046W        W46520   9.010   5.646   2.272 -0.2119 -0.1679 -0.1929
30047W        W46521  18.197  13.272  11.996  0.3109 -0.1225 -0.2312
30048W        W46522   8.882   5.374   1.821  0.1607  0.3973  0.1038
30049W        W46523   7.928  18.906  12.061  0.1279 -0.0292 -0.0329
30050W        W46524  14.599  18.967  14.317  0.1660  0.1014  0.1202
30051W        W46525  10.041   4.898   3.241 -0.0975  0.2956  0.0962
30052W        W46526  18.177  15.080  13.633  0.4832  0.0694 -0.3568
30053W        W46527  10.205  17.039   3.573  0.0784 -0.0523  0.2206
30054W        W46528   2.588  14.902  14.536  0.1578 -0.2250 -0.1370
30055W        W46529   9.863   0.996  13.685 -0.2657 -0.3009  0.1708
30056W        W46530  14.645  13.727   4.649 -0.1574 -0.1652 -0.0762
30057W        W46531  19.139  18.145   0.276 -0.0340 -0.2076 -0.0885
30058W        W46532   8.109  10.288  12.738 -0.0734  0.3031  0.1255
30059W        W46533  11.308   2.663   4.520  0.1887  0.0518  0.1192
30060W        W46534  14.507  13.995   4.233  0.2864  0.2309  0.2643
30061W        W46535   4.189  17.588  12.915  0.1152 -0.2931 -0.1369
30062W        W46536  17.243  13.360  12.460  0.0538 -0.1221  0.0131
30063W        W46537   1.963   1.360   1.949  0.0709 -0.2634 -0.0484
30064W        W46538   2.231   7.131   3.387 -0.1214 -0.0345 -0.2245
30065W        W46539  11.132  18.670   2.464  0.3040  0.0344  0.0184
30066W        W46540   3.538   5.951   2.783 -0.1392 -0.0772  0.0592
30067W        W46541   1.640  12.154  11.324 -0.0925 -0.2044  0.1088
30068W        W46542   0.745   3.738  13.245 -0.0344 -0.3364 -0.1508
30069W        W46543   3.939  13.139   1.655  0.1352 -0.0264 -0.0924
30070W        W46544  17.210  11.291  10.824 -0.1091  0.2502  0.1684
30071W        W46545   1.763   1.746  10.856 -0.3116  0.2673  0.1051
30072W        W46546   9.821   7.031  15.016 -0.4066 -0.1708 -0.4754
30073W        W46547  13.140  16.933   1.608 -0.1837  0.1183 -0.0443
30074W        W46548   3.813  13.893   1.240 -0.0097  0.0463 -0.0358
30075W        W46549   6.451   6.681   3.642 -0.0038  0.0380 -0.0315
30076W        W46550   1.184  12.814  11.377 -0.0055  0.3171 -0.2881
30077W        W46551   0.436  13.543   3.812 -0.1348  0.1392  0.2546
30078W        W46552  14.092  16.259   4.876 -0.1449  0.2163 -0.3974
30079W        W46553   2.027   3.427   5.274 -0.0542 -0.0096  0.1505
30080W        W46554   1.757   0.707  11.699 -0.0878 -0.0156 -0.0291
30081W        W46555   6.622  15.705   3.629  0.0449  0.2491 -0.1490
30082W        W46556  16.358  15.165  13.754 -0.2351  0.1926 -0.2175
30083W        W46557   7.732  14.064   0.434  0.1642  0.3745 -0.1507
30084W        W46558   6.860  18.677   5.135 -0.0015 -0.1215  0.4333
30085W        W46559   9.655  17.033  12.479  0.0008 -0.0493 -0.1761
30086W        W46560  18.427   6.456  14.601 -0.3375 -0.1526 -0.2435
30087W        W46561  18.088  18.660   4.204 -0.0893  0.0676  0.0764
30088W        W46562  16.193   5.977  14.439 -0.1884 -0.1053  0.0809
30089W        W46563  12.551  13.609  14.985  0.0084  0.2401 -0.0902
30090W        W46564   1.387  14.600   2.860 -0.5268 -0.2224 -0.1694
30091W        W46565   8.772   7.087  11.931 -0.0053 -0.0463 -0.1458
30092W        W46566   8.311   8.146  14.960 -0.1449  0.3308  0.1460
30093W        W46567  10.081  11.393   2.948 -0.0992  0.0411 -0.1976
30094W        W46568  14.318  12.211  10.023 -0.2017 -0.0204 -0.0842
30095W        W46569   3.005   8.710   4.788 -0.3091  0.1196 -0.2417
30096W        W46570   5.762  15.298   1.305 -0.2423  0.4097  0.1030
30097W        W46571   2.007   7.912  10.820 -0.0313  0.1048 -0.0159
30098W        W46572   2.030  13.419  14.747 -0.1140  0.2915  0.1232
30099W        W46573   1.228   5.897  14.750 -0.1368  0.1761  0.1909
30100W        W46574   3.768  13.522   2.341 -0.0179  0.1916 -0.0539
30101W        W46575   7.411   7.555  14.250  0.3746 -0.0389 -0.1092
30102W        W46576   3.257   5.640  14.297  0.1184  0.4531 -0.0961
30103W        W46577   1.643   0.680  13.267  0.1347  0.1227  0.0503
30104W        W46578   0.206  12.574   3.726 -0.2583 -0.1682  0.3200
30105W        W46579  15.304  11.184  12.395 -0.2115  0.0828 -0.2656
30106W        W46580  14.049  14.023   1.902 -0.3483  0.0304 -0.0907
30107W        W46581  18.305   0.472  13.675 -0.1427  0.1811 -0.0828
30108W        W46582  13.120   9.186   2.553 -0.1535 -0.1599 -0.0082
30109W        W46583  14.086   8.783  10.357  0.1252 -0.1816  0.0095
30110W        W46584   6.927   2.620   2.454 -0.0639  0.2482 -0.0675
30111W        W46585  18.016   4.497   3.461 -0.0413 -0.0723  0.0054
30112W        W46586  11.442  18.265  10.906  0.3130  0.0355 -0.1202
30113W        W46587  14.231   1.020  12.438 -0.0909 -0.2483 -0.2210
30114W        W46588   6.443  15.987  14.467  0.0555  0.2515  0.1918
30115W        W46589   4.545   9.771   5.323 -0.1364  0.2573 -0.0426
30116W        W46590  14.637  19.074  12.075  0.0233 -0.1956  0.4749
30117W        W46591  16.929   7.977  14.550 -0.3456 -0.1948  0.3728
30118W        W46592   1.075  13.085   0.063 -0.0590  0.0204  0.1419
30119W        W46593   7.261   9.457   3.404 -0.0903  0.0089  0.0782
30120W        W46594   1.033   3.110  12.428 -0.2224 -0.0638 -0.0028
30121W        W46595   8.740  12.646   4.070  0.0822  0.1937  0.3818
30122W        W46596  12.994   1.040  13.000 -0.1342  0.0161 -0.1742
30123W        W46597   8.742   3.737  13.763 -0.0366  0.1150 -0.0381
30124W        W46598   9.155  12.333   3.950  0.2248  0.4338 -0.0467
30125W        W46599  12.458   3.432   3.513  0.1655 -0.3909  0.1905
30126W        W46600  14.196   1.677  14.761 -0.1566  0.0991  0.4109
30127W        W46601   1.704   0.449   3.696 -0.2654 -0.0631 -0.1934
30128W        W46602   9.640   1.793   4.258  0.0340  0.0571  0.1024
30129W        W46603   7.524   5.697  13.768 -0.0802  0.0179  0.1392
30130W        W46604   9.328  12.373   3.517  0.1544  0.1895 -0.4158
30131W        W46605  18.365   7.364  11.763 -0.0697 -0.3223  0.0333
30132W        W46606   8.411  11.898   1.383 -0.2991  0.1178  0.1502
30133W        W46607  10.064  16.285  11.728 -0.2179  0.1141  0.1428
30134W        W46608   1.037  18.533   1.934  0.2990 -0.0680 -0.2219
30135W        W46609   7.289  13.210  14.959  0.0624 -0.0910 -0.3116
30136W        W46610   0.084   9.960   4.090 -0.1275 -0.1960 -0.1262
30137W        W46611  17.571  18.204  12.444  0.1578 -0.1075  0.0026
30138W        W46612  14.414   8.814  10.987  0.0419  0.0994  0.0464
30139W        W46613   8.510  17.410   0.361  0.1775 -0.0277 -0.2054
30140W        W46614  13.432   9.918   3.363 -0.1139  0.1408  0.1568
30141W        W46615   3.390   4.069   0.075 -0.1699  0.3887 -0.2043
30142W        W46616  17.929  14.945  12.922  0.2833 -0.4081  0.0979
30143W        W46617   8.088   6.962  12.615 -0.1115  0.0618  0.1399
30144W        W46618   1.493  15.041   2.632  0.1952 -0.4410  0.1661
30145W        W46619   7.966  17.670  14.617  0.0481  0.2101 -0.0245
30146W        W46620  10.916  16.253  12.150 -0.2407 -0.1239 -0.1596
30147W        W46621  10.628   4.264   3.290 -0.0707 -0.2346 -0.0307
30148W        W46622   1.759  17.763  10.952  0.1209  0.1625  0.0362
30149W        W46623   7.038   8.119   2.054  0.1656  0.1730 -0.0576
30150W        W46624   4.181   3.498  10.826  0.2861 -0.1350  0.3151
30151W        W46625  10.034   5.871   3.075 -0.2089  0.2711  0.3283
30152W        W46626   4.121   4.554   3.102  0.0309 -0.0994  0.2178
30153W        W46627   9.476   7.608  12.922  0.0861  0.1407 -0.0360
30154W        W46628   6.283   3.681  10.141  0.0831  0.0166  0.2106
30155W        W46629  12.314  17.821  11.284 -0.1246 -0.0506 -0.3494
30156W        W46630  15.346   6.962   0.024 -0.0830  0.2568  0.1830
30157W        W46631  17.810  10.615  14.132  0.0697  0.2279  0.3090
30158W        W46632  11.933   1.168   0.982 -0.0183 -0.0522  0.2981
30159W        W46633  15.706   4.959   1.466  0.2684 -0.3046 -0.3971
30160W        W46634   2.444   0.107  13.723  0.1998 -0.0273 -0.3975
30161W        W46635   2.090  16.565   2.251  0.0134  0.0572  0.1603
30162W        W46636  14.688  13.125  11.682  0.0964  0.1301  0.0501
30163W        W46637  17.249   2.463  10.187  0.0414  0.1592 -0.1121
30164W        W46638  16.463  10.049   1.397  0.2153 -0.0594  0.0224
30165W        W46639  10.029   5.449  11.270 -0.0576 -0.0529  0.0408
30166W        W46640   9.135  17.548   1.284 -0.2436  0.0515 -0.0614
30167W        W46641  16.727  10.566  12.384  0.2203 -0.1056  0.1170
30168W        W46642   5.943   6.690   3.784 -0.1216 -0.2257 -0.0430
30169W        W46643   2.983  16.110   2.413  0.1538  0.1363  0.0012
30170W        W46644  13.934  11.351   5.826  0.1710 -0.1686 -0.1187
30171W        W46645   6.916  14.914  11.153 -0.0422  0.1219 -0.1139
30172W        W46646  17.063   3.263   0.283  0.1684  0.1961 -0.1643
30173W        W46647   5.159   8.910   4.100  0.0688  0.4055  0.2271
30174W        W46648   2.216   5.587  11.140 -0.1291  0.0673  0.1255
30175W        W46649   1.860  15.509  14.614  0.0677  0.4227 -0.0069
30176W        W46650   8.116   3.273  14.960 -0.2170 -0.0472 -0.5696
30177W        W46651  13.786   9.637   1.919 -0.1544  0.2539 -0.0074
30178W        W46652  14.700  17.989   0.751  0.1531 -0.0921 -0.0502
30179W        W46653   0.893  15.461   3.411  0.2939 -0.3101  0.0234
30180W        W46654  13.433  12.456   2.590 -0.3423  0.0218 -0.0208
30181W        W46655  18.893   6.467   3.924  0.0153  0.1109  0.1721
30182W        W46656  13.946   2.218  10.927  0.1782 -0.2198  0.0771
30183W        W46657  10.862  17.578  13.328  0.1663  0.2400 -0.0515
30184W        W46658   3.567  13.305   0.032 -0.0131 -0.0829  0.2272
30185W        W46659   7.354  15.013  11.628  0.2209 -0.1239 -0.1496
30186W        W46660  18.538   5.209   2.570 -0.1169 -0.0362 -0.2916
30187W        W46661   4.503  16.865   2.360 -0.1691 -0.0775 -0.0921
30188W        W46662   5.672  12.437  12.364 -0.1491 -0.0472  0.1466
30189W        W46663  14.243   5.975   4.665 -0.1449 -0.2081 -0.1066
30190W        W46664   7.571  10.675   1.955 -0.2181 -0.2864  0.3681
30191W        W46665   3.364   9.842   3.461  0.1331 -0.0611 -0.0486
30192W        W46666   2.580   5.121   2.399  0.3632 -0.4095  0.1474
30193W        W46667  16.014  11.212  14.174 -0.1202  0.2016 -0.0649
30194W        W46668  17.314   7.313  14.853  0.3119 -0.0038  0.1627
30195W        W46669   6.153   7.540   2.949 -0.4043  0.1890  0.0582
30196W        W46670   8.098   6.684  11.221  0.0836 -0.1618 -0.0370
30197W        W46671   7.434  17.914  10.703  0.1366  0.1874  0.1013
30198W        W46672   5.306  17.507   1.189  0.1721 -0.3185 -0.2541
30199W        W46673  16.034   5.557  10.879  0.2214 -0.0059 -0.1169
30200W        W46674   3.257  15.626   0.187  0.0205  0.1755 -0.2307
30201W        W46675  10.813  15.152   1.081 -0.2041 -0.0768  0.0792
30202W        W46676  12.893  12.622   0.272  0.0581 -0.1449  0.0016
30203W        W46677  18.488   6.305  12.312  0.1625 -0.1143  0.1330
30204W        W46678   0.782   2.263  11.918 -0.0311 -0.0100  0.0991
30205W        W46679   3.862   9.365   3.649  0.2192  0.0313  0.3862
30206W        W46680  13.452  15.332  13.232  0.1926  0.0895 -0.0735
30207W        W46681   3.086   7.989  11.044  0.1717 -0.0167  0.2082
30208W        W46682  11.748  14.430  11.386  0.5987 -0.0393  0.1783
30209W        W46683  15.179  18.200   3.170  0.0445  0.0485  0.1030
30210W        W46684   5.704  10.836   2.751  0.0455 -0.0007 -0.0679
30211W        W46685  10.535  16.608  10.404  0.1133  0.0253  0.0942
30212W        W46686   7.761  14.532   2.542  0.0850 -0.0171 -0.1081
30213W        W46687   7.958   5.606   4.841 -0.0442 -0.1547  0.0975
30214W        W46688   3.139  15.668   2.257 -0.2052 -0.0250 -0.4222
30215W        W46689  18.461  17.900   4.412 -0.1103  0.0555 -0.0444
30216W        W46690  14.722  14.095   2.603 -0.0184  0.3417 -0.1224
30217W        W46691   9.247   0.043  14.983  0.1324  0.0008  0.0296
30218W        W46692  10.444   5.044   4.378  0.0757  0.1439 -0.1789
30219W        W46693  18.822   3.803   2.892 -0.0226  0.2202 -0.0609
30220W        W46694  14.291  17.850   3.309 -0.2121 -0.2394 -0.1179
30221W        W46695  13.097   4.697   3.459 -0.0694  0.0630  0.0657
30222W        W46696  17.209   9.316   0.172  0.1765 -0.0445 -0.0042
30223W        W46697  13.497  18.830  13.787  0.1076  0.0748 -0.3125
30224W        W46698  12.658  18.784   0.762  0.0253  0.0146  0.1446
30225W        W46699  11.742   3.518  13.187 -0.0591 -0.1618 -0.0823
30226W        W46700   1.091  13.445   0.997  0.2057 -0.2627  0.0215
30227W        W46701  13.280  12.549  13.482 -0.0668 -0.3027 -0.1746
30228W        W46702   9.804   4.755   2.255  0.0150 -0.0651 -0.5554
30229W        W46703  11.437  11.607   4.066 -0.2357  0.1278 -0.1187
30230W        W46704  18.685   7.244  13.183  0.0024 -0.1134  0.1130
30231W        W46705   5.305   4.013  12.486 -0.0309  0.1372 -0.1330
30232W        W46706   2.883   5.956  12.631 -0.3145  0.1239 -0.2046
30233W        W46707  16.733  14.229  14.593 -0.0867  0.1826 -0.3178
30234W        W46708   8.375  15.193   0.703 -0.0876  0.0433 -0.1017
30235W        W46709  17.912   5.070  10.276  0.1123  0.4094 -0.0037
30236W        W46710   3.322   1.415  11.003 -0.0246  0.1795  0.0661
30237W        W46711  11.102   4.744   1.217 -0.2830 -0.0717 -0.0822
30238W        W46712  13.206   8.930   1.609 -0.1562 -0.4026  0.0061
30239W        W46713   4.108   9.998   2.423 -0.2776  0.2211 -0.0194
30240W        W46714   5.607   5.612   3.790  0.0926 -0.0931 -0.1700
30241W        W46715   0.645  15.542   1.789 -0.2347 -0.1785 -0.2624
30242W        W46716  12.816   3.457  10.767  0.0049  0.0411 -0.1274
30243W        W46717   6.114   0.572  14.622 -0.0750  0.0098 -0.0848
30244W        W46718  17.662   3.524   5.138  0.2875 -0.0732 -0.0854
30245W        W46719   1.368  10.588   2.985  0.0502 -0.0520  0.4021
30246W        W46720  10.551   2.301   3.319  0.0510  0.0251  0.2359
30247W        W46721   8.040  13.619  12.676  0.2562  0.1179  0.1672
30248W        W46722  18.280  16.460   0.204  0.0973  0.1653 -0.1099
30249W        W46723  17.343   3.290  14.229 -0.2511  0.0531 -0.0156
30250W        W46724   8.366  16.013   3.502  0.0311  0.3244 -0.1173
30251W        W46725   0.853   9.866  10.330  0.1218  0.1992 -0.4450
30252W        W46726  14.270  17.349  12.280  0.1685  0.0904 -0.1213
30253W        W46727  12.245   5.373   0.821  0.0136 -0.0305  0.0296
30254W        W46728   2.008   4.218   5.814 -0.3511 -0.2123  0.5091
30255W        W46729  15.876   5.162  13.631  0.4256  0.1082 -0.2818
30256W        W46730  10.777   7.513  11.423 -0.2257 -0.4466 -0.1803
30257W        W46731  17.636   4.619   1.430 -0.0446  0.0937  0.1391
30258W        W46732   0.708  13.804  10.813 -0.0757  0.2190  0.0798
30259W        W46733  11.887  17.969   2.727  0.0368  0.2058 -0.0085
30260W        W46734   0.203  13.004  12.113 -0.0608  0.0978  0.0715
30261W        W46735   2.784  12.832   4.714 -0.2744 -0.2214  0.2499
30262W        W46736   9.001   7.660   0.223 -0.0120  0.0127  0.1795
30263W        W46737   7.179  10.199   4.463  0.0187 -0.2264 -0.1974
30264W        W46738  11.928   7.520   1.695  0.0857 -0.1180  0.0980
30265W        W46739   3.220   1.493   2.813 -0.0097  0.1824 -0.2159
30266W        W46740  16.526  13.170  14.535  0.2197 -0.0557 -0.3203
30267W        W46741  18.789  13.718  12.520 -0.2661 -0.1444 -0.3791
30268W        W46742   8.133   2.676   0.970  0.1537  0.1096 -0.0195
30269W        W46743  11.066   0.524  10.902  0.2425  0.1691 -0.2514
30270W        W46744  17.316  12.276  15.046  0.0326  0.0974  0.3184
30271W        W46745  10.783  16.832   0.645 -0.0010 -0.0602  0.0197
30272W        W46746  18.431   3.700   1.952  0.0445 -0.1270  0.0546
30273W        W46747  16.559  13.296   3.190 -0.0001 -0.1116  0.1313
30274W        W46748  15.902   8.600   1.346 -0.3310 -0.0752 -0.0113
30275W        W46749  12.975  15.558  13.447  0.1121  0.0055  0.1832
30276W        W46750  11.447  17.144   4.375  0.1641 -0.0773 -0.0312
30277W        W46751   6.483  17.478  12.890 -0.0878  0.0164 -0.0107
30278W        W46752  14.275  12.344   2.746  0.1327  0.1397 -0.2528
30279W        W46753   1.058   8.058   4.484 -0.2102  0.2703 -0.0164
30280W        W46754   3.505  17.136  11.672  0.0556  0.1179  0.0364
30281W        W46755   1.184  16.182  12.532 -0.0844 -0.2605  0.2490
30282W        W46756   2.363   3.075   4.215  0.1431 -0.0707 -0.3655
30283W        W46757   6.420   0.847  12.798  0.2114 -0.0101  0.0510
30284W        W46758   8.023  16.220   2.315  0.1777 -0.0344  0.1357
30285W        W46759   7.286   1.138  11.684  0.0285 -0.0614  0.0583
30286W        W46760  16.441   7.864   4.030 -0.2317 -0.3164 -0.0714
30287W        W46761  17.185   1.944  10.405  0.0549  0.1688 -0.0831
30288W        W46762   5.062  10.868   5.044  0.2795 -0.3042  0.0335
30289W        W46763   3.920  17.607   0.777 -0.2425  0.1989 -0.0952
30290W        W46764  16.571   0.410   1.536  0.1679 -0.1014  0.0862
30291W        W46765   3.608  14.372  14.869 -0.0123  0.1865 -0.2394
30292W        W46766   0.470   2.448   4.264  0.0827  0.0394 -0.0777
30293W        W46767  14.361   4.942  10.910  0.2201  0.1728 -0.0305
30294W        W46768  15.821   1.257   1.138 -0.2502  0.3272  0.1186
30295W        W46769  15.881  15.758   2.461 -0.2693  0.2271  0.0079
30296W        W46770   7.392  10.955   2.751 -0.1404  0.0352  0.0823
30297W        W46771   3.948   1.502  11.622 -0.0760 -0.2381  0.1000
30298W        W46772  10.654  13.888   1.125  0.0122 -0.1124  0.1003
30299W        W46773  12.797  14.008   2.295 -0.0997 -0.1003  0.2178
30300W        W46774  11.937   7.430   0.801  0.1960  0.1455 -0.0978
30301W        W46775  13.263   1.308  12.598  0.3054  0.1780 -0.1544
30302W        W46776  14.011   5.920   2.845  0.2763  0.0285 -0.2805
30303W        W46777  12.638   6.974  14.432 -0.1237  0.1714 -0.1552
30304W        W46778   7.144   4.568   0.804 -0.0557  0.0296 -0.1594
30305W        W46779  18.522  11.920  11.805 -0.0587  0.0461  0.1039
30306W        W46780   9.507   8.553  11.148  0.3911 -0.3853 -0.0662
30307W        W46781  17.593   5.393   3.155 -0.0299  0.0084  0.1311
30308W        W46782  14.324  17.516   0.103 -0.0892 -0.0604 -0.0645
30309W        W46783   7.011  14.198  14.870 -0.3969 -0.2844  0.2425
30310W        W46784   7.776  19.021   2.230  0.2087  0.1143 -0.1520
30311W        W46785   7.304  11.804   3.372  0.1467 -0.0791  0.2506
30312W        W46786  13.304  18.274   3.499 -0.0954 -0.1118  0.1098
30313W        W46787  17.193   4.164  14.979  0.1555  0.1678  0.0946
30314W        W46788  12.541   2.970  10.614  0.1065 -0.1356 -0.1696
30315W        W46789  12.547  16.745   2.754  0.0711  0.4032 -0.0225
30316W        W46790   8.137   8.516   3.209 -0.0616 -0.2979  0.3786
30317W        W46791   3.928   0.547   1.646 -0.1966 -0.1551 -0.3345
30318W        W46792  18.744  18.871   3.902 -0.0520 -0.2193  0.0457
30319W        W46793  16.396   8.192  14.584 -0.1553 -0.0535  0.1227
30320W        W46794   2.229  16.903  11.349  0.1456 -0.4072  0.2134
30321W        W46795   3.765  14.471  13.323 -0.1812  0.1295 -0.3755
30322W        W46796  13.444   9.984   5.961  0.1700 -0.1489 -0.0634
30323W        W46797  17.827   3.444  14.136  0.1122  0.0281 -0.1627
30324W        W46798  11.048  10.695   4.625  0.0220  0.0461  0.1087
30325W        W46799   7.851  18.958  11.581 -0.0441 -0.1396 -0.2172
30326W        W46800   6.506   7.596   5.012 -0.3389  0.2003  0.3760
30327W        W46801   0.954   4.608   1.549 -0.1019  0.0173 -0.0840
30328W        W46802  12.055   7.256   1.304  0.0545  0.0416  0.1529
30329W        W46803   0.719   7.180   0.312 -0.4365 -0.0759 -0.0624
30330W        W46804  12.144   0.036   4.873  0.4586 -0.3608  0.0129
30331W        W46805   7.548   3.899  14.238 -0.1687  0.1676  0.1796
30332W        W46806   5.598   7.869  10.939 -0.0157 -0.0144 -0.0132
30333W        W46807  10.490   6.157  13.940  0.0053 -0.0224  0.3790
30334W        W46808   1.607  14.523   4.460  0.0826 -0.1560  0.1655
30335W        W46809   1.170   4.237  14.491  0.2278 -0.5325  0.0762
30336W        W46810   7.081  13.403  11.832  0.0839  0.1839  0.3184
30337W        W46811  17.381   9.582   3.936  0.1223  0.5092  0.1927
30338W        W46812   1.406  14.927   4.170 -0.1485  0.3228 -0.0411
30339W        W46813   9.029  13.037  11.820  0.0042 -0.1232  0.1199
30340W        W46814  11.430  17.060  14.065 -0.0559  0.2264  0.0167
30341W        W46815   4.286   3.954  13.261 -0.2009  0.0336  0.0257
30342W        W46816  18.745  12.194   4.038  0.0398 -0.3507 -0.3996
30343W        W46817  16.457  10.063   3.714  0.2705 -0.1155 -0.2417
30344W        W46818  11.915   6.529   0.344 -0.0731 -0.1780  0.1581
30345W        W46819   8.600   9.682   4.969  0.2690 -0.1270 -0.0131
30346W        W46820   2.980   1.130   4.801 -0.1548  0.2410  0.0393
30347W        W46821  11.504   0.967   9.946  0.1869 -0.2908  0.2220
30348W        W46822  13.738   5.910   3.692  0.1981 -0.1526 -0.3718
30349W        W46823  12.392  10.810   5.296  0.0765  0.0537 -0.1851
30350W        W46824  16.440   1.574  13.296  0.0267  0.2308  0.4900
30351W        W46825   3.106  18.036   3.810 -0.2422 -0.2597  0.1218
30352W        W46826   6.993  12.641  13.265  0.1268  0.0430 -0.1044
30353W        W46827   0.132  14.701   4.475  0.0459  0.0688  0.5731
30354W        W46828   8.734  15.737  14.545 -0.2179  0.1846 -0.0255
30355W        W46829   2.686   0.454  14.026  0.3015 -0.1138  0.1449
30356W        W46830   3.171   9.629   1.439  0.0736  0.0113  0.2610
30357W        W46831   4.608  14.205   0.645 -0.0742 -0.2533 -0.0121
30358W        W46832   7.477  16.050  12.490  0.2164  0.0807 -0.5315
30359W        W46833   5.345  17.524  14.868  0.2303 -0.0562 -0.1017
30360W        W46834  16.012   0.760  12.255  0.0809 -0.0738 -0.1097
30361W        W46835   8.887  10.164   1.031  0.2372  0.2462  0.1112
30362W        W46836  17.413   0.036   1.385  0.3717  0.1765  0.3769
30363W        W46837  10.395  15.534   3.724  0.0362 -0.3027 -0.2231
30364W        W46838   3.110  16.045  14.637 -0.0267 -0.2580  0.1711
30365W        W46839   7.721   3.872  11.145  0.2646  0.2265  0.1468
30366W        W46840  15.197   9.556  10.696  0.0479  0.1293 -0.0536
30367W        W46841   5.057  18.008  14.228  0.0464  0.2663  0.1495
30368W        W46842   8.648  13.388  11.831 -0.1354 -0.3028 -0.0492
30369W        W46843  13.403  12.528   0.306 -0.0412  0.3657  0.1728
30370W        W46844  17.438   5.519   0.220 -0.3090 -0.0822  0.1904
30371W        W46845   4.704   1.219   4.151  0.1120 -0.0190  0.2215
30372W        W46846   4.383   2.763   0.473 -0.1840 -0.2029  0.0176
30373W        W46847  10.821   4.918  10.159 -0.0226 -0.0564  0.1441
30374W        W46848  16.467  12.159  13.518  0.3785 -0.0416  0.0463
30375W        W46849   4.626  18.173   1.933 -0.0835 -0.0005  0.0643
30376W        W46850  15.558   2.934   1.147  0.3050 -0.2737 -0.0737
30377W        W46851  18.498  15.550  14.061  0.4149  0.3486 -0.0986
30378W        W46852  13.429   5.939  11.319 -0.0191 -0.0716 -0.0409
30379W        W46853   7.671   9.997  13.368 -0.1605 -0.0512  0.1941
30380W        W46854   4.862   9.926  10.733  0.0709  0.2642  0.2730
30381W        W46855   4.571   6.794  14.039  0.0999  0.0556  0.1515
30382W        W46856  12.053   5.168   1.274  0.0199  0.2398  0.2046
30383W        W46857   6.935  11.693  12.499 -0.0173  0.2596  0.1121
30384W        W46858   8.286   0.075  14.460  0.0675 -0.3550 -0.1960
30385W        W46859   8.426   6.589  13.676  0.0061 -0.0630 -0.2258
30386W        W46860   7.832  14.857   0.714 -0.1209  0.0429  0.0089
30387W        W46861   7.988  14.928   5.592 -0.2717  0.0835 -0.0619
30388W        W46862   3.512  18.084   4.287  0.3406  0.1315  0.0692
30389W        W46863   9.597   7.993   0.692 -0.0184 -0.3248  0.0237
30390W        W46864  17.374   4.552   4.146 -0.0457 -0.0940  0.1660
30391W        W46865   7.099  11.023  13.930 -0.0858  0.1755 -0.1242
30392W        W46866   2.089  10.815   9.681  0.2881  0.0041 -0.1916
30393W        W46867   6.093  10.873   9.906  0.0191  0.0829 -0.1195
30394W        W46868  13.560  17.883  13.321  0.1930  0.0465 -0.1163
30395W        W46869  12.429  14.498  14.188 -0.2342  0.0364 -0.5272
30396W        W46870  14.677  12.978  13.091 -0.0661  0.2428  0.0110
30397W        W46871   6.364  16.180  12.667 -0.0947  0.1329 -0.2935
30398W        W46872  10.078  16.925  12.921  0.1835 -0.0569 -0.1381
30399W        W46873   8.430  11.216   3.362  0.0785 -0.2079 -0.1402
30400W        W46874   4.782  17.319  14.158  0.0097 -0.0964  0.0696
30401W        W46875  16.168   5.983  13.263 -0.0242 -0.2722  0.0104
30402W        W46876  10.583   0.069  12.738 -0.0106 -0.0261  0.2007
30403W        W46877  12.345   9.824  10.527  0.2620 -0.1472  0.0641
30404W        W46878   3.273  11.990   0.470  0.3574 -0.1527 -0.0465
30405W        W46879  18.648   2.996   5.796 -0.1696  0.5139  0.1658
30406W        W46880   3.048   3.310  13.221 -0.1561  0.1781  0.1153
30407W        W46881   9.119  18.439  10.917  0.2529  0.2622 -0.1096
30408W        W46882  10.618  11.632  13.096 -0.0813  0.2348  0.0288
30409W        W46883   2.134   7.704   1.341  0.0252 -0.2979 -0.2362
30410W        W46884   5.910  10.169   3.642 -0.1975  0.0095  0.3691
30411W        W46885  12.314   7.496  11.265  0.0099 -0.0848 -0.0453
30412W        W46886  17.133   5.574  14.937 -0.1246  0.1087  0.1662
30413W        W46887  14.792   8.518   1.112 -0.1135  0.1549  0.2012
30414W        W46888  16.898   2.897  14.090  0.0231 -0.1024  0.2691
30415W        W46889   7.362   6.199   2.052 -0.2985 -0.0593 -0.1578
30416W        W46890  11.475  11.515  11.583 -0.1344 -0.0882 -0.0264
30417W        W46891  16.208   9.772   0.562 -0.2152  0.4258 -0.1953
30418W        W46892  11.814   9.641  14.443  0.0844 -0.1427 -0.0051
30419W        W46893  12.298   8.205   1.057 -0.0037  0.0184 -0.4374
30420W        W46894   6.801   1.314  13.704  0.2549  0.2067 -0.6105
30421W        W46895   1.279  17.629  14.204 -0.2214  0.0271  0.1432
30422W        W46896  12.217  17.422  12.195  0.1840  0.0191  0.1857
30423W        W46897  17.343  13.049  13.815 -0.1860 -0.2595  0.3583
30424W        W46898   8.724   4.552   0.270  0.0153 -0.2198  0.1381
30425W        W46899  10.890   5.655  13.789 -0.2679 -0.0670  0.0853
30426W        W46900   4.224  12.477  11.523 -0.0364 -0.5495 -0.3906
30427W        W46901  10.109  10.424   1.690  0.0224 -0.0791  0.1669
30428W        W46902  14.982  14.501   3.437 -0.1728 -0.0231 -0.1138
30429W        W46903  16.299   3.614  10.982 -0.3491 -0.1561 -0.0509
30430W        W46904   7.488   8.819  12.279  0.1708  0.3164 -0.1925
30431W        W46905  13.882   7.760  14.902 -0.1345 -0.0099  0.1631
30432W        W46906   2.780   5.301  13.526  0.0633  0.1033  0.4269
30433W        W46907  12.839   1.145  11.080 -0.1586  0.1008  0.1668
30434W        W46908   9.187   4.256   1.101 -0.3996 -0.1720 -0.2201
30435W        W46909  13.498   5.874   2.820 -0.0108  0.1087  0.1305
30436W        W46910   8.535  14.743  14.075  0.2284 -0.1042  0.0448
30437W        W46911  14.382  18.237   1.595 -0.0218 -0.1856 -0.0181
30438W        W46912  17.528  14.023  15.095  0.1110  0.1034 -0.0439
30439W        W46913   1.068  13.477  11.005 -0.0494  0.1935 -0.0787
30440W        W46914   4.609   4.832   3.239  0.3727 -0.1552  0.1617
30441W        W46915   4.624   2.333  12.511  0.2962 -0.1303 -0.0603
30442W        W46916   0.669  13.946   0.411  0.1584 -0.0347  0.1656
30443W        W46917  10.499   7.657  13.864  0.1477 -0.1868  0.2799
30444W        W46918   3.142  11.171   1.617 -0.4392  0.0376 -0.1416
30445W        W46919  18.804  16.960   2.281 -0.0406  0.0193 -0.0158
30446W        W46920   3.081  10.776   1.923 -0.0392  0.1635 -0.1397
30447W        W46921   1.491  10.289   1.320 -0.1919  0.0428 -0.1477
30448W        W46922   9.574   4.966  10.998 -0.4779 -0.5253 -0.5422
30449W        W46923   1.004   5.897  12.413 -0.1433 -0.1253  0.3244
30450W        W46924  17.176   8.272  14.106  0.4448  0.1784  0.0719
30451W        W46925   5.901   0.941   0.632  0.2096 -0.0311 -0.0852
30452W        W46926  13.694   9.480  11.409  0.0834 -0.0061 -0.0756
30453W        W46927  12.064  14.776   2.084 -0.0654  0.1781  0.3944
30454W        W46928   9.808   1.648   9.742 -0.0080 -0.0055 -0.0186
30455W        W46929   7.053   9.667   0.333 -0.3208 -0.0621 -0.1665
30456W        W46930   5.438   9.338  12.037  0.2289  0.0279 -0.3334
30457W        W46931   3.798   6.123   3.948  0.0532  0.0959  0.1214
30458W        W46932  13.645  14.221  14.795  0.0457  0.2220 -0.1552
30459W        W46933  12.181  11.040  14.764 -0.1005 -0.4288 -0.1591
30460W        W46934  15.310  10.937   2.754 -0.2436 -0.0984 -0.1985
30461W        W46935   8.186   8.606   0.019 -0.1573  0.0059  0.1116
30462W        W46936  18.395   4.983   1.618 -0.2273  0.0956 -0.1468
30463W        W46937  15.482   4.381   3.381  0.0304 -0.1820  0.0852
30464W        W46938   8.076  17.906  12.381  0.0277 -0.0919 -0.3031
30465W        W46939  12.655   0.644   0.146 -0.0889 -0.1041 -0.1982
30466W        W46940  11.082   8.164  13.163 -0.1969  0.0693 -0.1835
30467W        W46941  11.898   3.502  10.298  0.1516 -0.0568  0.3086
30468W        W46942  10.926   5.838   4.130  0.2519  0.1192  0.0429
30469W        W46943   0.921   4.896  11.419 -0.0940  0.1565 -0.3274
30470W        W46944  19.031  17.326   4.754 -0.1492  0.1124  0.0749
30471W        W46945   9.811   5.148  13.223  0.3713 -0.0728 -0.0900
30472W        W46946  13.124  16.382  10.517  0.0756  0.0143  0.0531
30473W        W46947  10.847   3.541   4.991  0.3354 -0.0848  0.1195
30474W        W46948   7.720  18.379  15.122 -0.2003  0.1693 -0.0197
30475W        W46949  13.682   4.157   4.618 -0.2421 -0.0231 -0.0341
30476W        W46950   9.961   4.154  12.939 -0.1321 -0.0538 -0.2674
30477W        W46951  17.593  13.773   2.224 -0.2715  0.0538  0.0135
30478W        W46952  18.588  18.613   2.171 -0.0393  0.3657  0.1100
30479W        W46953   1.911  11.815   2.956 -0.0165  0.2169 -0.0324
30480W        W46954   2.537   5.925   3.477  0.0295  0.0605  0.0269
30481W        W46955   5.066   6.848  12.444 -0.3524  0.0218 -0.4908
30482W        W46956   9.836   7.756   3.528 -0.2144  0.0732  0.0790
30483W        W46957  17.291  10.146   3.688 -0.0496  0.0986 -0.2208
30484W        W46958   0.911   1.381   5.227 -0.0938 -0.1863 -0.0125
30485W        W46959   8.761  12.155   4.171  0.2143 -0.3109  0.1739
30486W        W46960   5.830  16.453   5.371 -0.0932 -0.1724  0.0831
30487W        W46961  11.619   4.690   4.523  0.1502 -0.2578 -0.0500
30488W        W46962   5.587   7.925   5.377  0.2759  0.0935  0.0438
30489W        W46963   4.104   8.639   1.960  0.0210  0.0455 -0.0161
30490W        W46964   2.524  15.170   1.341  0.3669  0.1212 -0.0446
30491W        W46965   4.659   1.057   2.315 -0.1521 -0.0429  0.1095
30492W        W46966   4.538  13.327  11.394 -0.0296 -0.0526 -0.2037
30493W        W46967   3.246  10.402  14.147  0.0246  0.0527 -0.1235
30494W        W46968   0.329   6.627  10.797 -0.3068  0.0413 -0.2669
30495W        W46969  14.517   8.758   3.469  0.1533 -0.4095  0.2736
30496W        W46970   8.454  11.084   1.752  0.0209  0.1605  0.0718
30497W        W46971  14.335   1.855   0.552  0.1715  0.1684  0.2221
30498W        W46972   6.507   1.133   0.261 -0.0244  0.1305  0.0703
30499W        W46973   7.366  10.945  11.129 -0.1017  0.0343  0.0880
30500W        W46974  18.224   0.363  12.640 -0.0981 -0.0129  0.1950
30501W        W46975   5.832   0.039  13.966 -0.0726 -0.2203 -0.2499
30502W        W46976   5.892   6.909  13.566 -0.1483  0.1787 -0.0343
30503W        W46977  10.691  16.754  12.081  0.3530  0.4518  0.0895
30504W        W46978   3.634  15.684   1.259  0.0176  0.1043 -0.1176
30505W        W46979  15.054  15.519   2.004 -0.1253  0.1738 -0.1291
30506W        W46980   2.747  16.316   1.135 -0.0367 -0.3746  0.1922
30507W        W46981  18.295  11.316  14.658 -0.0901 -0.0068  0.2081
30508W        W46982  18.575  10.882  13.483  0.0382  0.3799 -0.1947
30509W        W46983   5.067  18.223  11.184 -0.1119 -0.1283 -0.0509
30510W        W46984   1.221  13.980   3.137 -0.0662  0.0918 -0.0273
30511W        W46985   8.381  19.091  11.267  0.3277  0.0833  0.3527
30512W        W46986  19.124  10.759   1.445 -0.1078  0.1647  0.0010
30513W        W46987  14.048  15.472   0.075  0.0823 -0.0653  0.0454
30514W        W46988   5.390   4.003  13.155  0.0022  0.1654  0.1187
30515W        W46989  13.064  11.369   1.856 -0.2044  0.3184  0.0269
30516W        W46990   4.204  13.951   3.335  0.0143  0.0650 -0.0035
30517W        W46991  12.713   9.214  13.656 -0.0222 -0.2353 -0.1147
30518W        W46992  10.359  16.335   2.127  0.0157  0.2031  0.0505
30519W        W46993   5.571   9.025  13.711 -0.0741  0.0671 -0.1925
30520W        W46994   1.949   1.688  12.084  0.6122  0.0021 -0.2590
30521W        W46995   7.133   8.439  13.659  0.0757  0.0806  0.1160
30522W        W46996  17.161   7.041   3.088  0.1637 -0.0103 -0.2285
30523W        W46997  16.045   7.941  13.912 -0.3846 -0.0566 -0.0409
30524W        W46998  19.016  14.793  13.795 -0.2532  0.1012  0.0615
30525W        W46999   0.983  18.966   0.930 -0.1464  0.1555  0.2910
30526W        W47000   7.087  18.910   0.444 -0.2326 -0.0495 -0.0922
30527W        W47001  16.200   3.299   5.257  0.0480 -0.1255 -0.4597
30528W        W47002   0.075  15.027  13.429 -0.2096 -0.0712 -0.1765
30529W        W47003   6.959   2.300   0.116  0.0468  0.2503 -0.1567
30530W        W47004  18.469   6.287   0.811 -0.0853 -0.0601 -0.0201
30531W        W47005   4.133  15.820  13.629  0.0408  0.4180 -0.3714
30532W        W47006   9.833   1.647  10.310  0.1175 -0.2530 -0.1121
30533W        W47007  12.067  15.890  11.351 -0.0001 -0.0406 -0.1499
30534W        W47008  17.273   5.839   0.603 -0.0872  0.1064 -0.2039
30535W        W47009   4.168  10.006  12.500 -0.0367  0.1520  0.0868
30536W        W47010  18.952  16.914   0.676 -0.4361 -0.0367 -0.1595
30537W        W47011   5.583   9.501  12.477  0.1947  0.0913  0.2214
30538W        W47012   3.655  10.986   5.104  0.1921  0.3048 -0.0826
30539W        W47013  18.929  16.832  10.783  0.0029 -0.1383 -0.0421
30540W        W47014   9.776   0.415  13.271 -0.0015 -0.1492 -0.2021
30541W        W47015   7.556   8.113   3.488 -0.0190 -0.0851 -0.1719
30542W        W47016  18.286   5.666  13.963 -0.1252  0.1232 -0.3843
30543W        W47017  15.187   7.370  14.984  0.0435 -0.2052 -0.5486
30544W        W47018  13.686   6.550  12.469 -0.1060 -0.2001  0.0693
30545W        W47019  14.112   5.276  14.055 -0.0564  0.1345 -0.2453
30546W        W47020  14.469  18.437   4.709 -0.3456  0.1615 -0.0357
30547W        W47021  12.010  12.264  12.680 -0.1606  0.2008 -0.1529
30548W        W47022   7.266  12.277   1.946  0.1178 -0.0612  0.4450
30549W        W47023  18.190  16.563  13.739  0.1099  0.4453  0.3646
30550W        W47024  14.086   6.025  12.914  0.1407  0.2209 -0.2909
30551W        W47025  13.057  14.948   5.693  0.3208  0.1549  0.1415
30552W        W47026   1.191   0.281   5.808  0.3366  0.4214 -0.1123
30553W        W47027   9.892   9.178  12.414  0.2988  0.5012  0.3892
30554W        W47028   1.478   6.627   2.546 -0.0947  0.1293 -0.1454
30555W        W47029  11.885  13.726  14.076 -0.5709  0.2861  0.3454
30556W        W47030  15.228  18.580  11.920 -0.2478 -0.0301  0.2159
30557W        W47031   0.479   4.895   4.306 -0.2489 -0.1434 -0.0765
30558W        W47032  11.292   6.552   2.746  0.1129  0.0444  0.4762
30559W        W47033  14.807   4.711  11.023  0.2551 -0.0863  0.1538
30560W        W47034   6.288   0.813   3.343  0.0286  0.0526 -0.1697
30561W        W47035   3.654   4.070  13.399  0.2326  0.4267  0.0498
30562W        W47036   7.282  18.395  12.042 -0.1296 -0.1450  0.4241
30563W        W47037  17.390  17.836   4.740 -0.0501  0.1294 -0.0164
30564W        W47038   8.472   2.415   1.295  0.0557  0.4154 -0.0186
30565W        W47039   5.924  10.318  11.298 -0.0143  0.0384 -0.0722
30566W        W47040   5.061  11.651  15.124 -0.1771 -0.3798  0.0418
30567W        W47041  15.980   1.291  13.082 -0.2105  0.0470  0.0735
30568W        W47042  13.231  12.014  11.009  0.1256 -0.3155 -0.0137
30569W        W47043   6.613  13.173   0.660  0.1507  0.0170 -0.2446
30570W        W47044  12.199  15.606   3.232  0.2627 -0.0835  0.0203
30571W        W47045  19.096  13.866  14.193 -0.0406 -0.1321  0.0690
30572W        W47046   7.089   4.444  13.521 -0.2310 -0.0801  0.0193
30573W        W47047  16.102   6.765  12.641 -0.4139 -0.2162 -0.1464
30574W        W47048   1.272   6.393  13.222  0.0759  0.0126  0.0606
30575W        W47049  11.254  17.339  12.417  0.0747  0.0489 -0.1570
30576W        W47050   4.228   9.608   2.015  0.0862 -0.0863 -0.0673
30577W        W47051   3.122   1.963  12.204 -0.2527  0.1771  0.4135
30578W        W47052  11.591  17.496  11.334 -0.0097 -0.1978 -0.0759
30579W        W47053   1.987   6.752   3.164  0.1497  0.1781 -0.0514
30580W        W47054  17.147  16.116   1.489  0.4547 -0.0911 -0.0990
30581W        W47055  15.782   5.621  14.918  0.3065  0.1450  0.1385
30582W        W47056   1.135  17.349   0.709  0.0101 -0.1540 -0.0341
30583W        W47057   9.183   8.913   0.695 -0.1805 -0.3935  0.1051
30584W        W47058   2.707  15.488   3.271 -0.0143  0.0761  0.1256
30585W        W47059   5.930   0.303   4.406  0.2960 -0.0636  0.0136
30586W        W47060   5.106   3.974   2.374  0.1071  0.0349 -0.3192
30587W        W47061   1.345  14.293  10.705  0.0236 -0.0959 -0.0615
30588W        W47062  16.564   5.706  15.026 -0.1748 -0.2148  0.0737
30589W        W47063  16.102   4.741  13.697 -0.1486 -0.0275 -0.1690
30590W        W47064   9.539  14.955  12.877 -0.1706  0.0084  0.1777
30591W        W47065  12.051   9.857  12.010 -0.0313  0.1260  0.1066
30592W        W47066   7.424   9.592   2.937  0.1967 -0.2456 -0.0325
30593W        W47067   7.332   9.901  14.351 -0.2970 -0.4669  0.1154
30594W        W47068  12.975  17.508  14.973  0.0188 -0.1233  0.1191
30595W        W47069   1.483   4.957  14.475  0.0049 -0.1971  0.0130
30596W        W47070   6.908  18.703   0.933 -0.1783 -0.2126  0.4747
30597W        W47071  14.328  12.458  12.735  0.1078  0.2651  0.0806
30598W        W47072   6.571  11.296  12.524 -0.1165 -0.0174  0.3329
30599W        W47073  19.004   0.242   1.855  0.1269 -0.1370 -0.1972
30600W        W47074   1.249   3.012   1.519  0.3465 -0.1412  0.1315
30601W        W47075  10.917  17.443   4.252  0.0917  0.1372  0.0177
30602W        W47076   4.342  15.747  14.531  0.0965 -0.1854 -0.0135
30603W        W47077   7.673   9.147  14.150 -0.0050  0.1865  0.0082
30604W        W47078   2.166  10.851   1.554  0.2295  0.0757 -0.3479
30605W        W47079  10.667   7.323   3.685 -0.0074 -0.1876  0.0802
30606W        W47080  13.797  15.947   3.032 -0.2588 -0.1886  0.1658
30607W        W47081   6.704  11.804   4.472  0.3529 -0.0757  0.3198
30608W        W47082   6.369   0.060  12.481  0.1921 -0.0018 -0.5494
30609W        W47083  12.021   7.874  13.413  0.1726 -0.1203  0.1388
30610W        W47084  16.206  14.627  11.394  0.1751 -0.1588 -0.0816
30611W        W47085  14.231   4.757  11.900 -0.1488  0.0381 -0.1257
30612W        W47086  17.867   6.435   1.881 -0.2628 -0.0666  0.0832
30613W        W47087   4.019   1.890   6.010 -0.1199 -0.1344 -0.0761
30614W        W47088  11.055  15.266   5.730  0.3127 -0.1372 -0.2205
30615W        W47089  16.809  10.532   1.435  0.0956  0.4093  0.0362
30616W        W47090  15.437   8.301   2.001  0.1574  0.0441  0.1532
30617W        W47091  17.028  15.641  14.298 -0.1743  0.0615 -0.1810
30618W        W47092  18.102  17.845   0.386  0.1728 -0.0762  0.1363
30619W        W47093   7.624  16.807   1.927 -0.1929 -0.0322 -0.0702
30620W        W47094   6.776  14.930  14.458 -0.1650 -0.1249 -0.4958
30621W        W47095   5.473   3.551   2.171 -0.1898 -0.1417 -0.0523
30622W        W47096  12.207  12.889   3.313  0.1480 -0.1022 -0.1907
30623W        W47097   9.686   8.393   1.042 -0.7473  0.0717 -0.0932
30624W        W47098  15.830   8.804  13.359 -0.3438  0.1823  0.3901
30625W        W47099  12.427  14.399  13.686  0.1344 -0.3265 -0.0251
30626W        W47100   7.186   5.429   5.379  0.0369 -0.4092 -0.0548
30627W        W47101   5.536   5.786  11.141  0.0475 -0.1666  0.0126
30628W        W47102  16.848   4.087   0.823  0.0366  0.2111 -0.0894
30629W        W47103   2.004   1.911  13.977  0.0926  0.1565 -0.1659
30630W        W47104   3.935  18.159   3.040 -0.2599  0.0784 -0.1615
30631W        W47105  14.975   0.511   0.413  0.2412 -0.4360 -0.0495
30632W        W47106  11.790  14.469   9.994 -0.2092 -0.2598 -0.1852
30633W        W47107   2.689  16.509   0.284 -0.3306 -0.3598 -0.2150
30634W        W47108   8.657   7.016   0.947  0.2632 -0.2431 -0.2277
30635W        W47109   5.942   9.588  15.014  0.1513  0.1731  0.0775
30636W        W47110  17.269   9.298  14.591  0.1152  0.1338 -0.0924
30637W        W47111  14.673  14.786  10.989  0.0037 -0.1526  0.0990
30638W        W47112   7.817  10.173  14.521 -0.2261 -0.0080  0.1378
30639W        W47113  16.594  11.455  12.949  0.1218  0.1530 -0.0799
30640W        W47114  16.738   1.267  13.017 -0.2220 -0.0764 -0.0664
30641W        W47115  15.609   8.503   3.714 -0.2144 -0.0809  0.0648
30642W        W47116  13.298  14.556  12.523  0.0452  0.1825  0.0108
30643W        W47117  13.029   1.730   3.159  0.0033 -0.2147 -0.0513
30644W        W47118  13.495  14.852  12.981 -0.2098 -0.1770 -0.1358
30645W        W47119   0.281  17.700   4.481  0.0424  0.1067 -0.1007
30646W        W47120   7.095   5.239   2.204 -0.0750  0.0019 -0.0174
30647W        W47121   7.113  18.031  13.993  0.1503  0.0596  0.2300
30648W        W47122  10.884   4.187   0.584  0.0539 -0.0998  0.0053
30649W        W47123  17.240  16.432  11.939 -0.3680 -0.1835 -0.1327
30650W        W47124  17.246   9.610   0.990 -0.0081 -0.0141  0.2816
30651W        W47125  11.295   4.476   1.644  0.0023  0.1417 -0.0757
30652W        W47126   9.494  15.775   3.108  0.1362 -0.2701  0.0346
30653W        W47127   5.854  12.189   3.581  0.1728  0.0326  0.2177
30654W        W47128   4.509  18.042   3.905  0.0280  0.0875  0.0098
30655W        W47129  10.891  16.521   1.017 -0.0592 -0.1370  0.0637
30656W        W47130  10.369  14.539  11.326 -0.0683 -0.1287 -0.1179
30657W        W47131  14.542  12.696  14.713 -0.3316 -0.2899 -0.3401
30658W        W47132  15.746   0.061   2.473  0.1413 -0.0269 -0.2027
30659W        W47133  15.539  17.673  10.704 -0.1816  0.0089 -0.1133
30660W        W47134   9.595  11.542   2.909  0.2768 -0.2770 -0.1848
30661W        W47135   5.805   8.731   4.941 -0.0510 -0.0802  0.2717
30662W        W47136  16.819   3.747   4.580 -0.1561  0.4172  0.1464
30663W        W47137  13.038  14.023   5.562  0.0088 -0.1316 -0.1610
30664W        W47138   8.887   8.479   0.771  0.2081  0.2348 -0.1702
30665W        W47139  18.346  18.375   2.700 -0.0530 -0.3774 -0.1405
30666W        W47140   3.132  17.526  14.776  0.0407 -0.0807  0.0925
30667W        W47141   0.472   7.577   0.547  0.0187 -0.3446 -0.1708
30668W        W47142  15.910  17.743  13.565 -0.3323  0.1919 -0.0798
30669W        W47143   3.684  11.798  13.243  0.0872 -0.1605 -0.1858
30670W        W47144   7.113   8.347   2.579 -0.1028  0.3348 -0.0277
30671W        W47145   9.065   0.908  12.498 -0.0892  0.2768 -0.0259
30672W        W47146   4.601  11.947   0.462  0.1822 -0.0999  0.1328
30673W        W47147   6.163   5.871   0.773  0.0363  0.0736  0.0539
30674W        W47148   6.055   6.412   0.188 -0.0951  0.1441 -0.1106
30675W        W47149  18.535   6.011   2.506 -0.2297 -0.0831  0.0373
30676W        W47150  10.407   2.219  13.778 -0.3236  0.1011  0.1480
30677W        W47151  13.625   1.651  13.659 -0.2286  0.1717  0.0664
30678W        W47152  12.363   4.955  13.515  0.0420 -0.1528 -0.0828
30679W        W47153   2.886   0.363   2.858  0.0224 -0.2722 -0.1651
30680W        W47154   0.793   6.665   0.592 -0.1911 -0.1115  0.0881
30681W        W47155   3.314   3.575   2.328  0.0952 -0.0259  0.1171
30682W        W47156   4.333  11.977   3.539  0.2903 -0.1345  0.1681
30683W        W47157  17.442   2.287  14.234 -0.2818 -0.3003 -0.0461
30684W        W47158  15.898   4.179   2.760 -0.1966  0.3408 -0.0380
30685W        W47159  15.045   0.994   1.120  0.1806 -0.1000  0.0744
30686W        W47160   8.547  17.270  11.147  0.0750  0.1445 -0.2824
30687W        W47161   0.070   6.782   0.970  0.1360  0.0525  0.3078
30688W        W47162   5.580  10.760   2.294 -0.0004 -0.0398 -0.1403
30689W        W47163   5.961  12.561   3.177  0.0812  0.1040  0.1812
30690W        W47164  14.140   0.682   0.007 -0.0664 -0.3163  0.1143
30691W        W47165  17.328   6.711   0.832  0.0142 -0.0443  0.4605
30692W        W47166  17.538  13.923  13.684 -0.0008 -0.1666 -0.1478
30693W        W47167   0.580  11.261   3.319 -0.1123  0.3662  0.2242
30694W        W47168   7.246   8.640  10.198 -0.0951  0.2121 -0.2037
30695W        W47169   7.385   5.574  14.244 -0.2411  0.1308 -0.0635
30696W        W47170  17.265  11.595   4.154 -0.1657  0.0831  0.4278
30697W        W47171   7.200  18.963   3.740  0.1062 -0.2198  0.0376
30698W        W47172   7.595   3.259   0.647 -0.1587  0.3740 -0.1055
30699W        W47173   1.906  16.121  14.819 -0.0357 -0.1814  0.2016
30700W        W47174  14.065  12.005  12.558  0.0003  0.0584 -0.1023
30701W        W47175  13.368   2.626  12.702 -0.1104 -0.2464 -0.1846
30702W        W47176   0.419   9.571   1.479 -0.1081  0.3387 -0.0408
30703W        W47177   2.003  11.470  13.653  0.3805 -0.2000  0.1672
30704W        W47178  16.283  19.107   1.330 -0.3644 -0.2184  0.1713
30705W        W47179  14.069  13.319  12.689 -0.4279 -0.1061  0.1460
30706W        W47180  17.359   4.206   1.268  0.0568  0.1940 -0.1236
30707W        W47181  19.026   7.093  12.268 -0.0953 -0.5101  0.0849
30708W        W47182   7.767   8.805   0.285 -0.5486  0.1761 -0.2099
30709W        W47183   2.236   4.599  13.351 -0.1603 -0.0800 -0.1788
30710W        W47184   1.271  14.144  14.854  0.1896 -0.0306 -0.2832
30711W        W47185  11.338   6.797   3.249  0.3065 -0.2604  0.1122
30712W        W47186  17.837   5.739  11.720 -0.2281 -0.0737  0.1438
30713W        W47187   3.194   9.529   2.711  0.0211 -0.1065  0.1513
30714W        W47188  14.394  10.975   3.153 -0.0957  0.0664 -0.0475
30715W        W47189   9.414  11.143  11.076  0.3197  0.0405  0.1257
30716W        W47190   8.242   5.145  11.572 -0.1253  0.5877  0.1824
30717W        W47191  14.642   3.173  14.634 -0.1011 -0.2089 -0.3570
30718W        W47192  10.682  17.450  11.678  0.0234 -0.0813 -0.0303
30719W        W47193   4.609  10.216  11.714 -0.0073 -0.1257 -0.1246
30720W        W47194  16.728  14.938   1.621  0.0761  0.2590  0.1153
30721W        W47195   3.084   4.377   3.339 -0.1475  0.2616  0.1959
30722W        W47196  14.979  14.355  14.297 -0.0340  0.0037  0.5146
30723W        W47197  16.350   2.775  15.072 -0.0815  0.2186  0.1099
30724W        W47198   5.695  13.568  12.314 -0.0251 -0.1331  0.0156
30725W        W47199   2.375   2.645   2.888  0.4498  0.1610  0.0210
30726W        W47200   2.984   9.482  12.481  0.2778 -0.1708  0.1947
30727W        W47201  14.247   1.361   2.062 -0.2399  0.4276  0.4010
30728W        W47202   3.753  18.710  14.315  0.4785 -0.1419  0.0421
30729W        W47203  18.162   4.778  12.000  0.4390 -0.2038 -0.0208
30730W        W47204  11.198   7.231   2.997 -0.1222  0.3117  0.1709
30731W        W47205  18.066  17.154  14.299 -0.0165  0.1872  0.0316
30732W        W47206  10.984   7.537   0.025 -0.2777 -0.2798  0.2628
30733W        W47207   6.097  15.753  12.450  0.0934 -0.2218 -0.2432
30734W        W47208   2.492  18.899   2.326 -0.3384 -0.0616 -0.1743
30735W        W47209   3.838   3.753   4.850  0.1233  0.1672 -0.4640
30736W        W47210  17.838   7.443   2.104  0.0581  0.0927  0.2853
30737W        W47211   5.174  15.746   0.608  0.2751 -0.5422  0.1407
30738W        W47212  17.401  10.390  12.859 -0.0302  0.2039  0.2611
30739W        W47213   3.741  17.827   0.385 -0.0901 -0.2556 -0.2418
30740W        W47214  11.518  11.887   3.582  0.0912 -0.0532  0.0274
30741W        W47215  16.291  11.238   5.066  0.4105  0.1505 -0.1041
30742W        W47216   1.286  15.908  11.362  0.0859  0.1853 -0.1143
30743W        W47217  13.214  13.508  11.060  0.1482 -0.1198  0.2745
30744W        W47218   5.400  14.233  10.570 -0.0007  0.0571  0.2036
30745W        W47219  16.612  12.378   5.761  0.1065 -0.0458 -0.0753
30746W        W47220   1.788   9.992   4.625  0.2266  0.0095  0.1157
30747W        W47221   1.045   6.970  13.962 -0.1186 -0.0795 -0.1299
30748W        W47222  14.794  11.620   1.540 -0.0910 -0.1590 -0.2010
30749W        W47223  11.726   3.545   1.760 -0.1820 -0.0333  0.2251
30750W        W47224  15.439   0.377   3.515 -0.0755 -0.0559 -0.1821
30751W        W47225  13.817   7.253   4.291 -0.1403  0.2392  0.2469
30752W        W47226  16.744  14.002  14.132 -0.3100  0.3725  0.2864
30753W        W47227  18.857  14.748  14.696 -0.1708  0.2582  0.1209
30754W        W47228   6.387   1.739   4.699 -0.1726  0.2030 -0.0635
30755W        W47229  10.082  15.431  12.646  0.1312 -0.0873 -0.0369
30756W        W47230  11.197  16.867  13.714 -0.0740 -0.3395  0.0081
30757W        W47231   7.791  16.359  10.338  0.0994 -0.2510 -0.1138
30758W        W47232   1.186  17.225   0.221  0.1173  0.1112 -0.1344
30759W        W47233  18.566   6.087  14.915 -0.1949  0.0574 -0.0819
30760W        W47234  17.219   2.588  11.509 -0.0228  0.0542  0.0536
30761W        W47235   8.939   4.132  14.040 -0.1055  0.2565  0.3767
30762W        W47236   4.692  18.656   1.908  0.4267 -0.1869  0.2643
30763W        W47237   5.662  18.264   4.604  0.3145  0.1630  0.2411
30764W        W47238   3.291   6.378   9.650  0.0622  0.0070  0.4479
30765W        W47239   4.980  10.723  14.027 -0.1821 -0.0654 -0.0867
30766W        W47240  10.756   2.118   2.485 -0.3497 -0.0954  0.1616
30767W        W47241   6.206  14.370  11.963  0.0142  0.0781 -0.2394
30768W        W47242   9.091  13.074   1.581 -0.0692 -0.1122 -0.5811
30769W        W47243  15.409   1.237  12.212  0.2307  0.4029 -0.2945
30770W        W47244  14.042   2.532  14.243  0.4555  0.1758 -0.1621
30771W        W47245  12.416  15.971   3.440 -0.2476 -0.0114 -0.1015
30772W        W47246  13.619  16.721  13.654 -0.0959 -0.2175 -0.2293
30773W        W47247   5.432   5.904   3.409 -0.3230 -0.0269  0.1149
30774W        W47248   1.444   4.480   4.627  0.3358 -0.1353  0.1674
30775W        W47249   3.496   8.054  14.104 -0.1357  0.1286 -0.0033
30776W        W47250   9.527  15.200  13.278  0.0619  0.0104 -0.2287
30777W        W47251  13.094   1.157  14.009 -0.0147 -0.1121  0.0862
30778W        W47252   1.060   8.474   1.107 -0.3321 -0.1235 -0.0166
30779W        W47253  18.367   0.682   0.640  0.1220  0.1992 -0.0918
30780W        W47254   9.571  10.078  14.485 -0.0639  0.0784 -0.1635
30781W        W47255  14.991  17.430  14.844  0.1406 -0.0143 -0.1457
30782W        W47256  15.605   4.781  10.676  0.0953  0.1923  0.0832
30783W        W47257   5.202  12.993   2.694 -0.2029 -0.2729  0.0996
30784W        W47258   0.310  14.563   5.847  0.0414 -0.4147 -0.0500
30785W        W47259  10.669  13.037  15.058 -0.0396 -0.0886  0.0261
30786W        W47260  14.336   6.609   1.497  0.0463  0.2308  0.0491
30787W        W47261   8.674  14.032   3.530 -0.0399  0.2081 -0.2038
30788W        W47262   9.382   2.232  15.003  0.0078  0.2382  0.1591
30789W        W47263   6.419  14.325   3.114 -0.0708  0.2665  0.1785
30790W        W47264   4.210  14.847  10.631  0.1628 -0.4096  0.0913
30791W        W47265   8.584   8.254   3.091  0.1409 -0.0489  0.0905
30792W        W47266  14.838   7.501  10.716 -0.3362  0.1260  0.2322
30793W        W47267  18.809   4.575  13.748  0.2241  0.2548 -0.3753
30794W        W47268   7.135   1.808  11.072  0.5351 -0.3248  0.2563
30795W        W47269   5.807  14.951   0.449  0.1806 -0.0084 -0.2936
30796W        W47270   0.336   8.914   2.619 -0.1978 -0.0751  0.3024
30797W        W47271  17.127   5.568  10.804 -0.0258 -0.1018  0.1157
30798W        W47272  15.767  11.300  12.645  0.2384 -0.1196 -0.0953
30799W        W47273  15.385  16.114   3.085 -0.0873 -0.0577  0.2026
30800W        W47274  12.615  10.867   3.883 -0.1715 -0.0116 -0.2583
30801W        W47275   7.384  11.363   0.253 -0.0863 -0.0098 -0.1108
30802W        W47276   5.259  18.368  13.049  0.3045  0.0233  0.0735
30803W        W47277   9.664  17.281   1.961  0.0063 -0.2957 -0.1390
30804W        W47278  14.907  10.704   4.151  0.2781 -0.1748  0.1314
30805W        W47279  10.289  12.813   9.543 -0.0235 -0.2571  0.0341
30806W        W47280   8.377   9.882  13.711 -0.0539  0.1649 -0.3134
30807W        W47281  14.731   1.388   1.897  0.0825  0.2921  0.1498
30808W        W47282   7.622   5.533   0.145 -0.2534 -0.0758  0.0172
30809W        W47283  13.886  16.757   4.974  0.2176  0.0574  0.2605
30810W        W47284  12.747  17.971   4.166  0.0916 -0.0274  0.0070
30811W        W47285  16.752   3.766  11.175  0.0097  0.1513  0.1852
30812W        W47286  10.122  11.550  14.479  0.0098 -0.0515 -0.0995
30813W        W47287  17.131   1.184   2.239  0.1264  0.0103  0.2392
30814W        W47288  14.647   9.825   3.383  0.3230 -0.1316 -0.1185
30815W        W47289  10.791   1.747  13.650  0.0234  0.1117  0.2828
30816W        W47290  10.184   1.422   1.447 -0.0060 -0.2231  0.1036
30817W        W47291  18.214   6.467  15.103  0.1456  0.3264 -0.1463
30818W        W47292  12.046   6.102  13.004  0.0529 -0.0801 -0.0543
30819W        W47293  12.967  14.098   1.839 -0.1593  0.0087  0.0562
30820W        W47294  11.138  15.335  12.679  0.0946  0.0446  0.3522
30821W        W47295   8.208  18.852   3.300 -0.0139  0.0498 -0.0368
30822W        W47296  12.844  17.315  12.999 -0.0013  0.0524 -0.0216
30823W        W47297  16.152   7.170  10.082  0.0238 -0.0750  0.0107
30824W        W47298   7.699   6.325  11.353  0.2950 -0.0674  0.0880
30825W        W47299   0.491   4.366  14.437 -0.3568  0.1012 -0.2304
30826W        W47300  17.234  15.015   2.776 -0.1919 -0.1201 -0.0587
30827W        W47301  15.081  16.537  13.284  0.1205  0.2998  0.1418
30828W        W47302   8.374   1.385   1.050 -0.0369  0.3188  0.1420
30829W        W47303   1.980  13.229  10.426 -0.5841 -0.2408 -0.1470
30830W        W47304   7.540  13.194  14.094 -0.0923 -0.3286  0.5009
30831W        W47305   3.578  18.976   3.295  0.1891  0.0750 -0.1608
30832W        W47306  14.219   9.784   2.182 -0.0189 -0.0095 -0.0486
30833W        W47307   6.606  14.977   0.148 -0.1367  0.4256  0.2522
30834W        W47308   8.057  14.575   2.119 -0.0005  0.1055 -0.0017
30835W        W47309   9.943  18.576  14.669  0.0239  0.0587  0.2710
30836W        W47310   7.274  10.030   1.647  0.0206  0.2874  0.0675
30837W        W47311  16.862   4.054  11.930  0.2759  0.0305 -0.1789
30838W        W47312  15.232   0.801  13.555 -0.1944  0.2899 -0.0376
30839W        W47313  11.072  17.143   4.784 -0.0310  0.0969 -0.0489
30840W        W47314  12.337   4.245   3.667 -0.0253  0.1057  0.2532
30841W        W47315   9.315  13.248  11.360  0.2307 -0.0031  0.1412
30842W        W47316   3.383  17.129   2.179  0.0412 -0.1119 -0.0143
30843W        W47317  17.200  11.775   0.141  0.0472  0.0840 -0.0284
30844W        W47318   8.991  10.018   5.047  0.3150 -0.0920  0.1004
30845W        W47319  13.360  13.249   3.180  0.0296 -0.0788 -0.2769
30846W        W47320  17.603  13.511  12.877  0.2550  0.2555 -0.0195
30847W        W47321  12.635   3.914   1.208 -0.0754  0.1301  0.2102
30848W        W47322  16.206  15.443   3.767 -0.1594  0.4531  0.1883
30849W        W47323   8.804  16.551  11.590 -0.0361 -0.0861  0.1566
30850W        W47324  15.812  15.771   4.612  0.0304 -0.3092 -0.3342
30851W        W47325  14.635   7.325  14.139 -0.0335  0.0980  0.1591
30852W        W47326  12.728   4.589  11.428 -0.0200  0.1584  0.0482
30853W        W47327   6.796   6.801  11.729  0.0626 -0.1791 -0.0645
30854W        W47328   7.032  12.301  12.410  0.1184  0.0757 -0.4377
30855W        W47329  12.337  15.202  12.231 -0.0216  0.1510  0.3028
30856W        W47330  12.821  17.646  12.120 -0.0613  0.1604 -0.0007
30857W        W47331   2.986   2.072  14.734 -0.0850  0.3294  0.0855
30858W        W47332  17.971  16.470  10.936 -0.2494  0.0579 -0.1476
30859W        W47333   9.976  12.159  13.079  0.1244 -0.0710 -0.0109
30860W        W47334  15.880   0.699   1.676  0.0388  0.0232  0.2107
30861W        W47335  16.548  18.094  10.851 -0.2243  0.0496  0.2144
30862W        W47336   9.468   8.520  11.690  0.0901 -0.0336 -0.2127
30863W        W47337   7.834  13.161  15.007 -0.1690 -0.2496 -0.0884
30864W        W47338  15.414   6.782   0.575  0.3583 -0.0185  0.0638
30865W        W47339   0.631   9.940   0.916  0.1760 -0.1521  0.0207
30866W        W47340   9.317   2.950  10.452  0.0389 -0.0231 -0.0326
30867W        W47341  10.657   1.645   3.406  0.2757 -0.4632  0.1811
30868W        W47342   9.341   4.150  14.875 -0.0933  0.1776 -0.1197
30869W        W47343   1.269   9.638  12.177 -0.0734  0.3004  0.2729
30870W        W47344  17.155  18.912   1.761 -0.1981  0.0665 -0.1694
30871W        W47345  11.962   5.701   3.448 -0.0004  0.2206 -0.0258
30872W        W47346   1.234  13.001  10.875 -0.2341  0.2273 -0.0265
30873W        W47347   3.857  16.667  14.537 -0.1232  0.1618  0.2525
30874W        W47348   6.427  10.530  11.146 -0.0375  0.0332  0.2287
30875W        W47349   9.140   2.467  11.914 -0.1194  0.2157 -0.1019
30876W        W47350  18.632   1.559   0.452  0.0355 -0.1621  0.3816
30877W        W47351   0.358   7.024   1.341  0.2076 -0.1105 -0.5552
30878W        W47352   5.806  18.879   4.457  0.3228 -0.0641  0.5365
30879W        W47353   1.094   3.158   3.702 -0.0528  0.0016 -0.1229
30880W        W47354  10.183   8.157  13.381  0.1762  0.4492 -0.2134
30881W        W47355   2.969   8.384   4.345 -0.0461 -0.3029  0.2813
30882W        W47356   0.270  19.012  12.426 -0.1711  0.1951 -0.0719
30883W        W47357  13.936  14.578  13.279  0.0107 -0.1642 -0.1701
30884W        W47358   1.583   3.646   4.935 -0.0048  0.1028 -0.1688
30885W        W47359  14.030  11.380   2.436  0.3164  0.1300  0.1499
30886W        W47360   1.270  12.961   0.953 -0.0061  0.2520  0.2315
30887W        W47361   5.405   4.198   0.249 -0.0296 -0.0866 -0.0940
30888W        W47362  14.175  14.381  14.908 -0.0792 -0.0902 -0.1272
30889W        W47363  17.140   4.765   1.371  0.2950  0.1798 -0.0480
30890W        W47364  11.489  13.227  12.762 -0.0297  0.2208  0.0938
30891W        W47365   5.649  16.833   4.625 -0.1685  0.1812 -0.0578
30892W        W47366  16.403   2.991   2.095  0.3170 -0.0212  0.1747
30893W        W47367   2.413   0.256  13.144 -0.2204 -0.0245  0.1146
30894W        W47368  10.729  10.953   2.257 -0.2260 -0.4487 -0.0875
30895W        W47369   5.437   6.620  13.794 -0.1901 -0.0711 -0.0420
30896W        W47370   6.653   6.135   0.026  0.0443 -0.1876 -0.0140
30897W        W47371  15.808   5.732  14.094 -0.0852  0.0296  0.1539
30898W        W47372  16.668  13.076   3.819  0.3046 -0.0213 -0.1780
30899W        W47373  17.966  18.588  14.866 -0.0502  0.0030  0.1939
30900W        W47374  12.358   5.732  14.971 -0.0042 -0.0887 -0.2295
30901W        W47375   2.472   3.459  13.356 -0.1073 -0.2743  0.2744
30902W        W47376   2.289   7.973  10.345 -0.3575 -0.1208 -0.0363
30903W        W47377  10.536  13.313  11.758 -0.0365 -0.1670  0.2049
30904W        W47378   3.340  18.354  14.277 -0.1976  0.1378  0.0774
30905W        W47379   3.799  16.736  11.815 -0.0896  0.0184 -0.0903
30906W        W47380  15.983  14.017  12.708  0.0207 -0.2063  0.0099
30907W        W47381   1.760  16.899  11.528  0.1425 -0.2766  0.0184
30908W        W47382   5.344   9.542   4.357 -0.1701 -0.3320  0.0214
30909W        W47383   4.238   1.913  10.655  0.0714 -0.1344  0.1917
30910W        W47384  13.228   4.827   2.192  0.0087  0.2357  0.0922
30911W        W47385  13.314  17.252   2.486 -0.0191  0.4248  0.2815
30912W        W47386   0.011   0.427   4.128 -0.1176  0.0426  0.0737
30913W        W47387  18.434  16.384   3.936  0.1255  0.0824  0.0289
30914W        W47388  17.289   2.269   0.247  0.0304  0.1084 -0.0966
30915W        W47389  10.521   1.992   4.029 -0.0932  0.1204 -0.2395
30916W        W47390  15.689   9.219  13.830 -0.1453  0.3123 -0.3414
30917W        W47391   8.135   3.936  10.898 -0.2439  0.1001  0.0917
30918W        W47392   1.706  13.729   5.864  0.4862  0.1758  0.0155
30919W        W47393   6.702   5.319  13.668 -0.0844  0.1533  0.0287
30920W        W47394   6.641   9.340   1.920 -0.2560 -0.0068  0.0960
30921W        W47395  11.276  17.954  12.131  0.0736  0.0495 -0.0005
30922W        W47396   2.251   9.424   0.582  0.0434 -0.0503 -0.0874
30923W        W47397  16.224  14.370   4.889 -0.0121 -0.0383 -0.2099
30924W        W47398  10.577   6.885   0.470 -0.2202  0.1434 -0.0106
30925W        W47399   8.097  14.315   0.586 -0.1437 -0.1581  0.2865
30926W        W47400   1.384  17.165   9.744 -0.4423  0.0227  0.1178
30927W        W47401  18.712   2.852  11.306  0.2247  0.0938 -0.0310
30928W        W47402  13.169  18.835   0.952 -0.0357  0.1326 -0.1977
30929W        W47403  12.975  18.717   5.755  0.1008 -0.0350  0.1847
30930W        W47404   8.184  15.079  13.934  0.1085 -0.2556 -0.1190
30931W        W47405  11.666  11.403  12.989 -0.2625 -0.0259  0.1956
30932W        W47406  17.195   2.476   1.704  0.0978  0.0619 -0.1878
30933W        W47407  10.338  17.792  13.593  0.2661 -0.1236 -0.3093
30934W        W47408   6.424   9.685  14.689  0.1072 -0.2378  0.2901
30935W        W47409   2.666  15.314  12.386  0.0624  0.0937  0.4217
30936W        W47410  12.118   3.232   3.992 -0.1726  0.0549 -0.1116
30937W        W47411   1.981   6.021  13.302  0.1401 -0.0833  0.2415
30938W        W47412  18.421   5.436  11.571 -0.0372  0.0725 -0.0649
30939W        W47413  15.080   8.851   4.101  0.2073 -0.1181  0.1199
30940W        W47414  17.665   6.615   4.373  0.2007 -0.0131  0.1217
30941W        W47415   5.728   9.941  12.610 -0.2102 -0.0286 -0.0951
30942W        W47416  14.555   6.574  14.838 -0.1031 -0.3772  0.2619
30943W        W47417   5.244   2.706   4.471  0.1428 -0.2490  0.1673
30944W        W47418   3.140   7.779  12.200 -0.2429 -0.0116 -0.1228
30945W        W47419   9.556   6.159  13.287  0.0010 -0.1848  0.0915
30946W        W47420   8.079  17.990  14.968  0.2442 -0.0276  0.1418
30947W        W47421   3.525   3.179   1.949  0.0889 -0.0804 -0.2294
30948W        W47422  13.093   6.001   1.604 -0.2434  0.1267 -0.0809
30949W        W47423   9.139  15.040   1.336  0.0728  0.0948  0.1455
30950W        W47424  18.129   6.620  12.558  0.0046  0.1192  0.0653
30951W        W47425  18.487   1.048  13.798 -0.2946  0.0247  0.0382
30952W        W47426   7.755  16.389  13.683 -0.2672 -0.0752 -0.2919
30953W        W47427  14.052   3.075  10.426  0.0758  0.1789  0.4059
30954W        W47428  11.564  15.046   5.515 -0.3561  0.1150 -0.3783
30955W        W47429   2.615   3.900  12.421  0.0176 -0.3858 -0.0291
30956W        W47430  12.404   1.711   1.411  0.0055 -0.1517 -0.4761
30957W        W47431  17.136   7.304  12.006  0.3335 -0.1841  0.0851
30958W        W47432   6.545   8.010   0.618 -0.2468 -0.1339 -0.0076
30959W        W47433   1.581  15.223  12.853  0.0797  0.2717  0.2422
30960W        W47434   6.511  18.317   4.953  0.1060  0.2407 -0.2860
30961W        W47435  16.518  17.594   2.974  0.0064  0.2180  0.2203
30962W        W47436  15.050  12.172   0.333 -0.1684 -0.3639  0.0577
30963W        W47437  11.595  13.941  13.251 -0.2073 -0.1809  0.0464
30964W        W47438  17.737  15.192  13.764 -0.0831  0.1504  0.1037
30965W        W47439  11.704   4.070  12.299  0.1458 -0.0839  0.0265
30966W        W47440   4.829  13.406  12.464  0.0828  0.1077  0.3510
30967W        W47441  14.057  16.902  12.264 -0.0730  0.2576 -0.1255
30968W        W47442  11.672   6.527   1.924 -0.1755 -0.0132  0.1545
30969W        W47443  10.075  13.235   0.782 -0.0156 -0.1757  0.1047
30970W        W47444  13.713  15.649   2.059  0.1038  0.0010  0.0087
30971W        W47445   9.782   3.593   4.949  0.0811 -0.0331 -0.0623
30972W        W47446  11.920   5.586  13.181 -0.1251  0.0358  0.0669
30973W        W47447  10.587  16.878   4.903 -0.0128 -0.0974 -0.2772
30974W        W47448   8.762  14.534  14.942 -0.1717 -0.0816  0.0206
30975W        W47449   3.592  11.540   2.527  0.0613  0.1577 -0.0235
30976W        W47450   9.676   8.516   4.804  0.1894 -0.1379  0.0127
30977W        W47451   3.034  11.776   1.748  0.3257  0.1702 -0.1265
30978W        W47452   5.678  15.383  14.281  0.2207 -0.0862  0.0711
30979W        W47453  13.147   1.500   0.328  0.3331 -0.1308 -0.0198
30980W        W47454  11.408   9.846   5.237  0.1925 -0.0986 -0.1681
30981W        W47455   7.884   7.798  14.221 -0.1091 -0.0848  0.1484
30982W        W47456  18.968  19.016  14.922 -0.2861 -0.0002  0.1478
30983W        W47457   6.476   2.341  11.410 -0.1201 -0.2602  0.0297
30984W        W47458  18.498   9.198   3.559  0.0552 -0.1764  0.1102
30985W        W47459  17.953  13.823  14.908 -0.2999  0.1088 -0.0063
30986W        W47460  17.850   9.860  14.860 -0.2100 -0.3437 -0.0633
30987W        W47461  18.743   5.863  13.586  0.1059  0.0307  0.0128
30988W        W47462  14.241  11.143   5.056 -0.0595  0.2984 -0.0070
30989W        W47463   4.090   9.847   3.908  0.0804  0.2709  0.2700
30990W        W47464   3.115   4.822   4.707  0.1727  0.1457 -0.3329
30991W        W47465  14.896  15.770  11.388  0.0810 -0.0830  0.2027
30992W        W47466  18.033   0.053   3.333  0.0940  0.0493  0.1021
30993W        W47467  13.319  12.538   5.072 -0.0406 -0.1611  0.3003
30994W        W47468  10.348  15.233   1.302  0.0738 -0.2325  0.0197
30995W        W47469  11.252   4.745  11.726 -0.1478  0.1957 -0.1309
30996W        W47470  12.989  15.810   4.370 -0.0561 -0.2942  0.2419
30997W        W47471   9.028   1.036   0.916  0.1677  0.0691  0.0969
30998W        W47472  18.689  15.133  12.180  0.1833  0.0559  0.0437
30999W        W47473  16.032  18.217   4.833  0.2817  0.0374  0.0551
31000W        W47474   0.448   0.936  12.998  0.2145 -0.1362 -0.1863
31001W        W47475   3.237   8.489  14.199  0.3633  0.0401 -0.0197
31002W        W47476  13.533  10.579   4.317 -0.0759  0.1660  0.0071
31003W        W47477  12.405   5.958   3.320  0.0224 -0.0927 -0.2955
31004W        W47478  13.519  10.671   5.383 -0.1100  0.0111 -0.1163
31005W        W47479   1.680   4.076  14.130 -0.1969 -0.3419 -0.1314
31006W        W47480   9.307   3.845   9.223  0.2535  0.0642 -0.0399
31007W        W47481  16.753   6.867  13.925  0.1057  0.1755 -0.0923
31008W        W47482   3.708  15.289   4.161 -0.0388  0.1178  0.1418
31009W        W47483   5.036   8.352  15.008 -0.1147 -0.0148  0.1842
31010W        W47484  18.677  16.667  12.079  0.1163 -0.2433 -0.2282
31011W        W47485  11.580   0.708   3.334 -0.2166  0.1176  0.1606
31012W        W47486   8.511  16.684   4.258 -0.1092 -0.3625 -0.1057
31013W        W47487   8.064  18.087  11.832 -0.0386  0.1048  0.1056
31014W        W47488   5.636   9.995  11.058  0.1936  0.2431  0.4399
31015W        W47489   1.730   8.580   4.216  0.0083  0.0029 -0.2029
31016W        W47490  12.091  17.705  14.358  0.1320  0.0612  0.2380
31017W        W47491  18.985  16.775   3.447 -0.1331  0.0466  0.3244
31018W        W47492  14.094  11.702   5.396 -0.0779 -0.0169  0.3149
31019W        W47493  12.046   8.149   3.264 -0.3574  0.3453 -0.0484
31020W        W47494   1.073  16.547   0.258  0.2487 -0.0953  0.3393
31021W        W47495  17.200  19.018  12.440  0.2348 -0.4175 -0.0685
31022W        W47496   4.474  16.099  13.470  0.1205 -0.0748  0.1054
31023W        W47497   6.628   0.150   1.982  0.1115 -0.0759 -0.3598
31024W        W47498   2.945   8.469   3.267  0.2013 -0.1062  0.4339
31025W        W47499   2.796   8.374  11.200  0.1685  0.4249 -0.0424
31026W        W47500  13.772   0.894  12.146  0.3128  0.0440  0.0303
31027W        W47501   3.772   0.770  12.591 -0.0543  0.2212  0.0610
31028W        W47502   2.172   6.784  10.697  0.1430  0.2597  0.2231
31029W        W47503  18.282   0.376   2.482  0.0339 -0.0246 -0.1355
31030W        W47504  18.201   8.891   2.318  0.1540 -0.3872 -0.0251
31031W        W47505   1.933  18.207   0.577  0.0504 -0.0631 -0.1496
31032W        W47506   7.180   4.063   2.494  0.1117  0.0826 -0.2835
31033W        W47507   7.148  14.834   5.082 -0.0287 -0.0029  0.0781
31034W        W47508  10.907   1.927  11.477 -0.1868  0.1709  0.2923
31035W        W47509  13.921  11.225   1.909 -0.2798 -0.0673  0.1924
31036W        W47510  15.401   9.994   3.820 -0.0889  0.1074  0.3298
31037W        W47511   2.955   0.618   2.441  0.0011  0.2653  0.0174
31038W        W47512  12.257   6.861   3.657  0.0111  0.1915 -0.3039
31039W        W47513   9.022   5.758  11.321 -0.1546 -0.2007  0.0075
31040W        W47514   9.748   6.874  11.586 -0.1217 -0.0394 -0.1408
31041W        W47515  17.180   4.646  13.984 -0.1881  0.2985  0.1193
31042W        W47516   9.598  18.858   4.121  0.3338  0.0593  0.1519
31043W        W47517  13.152  18.122   2.003  0.1151  0.0155  0.2026
31044W        W47518   1.620   9.442   4.453  0.0513 -0.3412 -0.1693
31045W        W47519  11.799  12.719  11.543 -0.0784 -0.0958 -0.2361
31046W        W47520  17.195  19.053   3.272  0.0322  0.0887 -0.1561
31047W        W47521   4.233  13.778   2.490 -0.2035  0.0388  0.2690
31048W        W47522  12.926   1.606   4.071 -0.1110 -0.2530  0.0371
31049W        W47523  15.040   1.000   1.827  0.0715  0.0668  0.0069
31050W        W47524  12.458  14.957  12.765  0.1793  0.1457  0.1190
31051W        W47525  10.092   0.234  14.222  0.1324 -0.0522 -0.0692
31052W        W47526  17.481   3.483  10.144  0.3460  0.0620  0.1695
31053W        W47527  18.475   2.009  10.539 -0.1068  0.1310  0.3113
31054W        W47528   5.085  15.282  13.677 -0.1850  0.1728 -0.0009
31055W        W47529   8.123   2.902   1.376 -0.1442 -0.0073 -0.1712
31056W        W47530  17.551   5.290  11.577 -0.1729  0.3066 -0.0054
31057W        W47531   8.892   6.858   3.312  0.0403 -0.0900  0.1073
31058W        W47532   9.251   5.997   3.685 -0.1210  0.0014  0.0815
31059W        W47533  10.015  11.962   1.511 -0.0640  0.0071  0.0589
31060W        W47534   1.118  14.216  11.560 -0.0402 -0.1204  0.3320
31061W        W47535   3.493  11.855   1.545  0.1524  0.0562 -0.0335
31062W        W47536  14.200  10.078  11.528  0.0076 -0.1820  0.2022
31063W        W47537   4.808   1.668  11.765  0.0352 -0.1543 -0.0718
31064W        W47538  13.234  15.083  14.791  0.2998  0.1666 -0.0506
31065W        W47539   4.484  18.456  13.446 -0.0439  0.0306 -0.1076
31066W        W47540  17.790   2.875  10.939 -0.0598 -0.1642 -0.0998
31067W        W47541  10.905   7.696  12.249  0.0860 -0.3056 -0.1516
31068W        W47542  17.854   5.617   4.081 -0.0916  0.0507  0.1172
31069W        W47543   6.863  16.207   2.242  0.0161  0.1659  0.0356
31070W        W47544   7.408   4.662  12.466 -0.0878 -0.2852  0.1659
31071W        W47545  13.217   0.282  12.652 -0.1429  0.0728 -0.1247
31072W        W47546  17.375   3.151   2.476 -0.0498 -0.2311 -0.1337
31073W        W47547   6.676   4.657   4.041  0.0809 -0.2400 -0.0233
31074W        W47548  14.096   8.146  11.390  0.2958 -0.1264 -0.0515
31075W        W47549  16.439  14.863  13.378  0.3006  0.2607 -0.1386
31076W        W47550   3.034  18.804  12.870 -0.0551 -0.1851  0.3007
31077W        W47551  19.104  17.118   9.620  0.0762  0.2593  0.0315
31078W        W47552  14.328  16.240  11.714 -0.0327  0.0079  0.0026
31079W        W47553   5.237   1.718  12.811  0.2052 -0.1770  0.1677
31080W        W47554   5.602  10.105   4.020 -0.0957 -0.0618  0.1523
31081W        W47555   9.864  10.289   2.360  0.0226 -0.2306  0.2483
31082W        W47556  12.689   8.957   2.626 -0.1881 -0.0181 -0.1332
31083W        W47557  10.119   6.374   4.570 -0.2984 -0.1003 -0.0189
31084W        W47558  15.328   9.466  12.961 -0.0266  0.0736 -0.3502
31085W        W47559  18.469   7.994  12.919 -0.0094 -0.3111  0.5065
31086W        W47560   0.014  14.710  10.884  0.1912 -0.3573  0.0898
31087W        W47561  18.429  15.117   3.261 -0.1475 -0.2913  0.3181
31088W        W47562  18.603   0.731   1.300  0.1408  0.0285  0.3080
31089W        W47563  13.883   7.377   3.774  0.0519  0.4270  0.0101
31090W        W47564  14.991  10.267   0.199  0.0066 -0.3115  0.1049
31091W        W47565  13.285   2.177   0.956  0.0462 -0.3084  0.0081
31092W        W47566  17.178   3.056   3.546  0.2323 -0.2966  0.0620
31093W        W47567  18.355   5.988  13.124 -0.2355 -0.2439  0.1467
31094W        W47568  14.191  16.302  10.975 -0.1011  0.1091  0.2214
31095W        W47569  12.108   1.332  11.219  0.3595  0.2789 -0.1014
31096W        W47570   1.975   0.553   5.173  0.0145 -0.2379 -0.2102
31097W        W47571   3.262   5.529   2.811  0.0159 -0.3048  0.3470
31098W        W47572   6.792  14.592   1.430 -0.1104  0.1370 -0.0585
31099W        W47573   2.244   7.048  13.943  0.0749  0.1139  0.1674
31100W        W47574  11.169   7.053  12.675 -0.2065  0.1692  0.0561
31101W        W47575  12.691   9.658  14.374 -0.0276  0.0253 -0.1642
31102W        W47576  18.454   6.138   3.916  0.0047 -0.3893  0.0929
31103W        W47577   5.870   5.521   2.728 -0.1173 -0.2577 -0.1351
31104W        W47578   2.923  13.414   2.709  0.0863 -0.0778 -0.0574
31105W        W47579   5.994   0.017   3.687  0.0610 -0.2053 -0.2569
31106W        W47580   8.154   9.250   4.152  0.1155 -0.0942 -0.3178
31107W        W47581   5.640   9.564   2.212 -0.0588  0.3299 -0.0519
31108W        W47582   7.303  10.554  14.858  0.0380  0.0626 -0.1412
31109W        W47583  14.611   0.798  14.808  0.3038  0.1547  0.0565
31110W        W47584   6.783  18.949  13.842  0.0074  0.1808 -0.2857
31111W        W47585   4.015  13.233  12.853 -0.0549  0.0127  0.1940
31112W        W47586  13.476  14.239   0.763  0.1103 -0.1655  0.2255
31113W        W47587   4.656  18.381   4.711 -0.2794 -0.0561 -0.3283
31114W        W47588   4.708  10.208  11.131  0.2080 -0.0038  0.2511
31115W        W47589  11.384   1.025  14.724  0.1057  0.3468  0.1848
31116W        W47590   5.081  13.790  10.421  0.0601  0.0720 -0.0378
31117W        W47591   5.911  12.948  10.318 -0.0069 -0.3844  0.0697
31118W        W47592  11.538  16.706   3.111  0.0090 -0.1000 -0.1274
31119W        W47593   9.201  15.169  11.474  0.0846  0.0612 -0.1763
31120W        W47594   3.856   9.285   2.185 -0.1390 -0.0072  0.2490
31121W        W47595   4.857  12.035  12.703 -0.1374 -0.2480 -0.1409
31122W        W47596  18.476  15.194  14.445 -0.2508 -0.1047  0.1955
31123W        W47597  17.101  10.151   0.430 -0.0731 -0.4053 -0.2022
31124W        W47598   4.621  14.863   4.923  0.0158 -0.0353  0.0585
31125W        W47599   9.403  15.011   1.769  0.0904 -0.0902 -0.0198
31126W        W47600   3.711  10.515  14.969 -0.0874  0.1869  0.0124
31127W        W47601  17.529   6.466  14.347 -0.0931  0.1710 -0.3532
31128W        W47602   2.050   8.070   2.442 -0.1330 -0.1111 -0.0270
31129W        W47603  10.821  19.095   5.047  0.2326  0.0534  0.0398
31130W        W47604  18.479   9.300  10.759  0.0119  0.3497 -0.0385
31131W        W47605   0.498   6.046  14.275  0.1102  0.1154 -0.0293
31132W        W47606  15.304   0.151   2.142 -0.0452  0.1106 -0.0887
31133W        W47607  11.906  18.772   4.098  0.0749  0.1306  0.2158
31134W        W47608   9.525  15.273   3.133  0.2978 -0.1118  0.0311
31135W        W47609   1.907  15.799   1.660  0.0506  0.0199 -0.0524
31136W        W47610   1.737  17.736   1.392  0.2096  0.1895  0.1306
31137W        W47611  12.445  14.208  11.975 -0.0804  0.0717  0.0061
31138W        W47612  16.698  14.447   1.562 -0.1848 -0.2702 -0.0622
31139W        W47613  19.018  17.821   5.421 -0.1765  0.1156  0.1331
31140W        W47614  13.494   1.468  14.158 -0.2597 -0.1174  0.0109
31141W        W47615   5.528  12.150  11.855  0.0639  0.0338  0.0276
31142W        W47616   2.414  16.318   4.186  0.3209  0.2067  0.1261
31143W        W47617   6.705  17.560  11.151  0.2888  0.1036 -0.0274
31144W        W47618  15.731  17.831   3.654 -0.1473 -0.2084 -0.1350
31145W        W47619   3.609   1.186   2.331 -0.1781 -0.3870  0.3147
31146W        W47620  15.787  13.049   3.819 -0.2181 -0.1016 -0.0494
31147W        W47621   2.239   1.554  13.108  0.0815 -0.0633  0.1197
31148W        W47622   4.811  15.988   5.471  0.1004  0.0339  0.0152
31149W        W47623   6.152  12.309  10.621 -0.2930  0.1948  0.4041
31150W        W47624  17.122   5.991  12.193  0.0083 -0.0243 -0.0345
31151W        W47625   8.888   5.476  10.894 -0.0004 -0.4829 -0.0497
31152W        W47626  15.255   3.992  12.206  0.2151 -0.0919 -0.0943
31153W        W47627   6.219  17.900  11.935 -0.2012  0.1900 -0.1252
31154W        W47628   7.885  15.344  13.672  0.2298  0.2294  0.1703
31155W        W47629   9.375   4.223  14.365 -0.1295 -0.3159  0.1316
31156W        W47630  17.624   2.942   5.279 -0.1785  0.1592 -0.0084
31157W        W47631   1.437   0.045  11.110 -0.0928 -0.0093  0.0772
31158W        W47632   8.901   1.439   3.926 -0.0457 -0.2059  0.1632
31159W        W47633  14.298  16.384   1.078  0.1969  0.0134 -0.0503
31160W        W47634   4.247   9.166  12.873  0.0786  0.0690 -0.2038
31161W        W47635  14.613   8.066  11.389  0.0359 -0.0148 -0.1301
31162W        W47636  17.283   8.524   4.496  0.0235  0.0789 -0.2328
31163W        W47637   8.094  16.056  10.856 -0.0821 -0.3409 -0.0455
31164W        W47638   3.978   8.634   0.947 -0.0134 -0.1449 -0.0169
31165W        W47639  16.492   0.409  13.948 -0.1495  0.0177 -0.0005
31166W        W47640   1.963  15.094   2.889 -0.0291  0.0732  0.2528
31167W        W47641   5.281   7.972  11.318 -0.0718 -0.2221 -0.1908
31168W        W47642  13.399   5.857  13.661  0.1400 -0.0257  0.0210
31169W        W47643   0.509   1.045  11.735  0.1187  0.2386  0.4145
31170W        W47644   2.836  13.464  13.378 -0.1267 -0.0057  0.0638
31171W        W47645  17.873   4.242  14.095 -0.0743 -0.0721 -0.1193
31172W        W47646   1.630   4.331   2.314  0.3074  0.0362  0.2298
31173W        W47647  11.778  10.071   0.379 -0.2585  0.2442 -0.3855
31174W        W47648  11.557   4.519   2.453  0.4122 -0.2162  0.0715
31175W        W47649   7.620   3.342   3.270  0.0357 -0.1132  0.1859
31176W        W47650  13.598   6.878  13.055  0.1766 -0.1241 -0.0090
31177W        W47651  12.059  16.878  10.607  0.0065 -0.0509 -0.3005
31178W        W47652  10.722   5.034  14.562  0.1487  0.1436  0.3923
31179W        W47653  18.196  17.943  12.625  0.0407  0.0556  0.1586
31180W        W47654   0.184   5.166  12.503 -0.2518  0.2279  0.3075
31181W        W47655   2.866   8.167  12.415 -0.0864  0.1761  0.1321
31182W        W47656  14.683   9.807  13.472  0.1624  0.0070 -0.1575
31183W        W47657   2.745  11.973   4.283 -0.1421 -0.0274 -0.1063
31184W        W47658  12.877   9.883   4.948 -0.1067 -0.0520  0.0656
31185W        W47659  19.153  16.923  12.302 -0.0458 -0.0429 -0.1829
31186W        W47660  14.642   8.281   3.407  0.0008 -0.0974  0.2116
31187W        W47661   0.928  12.090   0.846 -0.0183  0.1660 -0.4360
31188W        W47662  18.920   1.217  13.558  0.0245  0.0099 -0.1532
31189W        W47663  16.404   2.218  14.861 -0.1126  0.2193  0.2863
31190W        W47664   3.778   0.041  13.894  0.1109 -0.1205  0.5252
31191W        W47665  11.621   3.832  14.894 -0.1717  0.0440  0.0890
31192W        W47666  14.147   1.599  13.717 -0.2347 -0.1586 -0.0703
31193W        W47667  12.862   8.984   3.661 -0.0630  0.2170  0.1772
31194W        W47668   1.462   5.672  11.798 -0.1871  0.0727  0.0977
31195W        W47669   4.687  19.032  12.840 -0.1845 -0.0687  0.1364
31196W        W47670  17.432   5.612  13.259  0.1055  0.3360 -0.0604
31197W        W47671  17.584   4.191   3.862  0.2306 -0.0502  0.0729
31198W        W47672  15.229   7.626  13.404 -0.1919  0.4418 -0.1702
31199W        W47673   7.420   2.787   0.611  0.0267 -0.0926 -0.1379
31200W        W47674  14.021   8.209   4.892  0.2149 -0.1640  0.0435
31201W        W47675  15.312   8.891  14.205  0.0152 -0.1517  0.2426
31202W        W47676  14.394  17.246   0.541  0.2969 -0.1995  0.0861
31203W        W47677   3.213  13.058   3.196  0.0785  0.1477  0.2351
31204W        W47678  12.306  15.542  12.957  0.0466  0.3330 -0.0060
31205W        W47679  14.321  18.140   3.701 -0.1909 -0.3096 -0.0580
31206W        W47680  17.251  12.981  12.124  0.2844  0.0216 -0.1704
31207W        W47681   5.577   7.776   4.897 -0.0748 -0.0380  0.0067
31208W        W47682   8.030  15.033  12.380  0.2283 -0.1290  0.2305
31209W        W47683  18.027  13.441  14.526  0.0501 -0.0309  0.1710
31210W        W47684  14.955  14.178  12.313  0.1927  0.0564  0.0713
31211W        W47685   9.486  14.085   0.780 -0.0858 -0.2970 -0.1102
31212W        W47686  11.653   0.087  14.752  0.1447  0.0950 -0.0466
31213W        W47687   5.450   0.527  12.493 -0.1309 -0.1148 -0.1581
31214W        W47688   8.961  11.445  11.951  0.0940 -0.2744  0.0709
31215W        W47689  18.625   4.751   2.740 -0.1164  0.3406 -0.3356
31216W        W47690  15.442   4.842   3.071  0.1676 -0.0815 -0.0968
31217W        W47691  16.363   3.897  13.301  0.0809  0.3093  0.2136
31218W        W47692   5.270   3.065   2.198  0.2054 -0.5167  0.2385
31219W        W47693  15.890   2.899  11.377 -0.1240  0.0964 -0.2292
31220W        W47694   0.890   6.526  12.870  0.1965 -0.0290  0.0571
31221W        W47695   6.207   5.971  11.171 -0.3065  0.3832 -0.1869
31222W        W47696   1.220   1.326   3.172 -0.0832  0.1316  0.2757
31223W        W47697   9.884  18.437   4.056  0.1146 -0.0121  0.1888
31224W        W47698  13.403  18.957   0.033 -0.1228 -0.0153  0.1914
31225W        W47699   9.583   3.448  14.013  0.2248 -0.1655  0.0297
31226W        W47700  18.811  13.219  10.921 -0.1034 -0.2178 -0.0607
31227W        W47701   9.582   8.961  11.464  0.0044  0.0078  0.0673
31228W        W47702  17.885   0.342  13.926  0.0099 -0.1604 -0.1626
31229W        W47703   4.619   5.996  12.005  0.1446  0.1672 -0.3800
31230W        W47704   2.803   0.873  11.543  0.0977 -0.3337  0.2774
31231W        W47705   4.139   6.471  14.025  0.0146  0.0819  0.2682
31232W        W47706   0.226  16.429  15.019 -0.5879 -0.0297 -0.0268
31233W        W47707  10.837  12.344   3.381 -0.2311 -0.0530  0.3779
31234W        W47708   9.032   3.511  11.122  0.3692  0.2245 -0.2248
31235W        W47709   5.713   1.415  12.914 -0.4743  0.1419  0.2415
31236W        W47710   9.553   6.634  15.133  0.1319  0.1069 -0.2761
31237W        W47711   2.299  13.309  12.185 -0.1636 -0.0518 -0.1581
31238W        W47712   2.563  14.208   1.883  0.0841  0.0243  0.2070
31239W        W47713   0.899   9.288  12.002 -0.5360 -0.1040 -0.2296
31240W        W47714  15.088  17.147  13.388 -0.1638  0.0313 -0.0789
31241W        W47715  13.002   7.197   1.270 -0.0622  0.1346 -0.2286
31242W        W47716  13.981   6.780  11.521 -0.2040  0.1277 -0.0504
31243W        W47717   1.829  12.346  12.556  0.1770  0.1288 -0.1291
31244W        W47718   5.676   9.008  11.781 -0.0244 -0.1134 -0.1497
31245W        W47719  15.701   7.399  11.927 -0.0474  0.0239  0.1662
31246W        W47720   4.034   6.887  13.015  0.1213 -0.1166  0.1396
31247W        W47721   5.589  16.979   2.208  0.2184 -0.0279 -0.2751
31248W        W47722  14.126   7.686  12.049 -0.1496  0.0662  0.0978
31249W        W47723  18.515   7.477  11.224 -0.5498  0.0223 -0.1414
31250W        W47724   8.353   0.923   0.326 -0.1674  0.4727  0.0773
31251W        W47725   7.454   1.478   1.440 -0.0563 -0.0402  0.0703
31252W        W47726   0.313  11.172  13.049  0.2196  0.2518 -0.2438
31253W        W47727  18.494  14.545  14.300  0.0590  0.0898 -0.1524
31254W        W47728  11.728   4.299   0.102  0.3236 -0.0491 -0.0386
31255W        W47729   4.568   4.040  11.447  0.0566  0.3266 -0.3077
31256W        W47730  17.456  13.424  10.647 -0.0470 -0.3421  0.0819
31257W        W47731  17.620   9.904   2.873 -0.3068 -0.0394  0.3060
31258W        W47732  18.398   0.568   4.874 -0.1964  0.1042 -0.0891
31259W        W47733   6.921  16.410   2.663 -0.0894 -0.1456 -0.2509
31260W        W47734  12.388   2.955   2.190  0.2616  0.3438 -0.4052
31261W        W47735  11.330  13.858   3.948  0.0753 -0.0550 -0.0743
31262W        W47736  14.589   7.646  11.918  0.3150  0.1856 -0.0156
31263W        W47737  15.103   7.547   1.137 -0.0815 -0.3502  0.4115
31264W        W47738  16.675  19.132  12.172 -0.2060 -0.1024  0.1057
31265W        W47739   6.975   2.114   1.985  0.1391 -0.0555  0.2358
31266W        W47740   6.810   3.641  10.239  0.0480  0.1291 -0.0423
31267W        W47741   1.777  14.346   1.222  0.0242 -0.3223  0.1459
31268W        W47742   4.603  12.236   0.891 -0.0551 -0.0317 -0.1442
31269W        W47743   9.085   1.815  14.947  0.3300  0.0331 -0.0567
31270W        W47744  13.250   1.205  14.530 -0.1521 -0.1433 -0.0782
31271W        W47745  15.375  17.671   1.330 -0.2063  0.5328 -0.2949
31272W        W47746   3.842  16.977   3.068 -0.1458 -0.1458 -0.1447
31273W        W47747   7.696  17.709   3.785 -0.2891  0.1414  0.0301
31274W        W47748  15.619  14.249  15.087  0.2698 -0.2112  0.3024
31275W        W47749  16.889  15.976  11.141  0.1934 -0.0371  0.1828
31276W        W47750   8.277   4.124  10.463 -0.1111  0.3478  0.0611
31277W        W47751   5.141   5.427   3.452 -0.0498 -0.0706 -0.0780
31278W        W47752  14.336  18.986   2.333 -0.1096 -0.0309  0.2842
31279W        W47753   2.855  16.662   2.198 -0.0825 -0.2158  0.0643
31280W        W47754   4.829  11.651  14.428 -0.1624 -0.1062 -0.1822
31281W        W47755   4.764   7.090   2.719  0.1246 -0.0227 -0.2134
31282W        W47756   8.159   6.191  14.719  0.0461  0.1174 -0.2127
31283W        W47757   3.064  12.586  13.020 -0.4105 -0.2159 -0.1580
31284W        W47758  16.111   9.266   4.100  0.0495 -0.1413 -0.4466
31285W        W47759  16.683   5.867   1.725  0.1123  0.0912  0.2081
31286W        W47760  17.437   6.384   2.167 -0.2297 -0.3272  0.0968
31287W        W47761  12.034   1.130   2.842  0.0082  0.0443  0.2670
31288W        W47762  13.992   5.060  13.241  0.0098 -0.0391  0.0720
31289W        W47763   3.850   1.986  10.352 -0.0745 -0.0432  0.1524
31290W        W47764  15.780   9.291  12.897  0.0339 -0.1160  0.0631
31291W        W47765  12.925  10.295  12.068 -0.0506 -0.2794 -0.1219
31292W        W47766  15.218  12.721  12.913  0.1058 -0.0800 -0.0462
31293W        W47767  15.699   4.804   3.645  0.0304 -0.1027 -0.1279
31294W        W47768   0.100  12.041  12.962  0.2786  0.1636 -0.3022
31295W        W47769   0.057  15.365   2.458  0.1690 -0.1413 -0.2094
31296W        W47770  11.197   7.042   3.646 -0.1711  0.1902 -0.2300
31297W        W47771  13.156   2.470   4.835 -0.0899 -0.1541  0.1212
31298W        W47772   0.437  17.304  11.742 -0.0269  0.2471  0.1952
31299W        W47773  15.817   3.083  10.506 -0.1339 -0.0118  0.0204
31300W        W47774  15.895  15.121   4.427  0.0721  0.0675  0.0685
31301W        W47775   7.753   5.479   2.295 -0.0745  0.0433 -0.2703
31302W        W47776  13.720  17.944  13.760  0.4976 -0.2836 -0.0165
31303W        W47777  18.696   3.598   0.633 -0.3384  0.1124 -0.1247
31304W        W47778  13.812   9.453   5.752  0.1993  0.2200  0.1282
31305W        W47779   3.190  17.269  12.901  0.1253 -0.2361 -0.2019
31306W        W47780  15.074  19.048  11.742  0.0549  0.0994  0.2310
31307W        W47781  17.433   2.082  10.911  0.1007  0.1378  0.0706
31308W        W47782  10.842  15.594  13.419  0.4984  0.1451 -0.1811
31309W        W47783  18.445   6.609   3.746 -0.1275  0.0322 -0.1771
31310W        W47784   1.435   4.018   2.628 -0.0279 -0.1567  0.2061
31311W        W47785   2.084  10.471   0.369 -0.2388  0.0149  0.2544
31312W        W47786   3.767  11.115  12.204 -0.0855  0.0080 -0.2588
31313W        W47787  18.749   5.712   3.491 -0.1184  0.1775 -0.3532
31314W        W47788   4.481  12.452  13.298  0.1437  0.1947  0.1890
31315W        W47789   8.265  12.250  12.929  0.0119  0.0345 -0.0613
31316W        W47790  11.720   3.186  12.342 -0.0089 -0.2154  0.0374
31317W        W47791   0.582   7.515  10.951 -0.1685  0.0509 -0.1321
31318W        W47792   6.587  17.184  12.419 -0.0072 -0.0253 -0.0865
31319W        W47793   0.511  13.806   4.781  0.0907  0.1771 -0.0362
31320W        W47794   4.049  16.085   1.278 -0.0534  0.1491  0.1112
31321W        W47795  18.853  11.747   2.342 -0.2678  0.1753  0.0723
31322W        W47796   6.504   3.113   1.822 -0.0437  0.2915 -0.1958
31323W        W47797   3.941   7.643   3.778 -0.1074  0.1599  0.3856
31324W        W47798  12.365  12.125  13.061 -0.1036 -0.0031 -0.0641
31325W        W47799   3.167   8.984   2.524 -0.1631  0.0725 -0.3674
31326W        W47800   8.386  15.529   1.081 -0.2993 -0.0900  0.0527
31327W        W47801  16.221   0.640   2.309 -0.2279 -0.0144 -0.1305
31328W        W47802   9.026   6.558  14.993  0.1056  0.3996  0.0202
31329W        W47803   4.735   8.103  10.643 -0.2019 -0.1795  0.2298
31330W        W47804  11.973   9.451  11.456 -0.0523  0.0936 -0.2281
31331W        W47805   3.773  18.474   3.411 -0.0855 -0.0855  0.3419
31332W        W47806  10.839   9.313   2.218 -0.0973 -0.1240 -0.1452
31333W        W47807  12.279   5.138   2.472  0.2619 -0.0063  0.4329
31334W        W47808   6.960   3.014   3.900 -0.0613 -0.1298 -0.0731
31335W        W47809   3.877   3.620   3.743 -0.0753 -0.4708 -0.0472
31336W        W47810   8.372  18.381   1.873  0.1035 -0.2992 -0.0649
31337W        W47811   6.434   7.514   3.411  0.3835 -0.0756 -0.2284
31338W        W47812  12.249   7.908  12.424 -0.1769  0.2431 -0.0163
31339W        W47813   0.802  10.520   0.096  0.6870 -0.0921  0.1301
31340W        W47814   0.851   6.707  11.326  0.0913  0.3701 -0.2458
31341W        W47815   5.276   6.503   0.481  0.1480 -0.0914  0.0302
31342W        W47816   7.716   3.186   1.542  0.0295  0.1907  0.3239
31343W        W47817   3.353   2.235  12.525  0.0680  0.0479  0.1106
31344W        W47818   0.757  17.797  13.822  0.0610 -0.0260 -0.0933
31345W        W47819  15.801  15.484  11.246 -0.5342 -0.0084 -0.0550
31346W        W47820   2.513   3.958   0.201  0.0346  0.0462  0.0809
31347W        W47821  17.776  10.889   1.611  0.1296  0.0828  0.0763
31348W        W47822   8.163  13.470  14.755  0.2070  0.0322  0.0920
31349W        W47823  16.704   2.185  13.823  0.0218 -0.0069 -0.0680
31350W        W47824  15.794   3.072  11.946  0.1655  0.1664  0.0061
31351W        W47825   2.219  16.461  14.642  0.0845 -0.0150  0.0005
31352W        W47826   0.604   7.024   2.917 -0.0948  0.2184 -0.1479
31353W        W47827  14.271  12.437   0.756 -0.1850  0.1452 -0.1456
31354W        W47828   9.427  14.108  14.297  0.0898 -0.2504  0.1869
31355W        W47829   2.233   3.612   3.010  0.0644  0.1075 -0.1364
31356W        W47830   5.706   8.411  10.936 -0.2401  0.1098  0.0072
31357W        W47831   9.038  15.432   0.169  0.3261  0.0846  0.2103
31358W        W47832  17.656   6.179   3.421  0.0868 -0.0117 -0.0207
31359W        W47833  14.175  18.221  11.233  0.1486  0.1441  0.0013
31360W        W47834   0.199   2.087  12.123  0.0924  0.3376 -0.0635
31361W        W47835  11.530   8.628  14.291  0.0338 -0.1338 -0.0854
31362W        W47836  17.391   9.022  12.947  0.0305  0.0217  0.2037
31363W        W47837  11.712  14.954   3.543 -0.3069 -0.1346  0.1942
31364W        W47838  11.811  17.716   1.851 -0.2517  0.1239 -0.0880
31365W        W47839   3.255   5.488  12.744  0.0322 -0.0165  0.1261
31366W        W47840  16.021  11.829   3.016  0.1663  0.2257  0.0758
31367W        W47841   8.178  12.241   2.322 -0.0566  0.0980 -0.0528
31368W        W47842   3.482  12.105   9.966  0.0061  0.0437  0.0800
31369W        W47843   5.403   5.354   2.951 -0.3817  0.0614  0.5016
31370W        W47844   1.715   3.708  15.087  0.2921 -0.1257  0.0823
31371W        W47845  12.101   8.187  12.038  0.2136 -0.1830  0.0037
31372W        W47846  12.693   6.279   4.314  0.1786 -0.1395  0.4413
31373W        W47847   1.968  17.860  14.365  0.2737 -0.4276  0.1526
31374W        W47848   2.744   4.628  14.425  0.3460 -0.0400  0.2512
31375W        W47849  18.847   1.205   1.770  0.1572 -0.0922 -0.1949
31376W        W47850  18.593  10.281  12.345 -0.0613  0.0428  0.1490
31377W        W47851   4.708  17.402   5.150  0.1832 -0.2038 -0.1314
31378W        W47852  17.473   5.752  12.533 -0.0053 -0.1355  0.0740
31379W        W47853  15.929   8.534  12.330 -0.0346  0.0824  0.2495
31380W        W47854   3.617  18.224   1.470  0.0935 -0.0481  0.3738
31381W        W47855   5.880   1.213  11.359 -0.0949  0.0877 -0.1697
31382W        W47856  12.917   9.955   2.220  0.0065 -0.0005 -0.0515
31383W        W47857  10.613   8.846   4.911 -0.3147 -0.0422 -0.1458
31384W        W47858  12.502   6.949  12.577  0.1957  0.0209  0.0254
31385W        W47859   5.066   9.868   0.645 -0.0230 -0.2546 -0.0356
31386W        W47860   2.109   5.445   2.663 -0.4569  0.1899  0.0120
31387W        W47861  16.886   0.128   4.325  0.0220  0.0178  0.0023
31388W        W47862  11.366   0.828   0.529 -0.2046 -0.2374 -0.3017
31389W        W47863   9.516   0.611   4.522 -0.0342 -0.0644  0.2037
31390W        W47864  10.112  12.280   3.295  0.0683  0.0207 -0.0564
31391W        W47865   7.142  11.570   0.781  0.3362 -0.2481  0.0518
31392W        W47866  12.817  10.535   2.963 -0.1467 -0.0036 -0.0074
31393W        W47867  18.991   6.227   1.698 -0.1770 -0.6227 -0.0991
31394W        W47868   1.458  15.718  13.774  0.1222  0.1015 -0.1621
31395W        W47869   2.754  19.069  13.263 -0.1067  0.1232 -0.1789
31396W        W47870  11.132  16.567   2.858 -0.3892  0.0121  0.0017
31397W        W47871  12.799  15.258  11.411  0.0967  0.2908 -0.0589
31398W        W47872   2.225   7.249   1.212 -0.1446  0.1853  0.0747
31399W        W47873   2.745   1.895   4.169  0.0164 -0.2554 -0.0870
31400W        W47874   6.482   4.140  14.655  0.0220  0.2016  0.2269
31401W        W47875  18.625   6.147   0.297 -0.1045  0.0775 -0.0927
31402W        W47876   2.671  19.050  12.003  0.2575 -0.0861 -0.1966
31403W        W47877   0.547   3.402   1.000 -0.1261 -0.0681  0.0771
31404W        W47878  18.193   7.276   0.561 -0.2152 -0.1363  0.0594
31405W        W47879   3.593   0.348   3.548 -0.1883  0.1152  0.1818
31406W        W47880   5.206  16.481  13.233 -0.0137  0.0105  0.0735
31407W        W47881   6.606   1.517  12.549 -0.2343 -0.0530  0.1895
31408W        W47882   0.127  14.842   3.483 -0.2340  0.1934 -0.0619
31409W        W47883   5.906   5.024  11.489 -0.3526  0.1027 -0.0449
31410W        W47884  12.810  18.622   4.623 -0.1760 -0.0555 -0.4232
31411W        W47885   5.083  17.391   4.475  0.0526 -0.0013 -0.1058
31412W        W47886  10.429   4.840   4.915  0.0907  0.0219 -0.2395
31413W        W47887   2.875  17.504  13.238  0.1285 -0.1524 -0.5287
31414W        W47888   7.799  11.469  13.319 -0.1500 -0.1656 -0.0185
31415W        W47889  17.216   9.141   1.219 -0.0600 -0.0487 -0.0607
31416W        W47890   2.460   5.142   9.628 -0.1475 -0.2342 -0.2186
31417W        W47891  15.085   0.137  10.799 -0.2060 -0.0954  0.0619
31418W        W47892  11.842  10.999   1.195 -0.0833 -0.0560 -0.1362
31419W        W47893  15.428  14.773  14.448 -0.0530 -0.0356 -0.1177
31420W        W47894   9.152   5.135   1.199  0.2474 -0.2315 -0.2624
31421W        W47895   2.567   8.662  11.557 -0.0004  0.0532  0.2803
31422W        W47896   3.637  14.384   1.246  0.4359  0.1074 -0.4062
31423W        W47897   6.677   9.499  13.225  0.1080 -0.2578 -0.3944
31424W        W47898   6.405  14.484  12.984  0.0118  0.2684  0.2073
31425W        W47899   1.000  17.340   4.296  0.0633 -0.0537  0.1951
31426W        W47900  10.994   6.128  13.957  0.0652  0.0725 -0.1737
31427W        W47901  12.782  17.150   3.316 -0.2680 -0.1743  0.0146
31428W        W47902   2.680   4.916   4.418 -0.1489  0.2165 -0.0468
31429W        W47903   4.762   2.518  11.954  0.1462  0.0831  0.4053
31430W        W47904   0.424   7.999   1.487  0.1929  0.0170  0.1048
31431W        W47905   0.447   3.998   3.066 -0.0825 -0.1184 -0.1242
31432W        W47906  16.566  17.124  11.645 -0.1047  0.4972 -0.0319
31433W        W47907  17.174   0.516   2.280  0.0046 -0.0344  0.2277
31434W        W47908  13.173  16.588   5.166 -0.1776 -0.0033 -0.4154
31435W        W47909  11.864  18.077   4.832 -0.1578 -0.0066 -0.3549
31436W        W47910   8.237   3.351  14.499  0.2909  0.1878  0.1268
31437W        W47911  17.085  18.013   3.813 -0.0500 -0.2561 -0.1182
31438W        W47912   6.764  10.804  12.513  0.0413 -0.0689  0.0135
31439W        W47913  17.221   0.371  15.081 -0.1086  0.0220  0.3050
31440W        W47914  13.093  18.964  11.472 -0.2861 -0.1603 -0.1651
31441W        W47915   0.438  14.362   0.731  0.0771  0.1032 -0.0731
31442W        W47916   1.449   9.255   0.065 -0.1557  0.5054 -0.0611
31443W        W47917  15.685  16.172   1.027  0.1787 -0.2299 -0.3097
31444W        W47918  16.085  17.359  13.843  0.0191 -0.1658 -0.1354
31445W        W47919  18.394  13.102  14.219  0.1073  0.1004  0.0237
31446W        W47920  10.968  12.601  15.030  0.0691  0.2125  0.0678
31447W        W47921  15.893  15.547   1.562  0.0387  0.2701  0.0669
31448W        W47922  15.672  10.809   3.160  0.2283  0.2946  0.2070
31449W        W47923  11.391  19.133   4.256  0.0118 -0.3831  0.1643
31450W        W47924  12.948   4.783   1.338  0.2667  0.2340 -0.1086
31451W        W47925   5.056  17.717   3.271 -0.0777  0.0586  0.0569
31452W        W47926  10.939  13.936  14.412  0.1831  0.1640  0.1528
31453W        W47927   5.441   8.537  12.101  0.1957 -0.0376  0.1084
31454W        W47928  13.644   2.781   4.133  0.2586 -0.2771  0.1348
31455W        W47929  11.850  13.158  12.391 -0.1026  0.2745  0.0968
31456W        W47930   4.825  18.335   4.230 -0.0458 -0.1046 -0.1578
31457W        W47931   7.627  12.543  11.625 -0.0026  0.0660 -0.0741
31458W        W47932   4.606   7.386   0.022  0.0841  0.1352  0.2612
31459W        W47933  13.540  15.742  11.130 -0.0548  0.1110  0.1095
31460W        W47934  16.650  16.062  14.196  0.2291  0.0889 -0.0548
31461W        W47935   0.752  10.824  11.576  0.1852 -0.0166  0.0655
31462W        W47936  14.072  16.688   3.607 -0.0247 -0.1552  0.0465
31463W        W47937   8.233   5.717   9.328  0.0215 -0.2963 -0.0874
31464W        W47938  14.485  14.561   4.436 -0.1998 -0.3056  0.1114
31465W        W47939  10.258  14.991   2.165  0.1034 -0.1436  0.1305
31466W        W47940  17.997  15.130   0.700  0.0078 -0.3297 -0.0482
31467W        W47941  10.634   1.200   9.808  0.3989 -0.0839  0.1721
31468W        W47942  10.456   1.494   0.408 -0.1780  0.3232 -0.0867
31469W        W47943   0.000   3.461  14.860  0.2198  0.1874 -0.0414
31470W        W47944   1.498   2.773  12.518  0.1386  0.1880  0.0001
31471W        W47945  14.709  12.043   3.628 -0.1233  0.1562 -0.3229
31472W        W47946  16.826  16.581   3.758  0.2969  0.6004 -0.0516
31473W        W47947  13.856  11.647  13.352 -0.1437 -0.1343  0.1179
31474W        W47948   4.369  13.351  10.842  0.1476 -0.2310 -0.0296
31475W        W47949   1.756  14.142  14.692 -0.0790 -0.0951 -0.2185
31476W        W47950   4.194   2.936  12.241 -0.2214 -0.4002  0.3625
31477W        W47951  15.790   5.980   1.629 -0.0252  0.2978  0.1452
31478W        W47952   5.827  16.112   3.392  0.1001 -0.0535 -0.1802
31479W        W47953  12.291  14.583  13.196  0.0792  0.0359  0.3202
31480W        W47954   1.660  16.745   4.054  0.2104  0.1646  0.0458
31481W        W47955   5.110  10.608   0.268 -0.3245  0.1870  0.2232
31482W        W47956   0.881   7.807   2.204  0.0435 -0.1016  0.0012
31483W        W47957   4.665   5.342   3.266 -0.1375  0.0330  0.3524
31484W        W47958   2.147   5.711  10.322  0.1304  0.0650 -0.0633
31485W        W47959  18.669   9.852   2.098 -0.0040  0.3810  0.0305
31486W        W47960   8.004  14.486  14.400 -0.1585 -0.0638  0.0805
31487W        W47961   1.648  16.670   3.011 -0.2152 -0.0930 -0.1380
31488W        W47962   7.295   4.962  10.248 -0.0501 -0.3437  0.2082
31489W        W47963   7.869   4.769   1.291 -0.2501 -0.2812 -0.1128
31490W        W47964   1.622   6.977  13.382  0.3251  0.2930  0.2614
31491W        W47965  18.564  11.293   3.953  0.1518 -0.0276 -0.0582
31492W        W47966   7.014   0.292  13.061 -0.2436  0.0631  0.0096
31493W        W47967   9.092   6.247  11.220 -0.0522 -0.1813 -0.1199
31494W        W47968   6.036   3.800   1.277 -0.0485  0.1171 -0.3155
31495W        W47969  16.258   4.771  14.957 -0.0124 -0.1329  0.2520
31496W        W47970   0.835  15.373  14.375 -0.0463 -0.3115  0.1938
31497W        W47971   1.396  14.420   3.376 -0.0519 -0.0221 -0.2967
31498W        W47972   1.079  17.739  13.382 -0.3627 -0.0991 -0.1417
31499W        W47973  14.915   2.367  14.541  0.1788  0.1109  0.2867
31500W        W47974   5.086  19.151  13.290  0.0365 -0.0959 -0.1601
31501W        W47975   6.377   2.969   4.479 -0.0123 -0.2437  0.1791
31502W        W47976  10.020   6.373   2.538 -0.0811 -0.3296  0.1553
31503W        W47977  18.768  10.636   4.513  0.0911 -0.0243  0.1343
31504W        W47978   9.313  18.723  12.233 -0.3163  0.2684 -0.1875
31505W        W47979  10.134   4.342   2.569  0.0736 -0.1987 -0.1003
31506W        W47980   2.322  17.227   4.104  0.3096  0.0358  0.1312
31507W        W47981   1.586  14.247   3.930  0.1481  0.1009  0.2316
31508W        W47982   6.088   0.122   1.986  0.0132 -0.1273  0.1497
31509W        W47983  14.796  15.294  14.551 -0.1140 -0.0087 -0.1152
31510W        W47984  13.568   8.946   2.726 -0.0708 -0.0343 -0.0347
31511W        W47985  14.367  14.395   1.751 -0.0485  0.1216  0.1537
31512W        W47986   9.360   9.148   1.124  0.2342 -0.1385 -0.0574
31513W        W47987   5.280  11.961  14.742  0.1996 -0.2371  0.0085
31514W        W47988  14.736  14.981   0.232  0.3045 -0.1381 -0.0323
31515W        W47989   0.035   3.744   0.508 -0.0322  0.0458  0.2897
31516W        W47990  12.402  18.553  12.969 -0.0226  0.1998  0.1067
31517W        W47991  16.004  14.187   1.391 -0.2346 -0.0511 -0.0607
31518W        W47992  17.182   8.813  11.119  0.0306 -0.0639  0.1722
31519W        W47993   1.940  10.355   4.303  0.2565 -0.1427  0.2503
31520W        W47994   6.156   2.720  12.842 -0.2367  0.1111 -0.4258
31521W        W47995  14.883  12.696   2.873 -0.1026  0.2543  0.0975
31522W        W47996  16.317  13.760  13.994  0.0618  0.0672  0.1761
31523W        W47997  14.567   2.686   4.328  0.2515 -0.1329  0.0034
31524W        W47998  17.898  15.216   0.098  0.0273  0.1119 -0.2171
31525W        W47999   5.049  16.322   3.784  0.0945  0.1525  0.0460
31526W        W48000  14.613   7.020  12.699 -0.1387  0.0212 -0.1184
31527W        W48001  16.767   5.604  14.492  0.0383 -0.0919 -0.0911
31528W        W48002   5.629  11.904  13.412 -0.2170  0.0222  0.0765
31529W        W48003  17.776  16.569   0.299  0.2066  0.5679  0.4199
31530W        W48004   8.590   3.773  11.212 -0.1143  0.0142 -0.0111
31531W        W48005  15.357   5.317  13.187 -0.2593 -0.1261  0.0393
31532W        W48006  13.719  15.125  10.757 -0.1787 -0.0123 -0.0652
31533W        W48007   8.223   4.775  12.428 -0.0110  0.2460 -0.1341
31534W        W48008  10.603  17.937   0.045 -0.1939  0.0429  0.1660
31535W        W48009  10.933   9.331   4.814  0.1496  0.2427 -0.1177
31536W        W48010   4.491  10.618  13.149  0.0377  0.1510 -0.0401
31537W        W48011   5.875   3.871  11.075 -0.1753  0.1072 -0.0414
31538W        W48012  16.507   8.262   9.346 -0.2806  0.2195 -0.0422
31539W        W48013   0.457   2.579  12.192 -0.1237 -0.0542  0.0152
31540W        W48014   0.228   4.343   2.374 -0.2340  0.0936 -0.1076
31541W        W48015  16.250  10.769  11.281 -0.0383 -0.0028 -0.3827
31542W        W48016   6.981  10.727  13.545 -0.0815  0.0944  0.2893
31543W        W48017   5.847   4.459   5.703  0.0341 -0.1069  0.4591
31544W        W48018  10.103  12.171   0.051 -0.0705  0.3620  0.0394
31545W        W48019  15.033   3.390  11.479  0.1421 -0.3450  0.0447
31546W        W48020  15.186  17.453   0.668 -0.0006 -0.2371  0.2760
31547W        W48021   6.762   3.114  10.451 -0.2019 -0.0218  0.0492
31548W        W48022  15.918   0.893  12.780  0.1582  0.2256 -0.1632
31549W        W48023  17.455   4.238  13.820  0.0280  0.4119 -0.1604
31550W        W48024  15.516  10.367  11.684 -0.1598 -0.1645 -0.1679
31551W        W48025   7.239   8.664   1.612 -0.1830 -0.0020 -0.2176
31552W        W48026   5.574  10.118  11.528  0.0301  0.1088 -0.0937
31553W        W48027   6.175  16.787   5.242 -0.0938 -0.1123  0.0083
31554W        W48028   0.521  15.998  13.658 -0.0732 -0.0697  0.2770
31555W        W48029  11.718   7.702   3.506 -0.0331  0.2165 -0.1081
31556W        W48030  17.993  19.000   0.018 -0.0943  0.0515  0.0734
31557W        W48031   4.225   9.455   2.563  0.3301  0.0887 -0.0511
31558W        W48032  16.002   4.529   0.418  0.4723  0.1958 -0.2573
31559W        W48033   8.165  12.819  12.949  0.0202 -0.0314 -0.0116
31560W        W48034  11.021   2.829   1.407  0.2055  0.1685  0.0654
31561W        W48035  10.120  17.384  13.983 -0.3006  0.1349  0.0758
31562W        W48036  14.324  16.635  13.124  0.1532 -0.1293  0.2677
31563W        W48037   0.556  16.487  11.985  0.2699  0.1404 -0.0690
31564W        W48038   9.587  13.670  14.019  0.0852 -0.1212  0.1135
31565W        W48039   0.753   4.738  10.559 -0.0804  0.0217  0.0880
31566W        W48040  16.906  10.373   3.914  0.0358  0.0327 -0.0205
31567W        W48041   1.047   8.127   0.387  0.0344 -0.2507 -0.1435
31568W        W48042  10.478   6.542   3.420 -0.4289 -0.3420  0.0275
31569W        W48043  10.862   9.266   1.064 -0.4092 -0.0890  0.0263
31570W        W48044  19.128   5.620   0.982 -0.1854  0.1664  0.0902
31571W        W48045  11.987  14.510   0.913  0.1342 -0.0272 -0.3121
31572W        W48046  15.609  16.015  13.995 -0.1451 -0.0992 -0.1946
31573W        W48047   2.258  16.403   3.110  0.1327  0.0865 -0.0249
31574W        W48048   7.084   8.325   4.078  0.1493 -0.1944  0.0070
31575W        W48049  16.539  14.097   5.106  0.5172  0.3026 -0.1354
31576W        W48050  13.703   6.347   2.665 -0.4696 -0.5416 -0.1719
31577W        W48051   2.351  12.385  13.278 -0.0106  0.0116  0.0846
31578W        W48052  13.952  15.543   1.201  0.0456 -0.2761  0.0525
31579W        W48053   2.752   8.815   4.135  0.0763  0.2316 -0.0346
31580W        W48054   7.351  11.449  13.823 -0.4034 -0.0434 -0.0538
31581W        W48055  13.772   6.115   3.226 -0.2019  0.0229 -0.1994
31582W        W48056  10.916   3.301  15.134 -0.2968  0.1233 -0.0587
31583W        W48057  12.585   7.833  14.482 -0.1182 -0.1098  0.1560
31584W        W48058   9.771   6.746   3.104 -0.1221 -0.1893 -0.1187
31585W        W48059   3.699   1.959   3.975 -0.0170  0.0869  0.0139
31586W        W48060   1.570   9.459  14.233  0.0023 -0.1017  0.1695
31587W        W48061   9.978   3.951  10.291 -0.1752  0.0613  0.1241
31588W        W48062   1.716  18.723   9.924 -0.1537 -0.2079  0.0137
31589W        W48063   8.498  10.690   3.421  0.3114 -0.2744 -0.1804
31590W        W48064  14.927   7.210  14.487  0.1661  0.1494  0.0673
31591W        W48065   8.834  16.380   2.549  0.0865 -0.2174 -0.0556
31592W        W48066   8.641  14.854  11.129 -0.0768  0.1724  0.0381
31593W        W48067   7.068   6.477  12.855 -0.0743 -0.2155 -0.0854
31594W        W48068   6.930   6.666   2.648 -0.0594 -0.2033 -0.1104
31595W        W48069   4.783  14.695  15.065 -0.2775 -0.1105  0.3400
31596W        W48070  16.101  10.016  10.236 -0.4419 -0.3642  0.0662
31597W        W48071  18.620   9.429  13.499 -0.0840  0.1140 -0.0216
31598W        W48072   3.601  10.607   0.333  0.1329  0.0095 -0.0905
31599W        W48073   0.061   8.756   3.904  0.1114 -0.0696  0.2681
31600W        W48074  14.981   3.652  10.503  0.0460 -0.2374  0.4477
31601W        W48075   2.797  10.170   0.768 -0.0065  0.0126  0.2745
31602W        W48076   6.409   3.683  13.446 -0.0503 -0.0043 -0.3115
31603W        W48077   1.070   0.054  13.275 -0.0937  0.0814 -0.0513
31604W        W48078   6.509  12.598   2.407  0.0550  0.0203 -0.0085
31605W        W48079   8.888   2.902   0.015 -0.1636  0.1736 -0.2097
31606W        W48080   6.265   8.306  13.834  0.0717 -0.0138  0.0693
31607W        W48081  11.758   2.780   4.351  0.0291 -0.0613  0.0946
31608W        W48082   6.750  14.525   4.372  0.2747 -0.1253  0.0143
31609W        W48083   8.752   6.811  13.326  0.1269 -0.1453  0.4412
31610W        W48084  12.525   0.275  10.881 -0.1032  0.4495 -0.1553
31611W        W48085   9.896   9.280  11.055 -0.0678 -0.1176 -0.1329
31612W        W48086   9.406  12.599   2.831 -0.2252  0.4399  0.0850
31613W        W48087   7.610  10.552  13.410  0.0949 -0.1020  0.2906
31614W        W48088   4.775   6.055   0.938  0.0567 -0.3995 -0.1311
31615W        W48089  14.127   1.125  13.744 -0.0150 -0.1295 -0.1135
31616W        W48090  11.419  12.207   0.715 -0.0541 -0.0277  0.0307
31617W        W48091   8.272   6.864   4.743  0.1230 -0.0014  0.0911
31618W        W48092  11.680  12.150   4.690  0.0175  0.1020 -0.3282
31619W        W48093   3.201  18.339  12.778  0.2968  0.2196  0.0853
31620W        W48094  18.426  12.648  11.814  0.1403  0.0715 -0.0367
31621W        W48095   7.283  17.321   3.865 -0.2311 -0.0936 -0.0767
31622W        W48096   5.892   0.673   4.060  0.2087  0.0364  0.1244
31623W        W48097   8.631   7.739   5.095 -0.2569  0.1008  0.3178
31624W        W48098  12.389   9.871   5.081 -0.1183  0.2714 -0.0275
31625W        W48099   6.532  10.993  13.353 -0.1459 -0.0219  0.2379
31626W        W48100   5.457  13.654   0.267  0.1187 -0.5015 -0.4705
31627W        W48101  10.634  15.140  12.166 -0.2365  0.4526 -0.0423
31628W        W48102  12.476   2.825  12.655  0.2632  0.0035  0.1680
31629W        W48103   9.375   4.640  14.676  0.0908  0.1005  0.3889
31630W        W48104  15.648   2.459   0.336  0.2241  0.0255 -0.0203
31631W        W48105   9.565  11.839   3.377 -0.4605 -0.0513 -0.0391
31632W        W48106   5.872  14.522   4.037  0.0670  0.1716 -0.2783
31633W        W48107   4.421   6.804  14.537  0.0307 -0.2022  0.1330
31634W        W48108  11.733   3.252   3.516 -0.2307 -0.1204 -0.2762
31635W        W48109  11.966  16.973   3.597  0.2479  0.1837  0.3305
31636W        W48110  11.040   5.917  13.141 -0.3545  0.1513 -0.1950
31637W        W48111   3.194  17.372   3.867 -0.1898  0.0974 -0.0838
31638W        W48112  14.095   3.595  14.148  0.1421 -0.0524 -0.0109
31639W        W48113  12.585  18.735   1.879  0.0319 -0.0957 -0.2639
31640W        W48114   7.640  16.475   3.945 -0.0820 -0.1075  0.2303
31641W        W48115  16.223   3.332  11.416  0.1486  0.3212  0.1458
31642W        W48116   7.384   5.112  14.166 -0.1431 -0.1791  0.1324
31643W        W48117   1.749   4.843  13.482 -0.1944  0.0808 -0.3683
31644W        W48118  13.265   2.634   2.260  0.0141 -0.1870 -0.3135
31645W        W48119   1.389  19.063  11.599  0.1018  0.1053  0.1556
31646W        W48120  10.689   3.343  10.353  0.1224  0.2067  0.2401
31647W        W48121   1.319   0.691  14.352 -0.2991 -0.0342  0.2305
31648W        W48122   9.346  11.466   1.441 -0.0979  0.0532 -0.1712
31649W        W48123   0.114  14.404   2.819  0.2042  0.2895  0.0734
31650W        W48124   7.756   9.546  11.756 -0.2471  0.1333  0.2907
31651W        W48125  15.703  17.237   4.076  0.1056 -0.4920 -0.0073
31652W        W48126   1.440   7.369  15.070  0.0329  0.1016  0.0040
31653W        W48127   8.786  14.750   9.709 -0.0684  0.1601 -0.0340
31654W        W48128   3.835   1.028  10.316 -0.1280  0.0459  0.4045
31655W        W48129   9.351  14.429  12.420 -0.0198  0.2957  0.2700
31656W        W48130  10.372  15.302   0.788  0.0414 -0.0506  0.0662
31657W        W48131  14.323  17.480   4.426 -0.0433  0.1262  0.0406
31658W        W48132  15.679   9.377  13.387  0.1848 -0.1112  0.0216
31659W        W48133   3.728   5.644  12.275  0.1271  0.3650  0.1391
31660W        W48134   2.553   9.755  14.180 -0.2719 -0.0302  0.0229
31661W        W48135   7.540  10.709   0.908  0.0687  0.0122  0.1505
31662W        W48136  15.948  10.115   1.412 -0.0375 -0.1062 -0.2788
31663W        W48137   2.014  15.955  13.026 -0.0192 -0.0016  0.0808
31664W        W48138   2.333  11.162  11.809  0.0816 -0.1233  0.0993
31665W        W48139  18.520  10.739  11.553 -0.0398 -0.1638  0.2812
31666W        W48140  16.824  11.202   1.283  0.1380 -0.0988 -0.2143
31667W        W48141   4.512  13.835  13.396 -0.0569 -0.1928  0.1136
31668W        W48142   7.136  14.570   0.985  0.0769 -0.0110  0.1246
31669W        W48143  17.293  16.743  12.332  0.0873 -0.0373 -0.1056
31670W        W48144   3.910   5.867   5.278  0.2256  0.2404 -0.2347
31671W        W48145  12.291   4.361  14.247  0.0752  0.0110 -0.1498
31672W        W48146  18.329  12.274  11.478 -0.0095 -0.1723  0.0287
31673W        W48147   2.787  18.278   4.726  0.2161  0.1760 -0.2820
31674W        W48148   7.497   7.742   1.358 -0.1449 -0.2255  0.0046
31675W        W48149   8.204   6.013   0.228 -0.2551 -0.2836  0.0456
31676W        W48150   0.587  11.564  14.003  0.0093  0.0333  0.0946
31677W        W48151   8.450  13.809  10.066  0.0266 -0.2047  0.1184
31678W        W48152  12.692  10.903   2.365  0.1492  0.1494  0.0872
31679W        W48153  17.934  10.164   2.125 -0.1037  0.0036 -0.0129
31680W        W48154  15.137  17.249   1.109 -0.1493  0.0839  0.3698
31681W        W48155  10.504   4.978   0.563  0.0398 -0.1225 -0.0715
31682W        W48156   9.158   9.804   5.643  0.3426  0.2037  0.1499
31683W        W48157  13.242  17.685   0.455 -0.1170  0.0728  0.1260
31684W        W48158   8.510   6.489   3.665 -0.1453 -0.0429 -0.0139
31685W        W48159   0.377   3.186   3.817 -0.3446  0.0043  0.0610
31686W        W48160   1.445   0.317  11.954 -0.0527  0.1508 -0.1228
31687W        W48161   6.378   4.032  10.570  0.0524  0.2273 -0.1870
31688W        W48162  10.072   3.700  14.927  0.0405 -0.1709 -0.0061
31689W        W48163  11.027  14.425   0.399 -0.1587 -0.4131 -0.0020
31690W        W48164  17.032   6.976  11.644 -0.0380  0.0760  0.0466
31691W        W48165   6.539   0.187  13.395 -0.0211  0.1532 -0.1199
31692W        W48166   4.211  14.450   2.979  0.4085 -0.1199 -0.3431
31693W        W48167   7.283  15.839   0.423  0.0324  0.1417  0.1508
31694W        W48168  15.046   1.314  11.197 -0.0079 -0.0144  0.2940
31695W        W48169  18.413   0.343   5.439 -0.4351  0.0039  0.0584
31696W        W48170   6.839  13.590   0.578 -0.1703 -0.1327  0.0115
31697W        W48171  14.454   6.950   0.172  0.4117 -0.0818  0.2109
31698W        W48172  10.204   3.361  11.029  0.0632 -0.1899 -0.0333
31699W        W48173   0.703  10.741   1.388 -0.0285  0.0445 -0.0712
31700W        W48174   1.806   2.834   4.844 -0.3809  0.1572 -0.0136
31701W        W48175  11.214   1.813  13.882  0.1068  0.0717 -0.0062
31702W        W48176   9.924   3.333   0.597  0.2549  0.2790 -0.2167
31703W        W48177   4.055   0.668  13.533 -0.2962  0.1925  0.2916
31704W        W48178   7.544   5.313  10.490 -0.2740 -0.1843  0.1418
31705W        W48179  13.657   1.400  10.611  0.6715  0.0910 -0.3740
31706W        W48180   0.999  10.463  12.861  0.4538  0.1264 -0.0227
31707W        W48181  16.360  17.616  13.517  0.0006 -0.0901 -0.0973
31708W        W48182  12.458  11.383   5.674 -0.1741 -0.2507 -0.1313
31709W        W48183   8.155   2.201  14.588 -0.1638 -0.1405 -0.1481
31710W        W48184   8.595  12.096   3.710 -0.0127 -0.2578  0.1677
31711W        W48185  16.425   5.676  12.603  0.3029 -0.1521  0.0284
31712W        W48186  12.489   4.231   2.189 -0.0671 -0.0952  0.1087
31713W        W48187   6.844   9.437   2.366  0.1017  0.0905 -0.0779
31714W        W48188  15.375   9.559   4.862 -0.4471 -0.1366 -0.0321
31715W        W48189   4.339   1.464  13.922 -0.0603  0.2369 -0.1632
31716W        W48190   5.502  15.860   2.546 -0.0089 -0.1623 -0.2985
31717W        W48191   2.864   9.894  11.037 -0.0648  0.1230 -0.1529
31718W        W48192  10.259   0.869   9.906  0.0889  0.2693  0.0842
31719W        W48193  10.130   8.655   1.029  0.4780  0.3597  0.2394
31720W        W48194  10.434  17.705  13.108 -0.0441 -0.1051 -0.0996
31721W        W48195   7.970  13.175   2.161 -0.0682 -0.1084  0.3635
31722W        W48196  13.278  14.852   0.055 -0.2097  0.0442 -0.2113
31723W        W48197   3.438  12.299  13.172 -0.4000  0.1152  0.1557
31724W        W48198   3.830  12.074  13.599 -0.1445 -0.3171 -0.0806
31725W        W48199   5.923   7.865   2.568 -0.2303  0.1402  0.0276
31726W        W48200  16.281   7.791   5.610  0.1138 -0.0722  0.1141
31727W        W48201   6.844   4.598  10.919  0.0597  0.2293 -0.0431
31728W        W48202  11.946   7.699  12.104 -0.1569 -0.0375 -0.0642
31729W        W48203   1.498   8.144  10.338  0.0156 -0.3603 -0.2403
31730W        W48204  18.639   9.719  11.098  0.0489 -0.0234  0.0034
31731W        W48205  10.767   1.866  13.115  0.1138  0.0134 -0.1273
31732W        W48206  11.778   8.062  15.027  0.2392  0.0206  0.2158
31733W        W48207   2.734   8.256   4.824 -0.1795 -0.1925 -0.0724
31734W        W48208   0.148   0.616   2.860  0.0989  0.1737 -0.0256
31735W        W48209  16.974   1.329  13.866 -0.1719  0.0021 -0.3016
31736W        W48210  14.350  13.338   3.330  0.1215  0.0117 -0.0182
31737W        W48211   1.398  11.102   5.391  0.1807  0.0964  0.2548
31738W        W48212  18.646  17.095   5.022 -0.0133  0.1084 -0.2958
31739W        W48213   0.145   3.362  14.372  0.0949  0.1087  0.1871
31740W        W48214  15.407   1.226  11.622  0.0250  0.0117  0.0421
31741W        W48215  16.485   2.619   5.036  0.1653  0.0929 -0.1673
31742W        W48216  13.193   3.110  12.715  0.0828  0.0092  0.4396
31743W        W48217  14.545  15.726  14.556  0.2600  0.0030 -0.2111
31744W        W48218   2.909   8.614  11.988  0.2006  0.0775 -0.1216
31745W        W48219  12.899   6.621   2.376 -0.1192 -0.0513 -0.0144
31746W        W48220   4.950  18.694   2.475 -0.0281 -0.0956  0.1183
31747W        W48221   2.405  16.981   2.345  0.1980 -0.0011  0.0513
31748W        W48222  17.971   4.306  15.149  0.0878  0.0781 -0.0317
31749W        W48223   1.808  12.280   2.886 -0.1211  0.0412  0.0545
31750W        W48224   9.091   7.777   1.941  0.0632 -0.2348  0.0702
31751W        W48225   2.079  17.971   1.076 -0.0038 -0.0932 -0.0091
31752W        W48226   4.888   7.599   1.936  0.0265 -0.2803  0.2031
31753W        W48227   5.183  12.515   2.762  0.1687  0.1023  0.0659
31754W        W48228   7.883   7.595  11.111  0.2577 -0.1250  0.0677
31755W        W48229  11.435  10.275   2.072 -0.0751  0.2940 -0.3433
31756W        W48230  16.864  11.566   3.325  0.0783  0.1830  0.0209
31757W        W48231   8.127  11.854  14.978  0.0015  0.1062 -0.0000
31758W        W48232   6.398   1.867  14.716 -0.0234 -0.0478  0.0424
31759W        W48233  11.713  15.614  12.634 -0.0394 -0.0018  0.0923
31760W        W48234  13.278  13.302   1.649 -0.0597 -0.0686 -0.2044
31761W        W48235  13.990  10.398  11.984 -0.0375  0.4285 -0.2262
31762W        W48236  17.013  16.740   4.282  0.2530  0.1184 -0.1973
31763W        W48237  18.895   7.582   2.374 -0.2048  0.1109 -0.0750
31764W        W48238  12.682   4.027  14.216 -0.3906  0.1699 -0.1336
31765W        W48239   5.407   7.471  11.211 -0.1440 -0.1271  0.2409
31766W        W48240  12.843   9.934   4.235 -0.3120 -0.0854  0.2767
31767W        W48241  14.053   3.868   4.765  0.1290 -0.1643  0.1232
31768W        W48242   4.436  14.000   2.883  0.2154  0.0720 -0.3202
31769W        W48243  10.012  17.293   0.950  0.1786  0.2492  0.2624
31770W        W48244  14.395   1.828  13.380  0.0605  0.1061 -0.2969
31771W        W48245  16.028  19.085  13.373 -0.1478 -0.1230 -0.0356
31772W        W48246  11.682  13.349  11.975  0.1335  0.1455  0.3683
31773W        W48247   2.213  11.005  14.893  0.1487 -0.0669  0.2765
31774W        W48248  11.954   9.927   2.621 -0.2077  0.0962 -0.0157
31775W        W48249   3.896  14.191  11.444  0.0398 -0.4610 -0.0292
31776W        W48250   9.205  11.297   2.795  0.0141 -0.1250 -0.0282
31777W        W48251  14.392   0.373   1.096 -0.0823  0.1197  0.2174
31778W        W48252  18.093   0.408   2.017  0.1768  0.1529  0.2227
31779W        W48253  12.122   0.275  13.931 -0.0144  0.1639  0.0755
31780W        W48254   6.295   9.992  13.933  0.0656  0.2335  0.2433
31781W        W48255  18.450   8.003   4.553 -0.0707  0.0036 -0.2751
31782W        W48256  16.363   2.846   4.378  0.4048 -0.0426 -0.0518
31783W        W48257   5.444  17.902   2.817 -0.1532  0.3641 -0.2051
31784W        W48258  17.492  10.153  13.827  0.0833  0.0892 -0.2320
31785W        W48259  10.065  16.112   0.765 -0.1874  0.2620 -0.1400
31786W        W48260   4.103  15.777   0.171 -0.1697  0.0740  0.3091
31787W        W48261   2.524  14.630  11.465 -0.0070 -0.1431  0.0236
31788W        W48262   6.416  18.848   1.992  0.5293  0.0875 -0.1835
31789W        W48263  11.200   8.980  12.643 -0.0009  0.1174 -0.3407
31790W        W48264  17.181  16.566  14.628 -0.1650  0.1780 -0.1355
31791W        W48265  13.371   6.696   2.947 -0.0941  0.5875  0.0162
31792W        W48266  11.783  18.636  11.078 -0.0432  0.0382  0.4508
31793W        W48267  13.417  10.109   4.120 -0.3923 -0.3195  0.2345
31794W        W48268  10.865  10.371   2.643  0.0442  0.2555 -0.2284
31795W        W48269   3.713  12.089   0.773  0.0898  0.0603  0.0910
31796W        W48270   6.247   9.509   2.483 -0.0283 -0.2375 -0.1634
31797W        W48271  16.383   4.331  13.802  0.0872 -0.0919  0.1204
31798W        W48272  12.702   0.726   9.575  0.0698 -0.1544  0.0430
31799W        W48273  15.731   7.653  14.732  0.0330  0.0134  0.3752
31800W        W48274   4.305   7.738  11.308  0.1343  0.2648 -0.0603
31801W        W48275  15.387   2.757   4.451 -0.0330 -0.1141  0.0368
31802W        W48276   0.571  12.444  11.920  0.1498  0.0085 -0.0489
31803W        W48277  18.730   0.019  14.500  0.0586 -0.0574 -0.1036
31804W        W48278   1.925   4.106   0.293 -0.0965 -0.0705  0.2375
31805W        W48279  15.012   0.333  12.251  0.3014  0.1176 -0.4422
31806W        W48280   9.800  18.051  13.614 -0.1540  0.1062  0.1617
31807W        W48281   9.431  15.067   5.377 -0.2631 -0.2929 -0.0716
31808W        W48282   3.274  13.345  14.043  0.0659  0.1002  0.1267
31809W        W48283   5.441  19.027  10.761 -0.0989  0.0618  0.3003
31810W        W48284  14.305   2.442   2.189  0.1261  0.0213 -0.0771
31811W        W48285  16.200   5.074   2.612 -0.0639  0.0992 -0.0237
31812W        W48286  16.837  12.096   4.820  0.0592  0.4445  0.0112
31813W        W48287   4.027  15.291  14.843  0.2830  0.0031  0.4200
31814W        W48288   5.316   7.225  12.967  0.0952  0.2955  0.3807
31815W        W48289   5.266   1.506   2.646  0.1251 -0.0443  0.2443
31816W        W48290   3.637   0.557  10.383  0.5484 -0.1769 -0.2937
31817W        W48291   3.124  18.281   2.842 -0.0435 -0.3974 -0.1202
31818W        W48292   8.890  10.374  14.835 -0.1065  0.1336  0.3047
31819W        W48293  13.634   7.420  12.168  0.3146 -0.0952 -0.1122
31820W        W48294  13.804  12.261   2.893  0.2316  0.2417 -0.0532
31821W        W48295   1.939  12.087   1.436 -0.3077 -0.1455  0.1951
31822W        W48296   4.648  13.301  13.631  0.0711  0.2534  0.2198
31823W        W48297   6.131   2.966   3.518 -0.2965 -0.1307 -0.0181
31824W        W48298  13.154   5.496  12.574 -0.0260 -0.0232  0.6832
31825W        W48299  11.083   6.282  10.593 -0.0934 -0.2893 -0.1755
31826W        W48300   8.844   2.011   0.954  0.1375  0.2599  0.2884
31827W        W48301   1.374   8.263  14.357 -0.3137  0.2090  0.2525
31828W        W48302  11.335  12.593  13.800 -0.0340 -0.0887 -0.0871
31829W        W48303   1.249  18.081   1.238  0.2210 -0.0993  0.0648
31830W        W48304   9.921  12.552  14.319 -0.0683 -0.0857  0.0242
31831W        W48305  15.120   2.783  13.911 -0.0605  0.0659 -0.0503
31832W        W48306  12.002   8.235   0.308 -0.0604  0.0682  0.0131
31833W        W48307   3.826  12.165   3.498  0.1768  0.1987 -0.0469
31834W        W48308   6.859   3.694   1.129  0.1384 -0.1932  0.0670
31835W        W48309  12.877   5.779   2.000  0.4798 -0.0047  0.0445
31836W        W48310   8.060   6.610  12.251  0.2035 -0.0070 -0.0321
31837W        W48311  13.841   0.220  15.131 -0.1569 -0.0444  0.1561
31838W        W48312  10.481  18.544  10.650 -0.1549 -0.3187 -0.1689
31839W        W48313  11.595   7.871  11.029 -0.1685 -0.1566  0.2654
31840W        W48314  11.228   8.620  11.329 -0.3202  0.1062 -0.2726
31841W        W48315  12.631   3.366   0.720  0.1548  0.0173  0.0050
31842W        W48316   8.828   4.273   3.024  0.3014  0.2930 -0.2158
31843W        W48317  15.993  10.212  13.326 -0.1071  0.2104 -0.1915
31844W        W48318  12.906  11.472   3.649 -0.1487  0.4215  0.0174
31845W        W48319  12.131   3.019  13.980 -0.1730 -0.0494 -0.2291
31846W        W48320   3.135  13.895  12.610  0.1273 -0.6053 -0.2357
31847W        W48321   9.894   0.431  11.482 -0.0081  0.0690  0.0275
31848W        W48322   7.516   0.914  14.711 -0.0490  0.1211  0.1188
31849W        W48323  10.879   9.909   1.821  0.0387 -0.0130  0.1110
31850W        W48324   0.274  17.057   3.709  0.1782  0.0500 -0.2298
31851W        W48325   1.529  19.112   4.577 -0.0305  0.2468  0.2169
31852W        W48326   5.557  17.301  12.137 -0.0821 -0.0513  0.0851
31853W        W48327   1.238  14.214   5.363  0.0873 -0.1555  0.0622
31854W        W48328   7.126   2.728   3.341 -0.0333 -0.0606  0.0094
31855W        W48329   9.595   9.583  14.251  0.2196  0.3392 -0.0290
31856W        W48330   8.384   1.790   4.811  0.1268 -0.2290 -0.2257
31857W        W48331  15.746  10.002  12.496 -0.2977  0.1713 -0.1612
31858W        W48332  15.274  17.913  12.879  0.1429  0.0557 -0.2625
31859W        W48333   6.731  17.904  14.900  0.1062 -0.0239 -0.0031
31860W        W48334  11.076  15.632   4.481  0.0885  0.1198  0.0891
31861W        W48335   7.544   4.689   2.076  0.1395 -0.4437 -0.0824
31862W        W48336   6.135  11.377   1.824  0.2189  0.0020  0.0921
31863W        W48337   5.354  15.098   1.806 -0.0147 -0.2150  0.0766
31864W        W48338   9.468   9.890  11.488  0.1916  0.1441 -0.2023
31865W        W48339   7.274   1.898   1.696 -0.1523 -0.1199 -0.1904
31866W        W48340  15.345   6.007  12.759 -0.1601 -0.0212  0.0927
31867W        W48341  14.204   6.030  13.423 -0.1317 -0.2989 -0.3006
31868W        W48342  12.632   7.655  14.968  0.0340 -0.3059  0.1121
31869W        W48343  12.687  12.143   3.778 -0.1228 -0.0621  0.0254
31870W        W48344   6.313  18.548   2.408  0.2735  0.3039 -0.1229
31871W        W48345   4.493   1.990   2.787  0.1058 -0.0488 -0.1226
31872W        W48346   3.458   2.881  14.280  0.4578 -0.0289  0.1840
31873W        W48347  15.160   8.676  12.964 -0.2913 -0.0167  0.0918
31874W        W48348   8.864  15.913   4.119 -0.2151  0.5145  0.2349
31875W        W48349   6.491   5.515  10.982 -0.2412  0.3270  0.0772
31876W        W48350  11.998   2.285   2.190  0.2461 -0.2344  0.0995
31877W        W48351   7.064   1.418   5.241 -0.0873 -0.1752 -0.0808
31878W        W48352   7.768   7.009   2.020 -0.0597 -0.0320 -0.0661
31879W        W48353   5.048   6.140  11.159  0.1843 -0.1744  0.1892
31880W        W48354  12.239  13.845   3.842  0.0343  0.2685 -0.2350
31881W        W48355  11.597  16.256   4.791 -0.1764 -0.1106  0.0658
31882W        W48356  16.662  11.246  13.601  0.1606 -0.1127  0.0337
31883W        W48357  12.552   0.134  12.138  0.0021  0.2114 -0.2171
31884W        W48358  10.239  11.526  11.360  0.1644 -0.0589 -0.1238
31885W        W48359   9.973   2.973  10.892 -0.4580  0.2414 -0.5097
31886W        W48360  10.995  16.754  10.624  0.0667 -0.2521 -0.0477
31887W        W48361  11.521   3.884   2.985  0.2363 -0.0163 -0.2216
31888W        W48362  12.576   2.493   9.128  0.1409 -0.0698 -0.0518
31889W        W48363  16.669   2.903   3.557 -0.2677  0.0857 -0.0474
31890W        W48364  13.034   6.968   4.864  0.0001 -0.0998  0.0888
31891W        W48365   2.193   4.842   0.932 -0.4376 -0.4755 -0.0977
31892W        W48366  17.964   5.193   1.742  0.0827 -0.0381  0.1528
31893W        W48367   0.285  12.264   4.770  0.1191  0.1453 -0.1050
31894W        W48368   8.290   4.880   2.436  0.0468 -0.2862  0.0598
31895W        W48369   7.825   1.115   1.620  0.1252 -0.2091 -0.0914
31896W        W48370   3.433   1.241   4.629  0.0497 -0.1911 -0.0638
31897W        W48371   4.130  13.307  14.946  0.1203  0.0079  0.1837
31898W        W48372   9.253   1.814   3.245  0.0041  0.1798 -0.0064
31899W        W48373   5.337  16.055   4.349 -0.0532 -0.1213 -0.3034
31900W        W48374  10.639   4.686  12.643  0.2385 -0.3096 -0.1813
31901W        W48375   0.346  18.525   4.294  0.2273 -0.1534  0.0420
31902W        W48376  16.500  18.951   4.072 -0.2526  0.2493  0.3308
31903W        W48377  13.149  17.626  11.142  0.0463 -0.0879  0.1396
31904W        W48378   8.140  17.574   5.154  0.1418  0.1958 -0.3342
31905W        W48379  11.040  16.544   4.810 -0.0409 -0.0600  0.1529
31906W        W48380   6.385  14.354   3.971  0.2368 -0.2129 -0.4810
31907W        W48381   5.544  13.533   9.617  0.0100 -0.4503 -0.1289
31908W        W48382  13.658   9.815   3.841 -0.0247  0.1182  0.3349
31909W        W48383  15.109  10.424  11.382 -0.1431  0.2330  0.1500
31910W        W48384  16.517  16.147   2.789 -0.0859 -0.4514 -0.2970
31911W        W48385  17.335   1.638  11.734  0.4182  0.1559 -0.0177
31912W        W48386  11.391   2.827  12.622  0.1067 -0.0791  0.1568
31913W        W48387  18.818   0.682   5.370 -0.0525  0.1442  0.2369
31914W        W48388  18.682  11.414   4.533  0.1777  0.1336  0.1828
31915W        W48389  16.835   2.011  14.623 -0.1745  0.3115  0.1641
31916W        W48390   6.301   4.432   3.558  0.2052 -0.1707  0.0851
31917W        W48391  18.790  10.440   2.374  0.0816  0.1363  0.1925
31918W        W48392   3.331  17.370   5.714  0.2107 -0.2368  0.0189
31919W        W48393  14.139   0.677   9.932 -0.1480 -0.2793 -0.0029
31920W        W48394   4.069  17.647  14.963  0.1180  0.0494 -0.0582
31921W        W48395   9.972  12.097  11.426 -0.0904 -0.0928 -0.1178
31922W        W48396  16.611   0.457  12.968  0.0611  0.1864  0.4409
31923W        W48397   9.893   1.401   3.200 -0.1579 -0.2850 -0.1560
31924W        W48398  16.481   3.706   4.209 -0.0983  0.2314 -0.2572
31925W        W48399  15.483  17.900   0.926  0.0191  0.0613 -0.1477
31926W        W48400  18.864  11.069  11.412  0.1109 -0.0818 -0.2639
31927W        W48401  15.745   7.202   3.720 -0.3836 -0.1220  0.1230
31928W        W48402  18.129  12.165   3.334  0.2496 -0.3859 -0.1940
31929W        W48403   9.840   3.221   5.304 -0.1740 -0.0592  0.0683
31930W        W48404  11.200  12.788  13.139  0.0478 -0.1155  0.1460
31931W        W48405  13.158  17.219   4.466 -0.0469  0.1576  0.1395
31932W        W48406  16.278   7.728  14.641  0.1747  0.1035  0.0549
31933W        W48407  15.127  18.345   0.725 -0.1168 -0.1024 -0.1732
31934W        W48408   5.413   1.451  11.302  0.0384  0.1106 -0.2707
31935W        W48409   3.571   5.292   2.187  0.2607  0.1487 -0.2153
31936W        W48410   9.604   4.985  11.525 -0.1098 -0.3123  0.0525
31937W        W48411  10.751   3.530   2.090  0.1901  0.1051 -0.2613
31938W        W48412  17.981  12.219   4.752  0.0838  0.0830  0.0249
31939W        W48413  13.756   4.243  11.476 -0.1815 -0.2453  0.0897
31940W        W48414  15.739   5.439   4.861  0.2434  0.1722  0.2194
31941W        W48415   6.894  11.024   1.441 -0.2393  0.1951  0.0871
31942W        W48416  10.313  14.405  12.661  0.1125  0.2230  0.0226
31943W        W48417   2.259   9.067  12.499  0.0525  0.1495 -0.1730
31944W        W48418  17.562   5.264  14.728 -0.1254 -0.0964 -0.0444
31945W        W48419  12.806   4.376  14.973 -0.0818 -0.0330 -0.0252
31946W        W48420  11.767   5.115   2.829 -0.0391  0.1117 -0.1133
31947W        W48421   5.087   4.347   3.350 -0.0361  0.0290  0.1803
31948W        W48422  15.724  16.192   3.529  0.2232  0.0534  0.3165
31949W        W48423   8.055   0.352  10.609 -0.0259  0.1769  0.0997
31950W        W48424  14.789  15.664   3.361  0.0079  0.2165 -0.2092
31951W        W48425  17.204  10.894   1.490 -0.1693  0.4196 -0.2542
31952W        W48426   5.616   4.698   1.637 -0.1286  0.0755  0.1644
31953W        W48427  15.086  10.410   2.439 -0.3193  0.0674  0.0926
31954W        W48428   1.662  16.663  14.123  0.0793  0.0988 -0.0682
31955W        W48429  16.278   8.139  11.252  0.2019  0.1582 -0.0710
31956W        W48430   8.114   9.664   1.204  0.0685  0.3984 -0.1260
31957W        W48431  13.066   3.914   2.415 -0.0209 -0.2994 -0.3427
31958W        W48432   8.492   3.789   1.970  0.0317 -0.2191 -0.0528
31959W        W48433  11.283   3.776  11.577 -0.0829 -0.1130 -0.1516
31960W        W48434   0.276  11.755   5.473 -0.2903  0.2790  0.3193
31961W        W48435   9.310   0.711   9.599  0.2697  0.0522 -0.1392
31962W        W48436  14.209  16.900   9.516  0.2885  0.0078  0.0866
31963W        W48437   3.452  19.059  14.982 -0.2720  0.2066  0.1129
31964W        W48438   6.370  10.815   4.383  0.2271  0.0533  0.0951
31965W        W48439  10.640  17.429  14.938  0.1972  0.1063 -0.0699
31966W        W48440  14.550  14.828  14.945  0.1097 -0.2481  0.1197
31967W        W48441   4.546   1.023   1.472  0.1689  0.0477 -0.0230
31968W        W48442  18.945  10.535   4.066 -0.2372 -0.2509  0.2788
31969W        W48443  16.814   4.645   1.018  0.0791 -0.1394  0.1099
31970W        W48444   9.621  10.145   1.509  0.1485  0.0243 -0.2863
31971W        W48445   7.165  17.989  12.882  0.2511 -0.2836  0.2646
31972W        W48446  14.911  11.643   3.974  0.1687  0.1429  0.0361
31973W        W48447  13.958   5.576   4.582 -0.1162 -0.0170  0.1483
31974W        W48448  11.534  16.119  13.236 -0.0190 -0.0900 -0.1404
31975W        W48449   9.532  12.017  13.342 -0.2508  0.1649  0.1497
31976W        W48450  10.638   2.632   0.526  0.0551  0.1922 -0.2021
31977W        W48451   5.458   6.910  11.423  0.1204 -0.0868  0.1918
31978W        W48452  15.046   7.811   4.196  0.2170 -0.0516  0.1298
31979W        W48453   3.925  11.370  10.981  0.1097 -0.3666 -0.1527
31980W        W48454   3.818   9.017  12.328  0.0780  0.2208  0.3226
31981W        W48455  15.786  14.597   4.648 -0.1769 -0.3316  0.3136
31982W        W48456   8.153  13.062  13.402  0.0402  0.0748 -0.3611
31983W        W48457  16.649  16.731   2.680  0.2401 -0.1837 -0.0828
31984W        W48458   2.550   8.009  10.821  0.1953  0.1016  0.1297
31985W        W48459  11.470   2.294  12.713  0.2300 -0.0443 -0.4423
31986W        W48460   6.364   3.675   4.063 -0.0443 -0.4152  0.0176
31987W        W48461  11.360   8.030  12.698  0.0503  0.1516 -0.0015
31988W        W48462   8.040  13.574  14.207 -0.0034 -0.0555  0.1595
31989W        W48463  16.162   6.828   2.116  0.0334  0.2075  0.3507
31990W        W48464  15.041   8.820   1.450  0.0046 -0.2851  0.0035
31991W        W48465   1.528  15.879   4.933 -0.0459 -0.1407  0.2028
31992W        W48466   6.181  12.190  12.647  0.1079 -0.2673  0.2833
31993W        W48467  10.022  14.348  14.939 -0.2085 -0.0282 -0.3413
31994W        W48468   4.187   0.427  11.598  0.3735 -0.1401 -0.0346
31995W        W48469   3.690  19.124  11.097  0.1418 -0.1781  0.2739
31996W        W48470  16.912  18.271   4.232  0.1024  0.0814  0.1220
31997W        W48471  15.582  14.767  15.000 -0.0485  0.0283  0.1742
31998W        W48472   1.820  11.895  14.503  0.0457  0.0700  0.2094
31999W        W48473  14.072   1.620   2.513  0.0426  0.0766 -0.1373
32000W        W48474  16.997  14.308   4.947 -0.0428  0.2120  0.0288
32001W        W48475   4.928   7.776   0.109  0.0895 -0.0672 -0.1246
32002W        W48476  18.263  12.441   1.476 -0.0613 -0.1762 -0.2085
32003W        W48477  15.119  13.373  12.954 -0.3668 -0.4032  0.4344
32004W        W48478  11.497   4.884  13.676  0.0593  0.0526  0.2241
32005W        W48479  16.328  18.283   0.157  0.0457 -0.0992  0.0886
32006W        W48480   5.603   5.004   1.285 -0.2860  0.0891  0.1293
32007W        W48481   7.915  10.108   0.218  0.0603  0.0923 -0.0836
32008W        W48482   6.984  14.744   3.172  0.0329 -0.1843 -0.0023
32009W        W48483  15.202  15.514  13.413 -0.0580  0.1154 -0.1011
32010W        W48484   5.730   6.187  15.065 -0.0643 -0.0700  0.0395
32011W        W48485  14.597   7.824  13.990 -0.2361  0.5558 -0.1638
32012W        W48486   4.529  13.796  12.194 -0.3042 -0.0085 -0.3241
32013W        W48487   6.343   6.551   4.156  0.1996 -0.0628  0.3730
32014W        W48488   9.268  13.942  10.834  0.0492  0.0007 -0.0701
32015W        W48489  18.496  17.414   4.080 -0.5071  0.0570 -0.1204
32016W        W48490   0.785   7.685   1.663 -0.1563  0.0397  0.0686
32017W        W48491  17.666  13.870  11.933  0.1860  0.1135  0.1008
32018W        W48492   0.293   6.614   0.518  0.0440  0.0685  0.0381
32019W        W48493   0.543   6.247   9.226 -0.1186 -0.0641  0.0850
32020W        W48494  15.764  10.810  11.429  0.0891  0.0735  0.1088
32021W        W48495  10.505  10.523  11.327  0.1196 -0.0371 -0.0019
32022W        W48496  18.424   2.718   3.325  0.0559  0.0480 -0.0610
32023W        W48497  12.563  14.995  10.455  0.0494  0.0525  0.0275
32024W        W48498  15.297  18.932  10.394  0.0831  0.3101 -0.3014
32025W        W48499  11.751   6.116  11.858 -0.0694 -0.3861 -0.0292
32026W        W48500  17.777   2.092   0.370  0.1304 -0.0037  0.2431
32027W        W48501   9.030   3.391   0.840  0.0335  0.1030 -0.0292
32028W        W48502   2.592   9.401   5.006 -0.0436 -0.0358 -0.1268
32029W        W48503  16.495   3.805  13.823 -0.0435 -0.2084  0.3265
32030W        W48504  14.468   3.696   3.339 -0.0289 -0.3655 -0.1643
32031W        W48505  18.637  18.771   2.981 -0.3858 -0.4468 -0.1469
32032W        W48506   0.329   5.462   2.817 -0.0746 -0.0962  0.0667
32033W        W48507   7.539  15.056  12.603 -0.1197  0.0561 -0.0063
32034W        W48508   4.462  12.760   9.154 -0.0298  0.2553  0.2823
32035W        W48509   2.373   1.514  13.745 -0.0866  0.1982  0.1605
32036W        W48510   3.667  16.601  12.394  0.0946 -0.2073 -0.2101
32037W        W48511   9.753   2.728  13.462  0.2560  0.0864 -0.0388
32038W        W48512  18.541   7.075   4.092 -0.3095  0.0611 -0.1889
32039W        W48513  14.257  19.113  14.908 -0.3143 -0.0458  0.1413
32040W        W48514   4.291  13.730   1.128  0.1735 -0.0200  0.4315
32041W        W48515   2.735  10.505  14.928 -0.1939 -0.3325  0.2581
32042W        W48516  14.817  12.212  10.791 -0.0056  0.1845 -0.3296
32043W        W48517  13.610  14.518   2.930  0.1462 -0.0314 -0.2100
32044W        W48518  14.040   5.681   0.027 -0.0077  0.2001  0.0160
32045W        W48519   5.092  18.354   2.103 -0.2674 -0.0861 -0.1602
32046W        W48520   9.260   8.743   2.608 -0.0324 -0.0320  0.0671
32047W        W48521  12.193   9.341   2.341 -0.1394  0.0376 -0.1057
32048W        W48522  11.987   3.618  11.338 -0.1992  0.1268  0.3100
32049W        W48523  16.095  17.436   4.277 -0.1625  0.1446  0.1874
32050W        W48524   7.060  10.099   0.989  0.4597  0.2927 -0.0369
32051W        W48525   4.836  18.719  13.186  0.0590 -0.0602  0.0666
32052W        W48526  14.275  13.258  13.169 -0.1354 -0.1508  0.3023
32053W        W48527   9.403  15.782  14.552 -0.3308 -0.1183 -0.1977
32054W        W48528  10.441  17.980   4.802 -0.3487  0.0055 -0.2172
32055W        W48529   0.697  14.404  14.053  0.0639  0.1706 -0.0089
32056W        W48530   6.841   3.045   1.324  0.0069 -0.0423 -0.0191
32057W        W48531   5.682  12.418  10.309  0.2240  0.2014 -0.0762
32058W        W48532  13.064   8.649   2.476 -0.1246 -0.1280 -0.2000
32059W        W48533  17.154   1.244  11.952  0.0114 -0.1490  0.0888
32060W        W48534   1.354   7.353  12.134  0.0055  0.1138  0.0185
32061W        W48535   8.056  16.804   3.990 -0.1362  0.1499  0.1966
32062W        W48536  17.780   2.993   4.813  0.0772 -0.0276  0.1024
32063W        W48537  17.208   1.714   2.442 -0.2670  0.1390  0.2088
32064W        W48538   0.314  13.800   5.441 -0.0971  0.2348 -0.1164
32065W        W48539   1.816  16.608   0.432 -0.1361 -0.1645  0.3330
32066W        W48540   0.206  11.163  14.103 -0.0055 -0.1259 -0.0275
32067W        W48541  17.647   1.289  12.788  0.1098 -0.3115 -0.1125
32068W        W48542  14.012  13.971   5.251  0.1927 -0.0659  0.1347
32069W        W48543  12.510  14.963   4.579 -0.0462  0.0548 -0.0181
32070W        W48544  15.266  11.156   3.233  0.2225  0.0984  0.2483
32071W        W48545  13.201  15.693  10.504 -0.1612 -0.0640  0.0705
32072W        W48546   7.596   8.335   1.396 -0.1283 -0.3293 -0.1454
32073W        W48547  18.401  11.787  11.239  0.1614 -0.0852 -0.1942
32074W        W48548  14.355  17.838   4.061  0.0603  0.0541 -0.1369
32075W        W48549  11.099   3.951  10.736  0.1145  0.1595  0.1481
32076W        W48550   4.013   0.173   3.455 -0.1684 -0.0167  0.0894
32077W        W48551   9.123   0.753   2.003  0.1092  0.1612  0.0086
32078W        W48552   6.906   9.649   0.838 -0.1356 -0.3743  0.0567
32079W        W48553  16.263   3.783   5.214 -0.2329 -0.1867 -0.1487
32080W        W48554  17.864   0.756   0.445 -0.0070 -0.0048  0.0213
32081W        W48555   3.682   8.812   1.754  0.1065 -0.0163 -0.1626
32082W        W48556  15.167  10.146  14.689 -0.0361  0.5317 -0.1972
32083W        W48557  13.564   7.278  12.742  0.3768 -0.0213 -0.1406
32084W        W48558   2.436   4.973   1.386 -0.1595 -0.0771  0.2236
32085W        W48559   0.086  16.501  12.112  0.0231  0.0279 -0.1214
32086W        W48560  15.639  17.144   0.958  0.0736 -0.1672 -0.1265
32087W        W48561   6.546   0.605  14.840 -0.1552  0.1708 -0.3413
32088W        W48562  10.180  13.256   3.661 -0.1830 -0.2709 -0.1014
32089W        W48563   5.508  18.619  10.371 -0.0183 -0.2349  0.3333
32090W        W48564   7.197  16.401  14.371  0.0126 -0.0139 -0.2579
32091W        W48565   6.262   2.108   1.443 -0.0156 -0.2507 -0.0102
32092W        W48566   4.822   0.918  14.317 -0.2740 -0.3015  0.2096
32093W        W48567  15.112  17.103   0.268 -0.1701  0.0831 -0.3282
32094W        W48568  16.348   6.899  11.285 -0.1714  0.1342 -0.1538
32095W        W48569   6.441  17.646   2.802 -0.0663 -0.2483  0.1508
32096W        W48570   3.700   0.118   4.048 -0.1829  0.3667  0.3458
32097W        W48571   7.494   7.295   0.998 -0.3481  0.2229  0.0861
32098W        W48572  18.728   9.592   0.313 -0.0329 -0.1976  0.1407
32099W        W48573  15.007   9.201   2.712 -0.2330  0.0111  0.0558
32100W        W48574  18.472   1.866   0.824 -0.0199 -0.1557  0.1730
32101W        W48575   6.909  12.329   1.534  0.1045 -0.0984  0.1166
32102W        W48576   1.763  18.923  13.198 -0.2719  0.0100 -0.1038
32103W        W48577  15.515  12.921   0.516 -0.0908  0.2754  0.0721
32104W        W48578   4.784  19.047   1.563  0.0665 -0.2666 -0.4289
32105W        W48579   0.535  13.243   2.260 -0.1073 -0.0636 -0.2073
32106W        W48580   0.646  14.778   0.615 -0.2757  0.0454  0.3003
32107W        W48581  16.954   5.523   4.459 -0.0308  0.1584 -0.1892
32108W        W48582   4.844  18.547  12.622  0.0086  0.3900  0.0476
32109W        W48583  18.375   7.203  13.946 -0.0685  0.0502 -0.3236
32110W        W48584   1.480   4.886   1.539  0.0744 -0.0802 -0.0687
32111W        W48585   7.359  18.710  14.612  0.1523  0.0748 -0.1019
32112W        W48586  15.577   7.194   3.030  0.3271  0.2537 -0.0554
32113W        W48587   1.358   4.211   4.211  0.0398 -0.1796 -0.1316
32114W        W48588   1.770  10.277   0.005  0.1411 -0.2198 -0.0740
32115W        W48589  15.840  16.542   1.476  0.0302 -0.1399 -0.4353
32116W        W48590  16.467  10.367   5.322  0.2875 -0.2533 -0.0383
32117W        W48591   0.798  14.810  12.719 -0.3515  0.1433 -0.0698
32118W        W48592   4.272  10.636  11.813 -0.1074  0.0681  0.0373
32119W        W48593  12.998   1.615  12.228  0.0328  0.3362  0.2477
32120W        W48594  18.907   9.236  11.037 -0.1681  0.0749  0.1942
32121W        W48595   6.696  17.033   4.576  0.1217  0.1352  0.2055
32122W        W48596  14.685   8.281   0.002  0.0716  0.2392  0.0426
32123W        W48597   3.881   2.155   1.222  0.0808  0.2085 -0.0300
32124W        W48598  13.954   5.113  11.724 -0.0425  0.1922 -0.0426
32125W        W48599   4.027  14.861   4.181  0.2924  0.3224  0.0711
32126W        W48600   2.726  10.065   4.145 -0.2480 -0.2404  0.0012
32127W        W48601   3.302  19.100   1.673 -0.0889 -0.2653 -0.0118
32128W        W48602  15.146   9.865  10.208  0.0915  0.1841  0.2897
32129W        W48603  14.323  12.288   1.253 -0.0856 -0.4435 -0.1224
32130W        W48604   7.062   8.068   3.308 -0.0724 -0.1120  0.0628
32131W        W48605   5.007  13.997   2.884  0.0571  0.2058  0.3108
32132W        W48606  11.520   8.275   0.494  0.1165 -0.1557 -0.0118
32133W        W48607  13.934  17.434   4.089  0.1800  0.3232  0.0835
32134W        W48608  15.920   0.099  12.313  0.0322 -0.2031 -0.0183
32135W        W48609   3.126   7.550  12.631  0.0119 -0.0035  0.0542
32136W        W48610   7.346   8.332   4.612 -0.0327 -0.0329  0.0057
32137W        W48611   2.510  17.071   2.920  0.0188  0.1253 -0.3748
32138W        W48612  10.661  17.018  10.184 -0.0801 -0.1381  0.1538
32139W        W48613   0.542   2.826   2.628 -0.3610 -0.2968  0.0015
32140W        W48614   6.288  17.584  14.921 -0.0670 -0.1413  0.0345
32141W        W48615   6.029  10.695   0.893 -0.0387  0.5108 -0.0586
32142W        W48616   6.709  12.819   3.974  0.2464  0.0116  0.0690
32143W        W48617   5.656   8.264   0.793  0.1963  0.0210  0.1308
32144W        W48618  17.646   2.399  15.064  0.0651 -0.0369 -0.0929
32145W        W48619   4.181  13.120   2.614  0.1310 -0.0895  0.1419
32146W        W48620   8.875  15.867   0.239 -0.2106  0.3010  0.0492
32147W        W48621  16.601  14.779  10.478 -0.0957 -0.1599 -0.3285
32148W        W48622   4.932   6.636  10.165 -0.1457  0.0156  0.1762
32149W        W48623  13.451   1.843  12.190 -0.2485  0.1237 -0.1654
32150W        W48624   7.701  13.129   3.172 -0.3797  0.0879 -0.1698
32151W        W48625  10.523   9.583   1.926 -0.0031  0.1658 -0.0485
32152W        W48626  12.696   8.407  14.051 -0.0085 -0.1568  0.1623
32153W        W48627  18.566   5.904  10.333 -0.2312 -0.2167 -0.0345
32154W        W48628  12.592   4.976   4.009  0.1235 -0.0291 -0.3116
32155W        W48629   7.239   5.021   1.078  0.1777  0.1748 -0.0315
32156W        W48630   6.014  10.619   1.386 -0.2431  0.2835  0.2478
32157W        W48631   3.883   7.174  11.971  0.2120 -0.2453 -0.0689
32158W        W48632   8.363   1.491  11.313  0.5378 -0.2245 -0.1767
32159W        W48633  17.255   8.610   3.992  0.0338 -0.0740  0.2740
32160W        W48634  14.407  17.961   4.584 -0.0206  0.2434  0.3315
32161W        W48635   1.416   1.545   2.187 -0.0404  0.0360 -0.2232
32162W        W48636   2.767   8.647   5.258 -0.3915  0.0130 -0.1062
32163W        W48637   9.127   9.485  12.981  0.0091  0.0747 -0.0785
32164W        W48638  16.824   9.035  14.233  0.0086  0.3625 -0.0166
32165W        W48639   4.030   3.139   3.637  0.1732 -0.2167 -0.0890
32166W        W48640   5.780  12.883  13.234 -0.1671 -0.1056 -0.0632
32167W        W48641   4.430   9.407   3.969 -0.2946 -0.2287  0.0944
32168W        W48642  12.403   2.715  11.235 -0.0297  0.0947 -0.1289
32169W        W48643   1.262  13.933  13.120 -0.4671 -0.0420 -0.0100
32170W        W48644   4.739   3.412   2.142  0.1058  0.4162 -0.2660
32171W        W48645  11.041   6.222   3.278 -0.0080 -0.0050 -0.0671
32172W        W48646  11.042  13.145   0.744  0.0038 -0.1824  0.0835
32173W        W48647  12.236   5.426   2.110 -0.2137 -0.2985  0.1308
32174W        W48648  16.161  13.599   3.236  0.1426 -0.4217 -0.2167
32175W        W48649   0.905   5.714  10.158  0.0391 -0.0411  0.1452
32176W        W48650   6.058  17.390  13.240  0.2760 -0.0701  0.0994
32177W        W48651  17.054   5.117  14.615 -0.1777  0.1925 -0.2100
32178W        W48652  14.272   9.909   0.073  0.3554 -0.1055  0.0668
32179W        W48653   3.186   7.106  13.313 -0.1463 -0.2862  0.0550
32180W        W48654  15.572   8.124   0.041  0.1224  0.1327 -0.1681
32181W        W48655   9.012   5.714   3.291 -0.1131  0.1623  0.3445
32182W        W48656  17.747  16.520   3.859 -0.2400  0.0009 -0.1558
32183W        W48657   5.953  11.668   2.179 -0.0026  0.3090  0.1033
32184W        W48658   4.841   8.378   5.115 -0.1115  0.1263 -0.0172
32185W        W48659  14.816   6.122   3.180  0.3610  0.0415 -0.3520
32186W        W48660  18.932   0.834  14.928  0.1256  0.1079 -0.3652
32187W        W48661  14.541  18.422  14.686 -0.2980 -0.1294 -0.1249
32188W        W48662   0.033   1.871  13.974 -0.2062 -0.0402 -0.1669
32189W        W48663  11.294   0.178   1.804  0.0374  0.1099  0.0541
32190W        W48664   4.473   1.543  12.267 -0.2145  0.0239 -0.2424
32191W        W48665   6.285  16.869   3.787 -0.0811  0.0925  0.1813
32192W        W48666  18.105   3.974   1.059  0.0355 -0.2333  0.1569
32193W        W48667  18.475  16.562   3.483 -0.1165 -0.1627 -0.2423
32194W        W48668  18.938  18.694   1.611 -0.2952 -0.0845  0.0959
32195W        W48669  12.429   8.455  11.203 -0.3835  0.2038 -0.0798
32196W        W48670   9.952   0.009   3.066 -0.0992 -0.1057  0.2045
32197W        W48671  17.946  10.613  10.583 -0.2994 -0.3213  0.0025
32198W        W48672   7.222   6.162  13.207 -0.2432  0.2165 -0.0203
32199W        W48673   2.539   0.611   2.078 -0.1587  0.1034 -0.0291
32200W        W48674  14.382   6.205  13.865 -0.0562 -0.2024 -0.0311
32201W        W48675  17.285   8.433   0.117  0.0001  0.0004 -0.1089
32202W        W48676   9.574  10.734   0.732  0.1190 -0.0063 -0.1826
32203W        W48677   1.485   5.229   1.953 -0.0780 -0.0180  0.0003
32204W        W48678   3.563   0.997  13.561 -0.3448  0.2545  0.0789
32205W        W48679  12.149  15.238  14.768 -0.2017 -0.0955 -0.2344
32206W        W48680  18.231  12.289   5.332  0.0088 -0.0261  0.2467
32207W        W48681  11.624  18.234   3.966  0.0615  0.2612 -0.1045
32208W        W48682  14.913   9.497  11.810 -0.0930  0.2055 -0.0788
32209W        W48683   0.016  14.902   2.794 -0.2188 -0.2025  0.0733
32210W        W48684  11.397  15.242   0.930 -0.0508 -0.1815 -0.1388
32211W        W48685  12.950  13.896  11.260 -0.2933  0.1111  0.0657
32212W        W48686   0.330  13.338   3.352  0.1025  0.0230 -0.1688
32213W        W48687   4.960   0.295   1.835  0.0727 -0.2843  0.3137
32214W        W48688  11.215   8.080  11.336 -0.1195 -0.1987 -0.1252
32215W        W48689   6.043  16.146  14.256 -0.1380 -0.0789 -0.1417
32216W        W48690   1.780   4.440  13.165 -0.1100  0.0867  0.0305
32217W        W48691   8.755  11.372   2.410  0.0029 -0.1594 -0.0175
32218W        W48692   8.749  13.964  10.469  0.1476 -0.3824 -0.3541
32219W        W48693  17.350   6.287   3.012  0.0128 -0.1192 -0.0491
32220W        W48694  16.003   8.612   4.019 -0.3923 -0.0841  0.1314
32221W        W48695  17.626   0.049  12.699  0.3081  0.2897 -0.1563
32222W        W48696   8.523  18.275  12.021  0.0188 -0.2008  0.0058
32223W        W48697   2.561   1.205   0.672 -0.0453  0.1877 -0.0299
32224W        W48698  12.806   5.838  12.636 -0.1023  0.1875  0.1013
32225W        W48699   8.489  18.424   0.871  0.0961 -0.1040  0.2242
32226W        W48700   4.635   0.548   0.069  0.3111  0.0681 -0.1237
32227W        W48701   6.324  11.341  11.689  0.1100  0.1021 -0.0957
32228W        W48702  12.025  12.714  12.206 -0.1084 -0.0772  0.0039
32229W        W48703  10.421   7.386   1.846  0.0882 -0.0578 -0.1486
32230W        W48704  19.017   5.292   3.179  0.0435 -0.2541 -0.0880
32231W        W48705   9.338   7.734   1.239  0.1254 -0.0341 -0.1946
32232W        W48706   4.568  16.912   0.186 -0.0889 -0.1524  0.1954
32233W        W48707   2.528   5.670  11.624  0.1529  0.0043  0.2836
32234W        W48708  13.885  18.300   1.169  0.2231 -0.0058 -0.2796
32235W        W48709   8.630   9.670  12.890  0.2724  0.1452  0.0972
32236W        W48710  12.883   5.627  13.646 -0.3242  0.1137  0.1445
32237W        W48711  16.610  16.297  12.837 -0.0192 -0.2040 -0.0467
32238W        W48712   5.376  10.858  11.778  0.0485 -0.0687  0.1129
32239W        W48713   5.072   7.918   2.320 -0.3173  0.0442  0.0241
32240W        W48714   8.075  10.054  14.086 -0.2092 -0.1683  0.2845
32241W        W48715  10.647   6.901  14.317  0.1098  0.3203  0.1849
32242W        W48716  13.825   2.225   5.414  0.0366 -0.1884  0.2775
32243W        W48717   2.835   0.051   1.519  0.0569  0.0597  0.0254
32244W        W48718   8.512  18.641   5.083 -0.2995 -0.0446 -0.0358
32245W        W48719  12.078   6.508  11.831  0.2102  0.1392  0.0078
32246W        W48720   7.590   2.366   0.847  0.0087 -0.0069  0.2002
32247W        W48721   0.428  17.995  14.136  0.1119 -0.1592  0.2936
32248W        W48722  15.015  16.595  12.154  0.1066 -0.0208  0.0449
32249W        W48723   1.887  11.331   2.773 -0.0405  0.0931 -0.2468
32250W        W48724  14.748   9.406  14.835  0.2264 -0.0635  0.2651
32251W        W48725  13.872  16.935  14.392 -0.0225 -0.1597  0.0104
32252W        W48726   8.193   8.143  13.414  0.0656 -0.0101 -0.2852
32253W        W48727  11.282   3.062  13.665 -0.3696  0.1921 -0.0121
32254W        W48728   9.704   4.539  13.219  0.0722  0.0269  0.0817
32255W        W48729  10.986   8.749   6.025  0.1309  0.1772 -0.1984
32256W        W48730  17.864   5.841   3.035 -0.0859 -0.1525 -0.0860
32257W        W48731  16.018   1.191   1.641 -0.1090 -0.1017  0.0177
32258W        W48732   2.698   1.364   2.913 -0.1233 -0.1636  0.0569
32259W        W48733  11.666   1.991   1.534 -0.1195 -0.0049 -0.1404
32260W        W48734   3.887   1.604  12.139 -0.0399 -0.0724  0.2781
32261W        W48735  16.803   5.139   3.539  0.1697  0.5018 -0.3027
32262W        W48736  10.888  14.154   2.690 -0.1652  0.1109  0.2814
32263W        W48737  15.546  11.975  11.044 -0.0296  0.2016  0.1905
32264W        W48738   5.071   0.807  13.025 -0.1517  0.1480  0.0083
32265W        W48739   2.138  11.314  11.355  0.1260  0.1223 -0.0703
32266W        W48740  11.665  17.922  13.559 -0.1657  0.2118  0.1373
32267W        W48741   5.158   1.539   4.112 -0.0288 -0.0026  0.3713
32268W        W48742   4.790  15.597  12.377  0.1531  0.1513 -0.0393
32269W        W48743  18.826  11.011   2.390  0.0622  0.1248  0.0777
32270W        W48744  16.416  18.707   3.592  0.0393 -0.1249  0.0670
32271W        W48745   2.430  14.268  11.981  0.3139  0.0179  0.0592
32272W        W48746  16.526  11.984  13.958  0.3416 -0.3407  0.1122
32273W        W48747  15.933   1.639   4.447 -0.0666 -0.2169 -0.1053
32274W        W48748   1.449   1.739  12.259  0.1186  0.2044 -0.1156
32275W        W48749  16.012  17.265  10.269  0.1563  0.2767  0.1766
32276W        W48750   4.635  14.342  13.243 -0.1162 -0.2266  0.0058
32277W        W48751   6.693   2.704  10.753  0.1410 -0.0651 -0.2500
32278W        W48752  17.224   3.412  13.545  0.2833  0.1147  0.3035
32279W        W48753   0.106  12.138   5.233  0.2385 -0.0473 -0.1881
32280W        W48754  15.983   9.797   3.639  0.0656  0.1001 -0.0635
32281W        W48755  15.287  18.451  13.702  0.0531  0.0688  0.1987
32282W        W48756  11.506  13.376  13.339  0.0533 -0.0485 -0.1139
32283W        W48757  17.537  14.379   1.860 -0.1498 -0.1871 -0.0344
32284W        W48758   6.626   2.599   3.812  0.0092  0.1280  0.1765
32285W        W48759  13.622  14.484  14.330  0.2456  0.4142  0.2193
32286W        W48760   0.928  18.120   3.250 -0.0307  0.0905 -0.0107
32287W        W48761  13.494   8.401   4.101  0.1106  0.0898 -0.0458
32288W        W48762  11.877   1.212  13.705 -0.0500  0.1341 -0.0861
32289W        W48763   2.918  14.029  11.259 -0.2083  0.0430  0.0459
32290W        W48764  13.010   5.953   2.705 -0.4396  0.1970  0.1129
32291W        W48765  14.566  14.928   4.020  0.0419 -0.2173  0.0295
32292W        W48766  15.371  16.337   1.389 -0.0646 -0.3161 -0.1433
32293W        W48767  10.320  15.014  10.817 -0.1129 -0.0188 -0.2425
32294W        W48768  14.039   7.363  14.227 -0.3792  0.1854  0.0754
32295W        W48769  10.923   2.225   0.321  0.0735  0.1071  0.0189
32296W        W48770   3.372  13.474   1.429  0.0326  0.0799 -0.1386
32297W        W48771   3.845  11.513   0.114  0.2398 -0.0215 -0.1031
32298W        W48772   5.404  14.022  14.096  0.0948 -0.0336 -0.0959
32299W        W48773   7.425   3.035   3.595 -0.0988 -0.2286 -0.3469
32300W        W48774   5.942  14.155  12.780  0.1123 -0.2695 -0.2509
32301W        W48775  13.323  12.394  10.076  0.0107 -0.0623  0.0531
32302W        W48776  15.203  15.972   1.076 -0.1815 -0.1626  0.1242
32303W        W48777   9.057  18.621   0.948 -0.0444 -0.0020  0.2921
32304W        W48778   8.373  18.755  12.216  0.0432 -0.1755  0.1547
32305W        W48779  11.319  15.838   1.737  0.0307 -0.1043 -0.0330
32306W        W48780  13.408  16.070   4.341 -0.0265 -0.1713  0.0694
32307W        W48781  11.118  10.503  12.976  0.0876  0.0506 -0.0708
32308W        W48782  14.572   0.669  12.350  0.2965  0.1631 -0.0320
32309W        W48783   4.573  13.104   4.325 -0.2317 -0.2292  0.3955
32310W        W48784   5.015  16.030   3.404 -0.0382 -0.1119 -0.0928
32311W        W48785   6.872   3.172  14.118 -0.2317 -0.2363  0.1135
32312W        W48786   3.047   2.825   4.588  0.0162 -0.0919  0.1496
32313W        W48787  18.164  10.075   3.671 -0.2431  0.0404  0.2229
32314W        W48788   5.276   3.213  13.847 -0.0299 -0.1242  0.1022
32315W        W48789  17.630  17.111   0.286 -0.3039  0.0937 -0.1631
32316W        W48790   9.199   0.729   1.314 -0.2298  0.2786 -0.1944
32317W        W48791   8.584  12.093   2.706 -0.2060 -0.1927  0.2373
32318W        W48792  15.929  12.797  11.138 -0.2214  0.1672  0.0166
32319W        W48793  10.178   0.090   3.551  0.1159 -0.2787  0.1026
32320W        W48794   4.110  16.236  14.395  0.0136  0.1203  0.0868
32321W        W48795  15.469  17.880   0.386 -0.1529 -0.0011 -0.1465
32322W        W48796   0.397   4.654   3.660  0.2850  0.2216 -0.0549
32323W        W48797  15.144  13.216  11.845 -0.0149  0.1924  0.3136
32324W        W48798   7.721  11.612  11.879  0.2266  0.0725  0.1292
32325W        W48799   9.221   0.767   0.483 -0.0127  0.0340 -0.0698
32326ION     NA48800  12.885   1.318   5.422  0.1449 -0.1022 -0.0430
32327ION     NA48801   3.934   9.489  14.027  0.0137  0.3027 -0.0786
32328ION     NA48802   5.113   9.899   9.688 -0.0810  0.3395  0.1301
32329ION     NA48803  10.325  16.134   5.374  0.1526  0.2095 -0.3673
32330ION     NA48804   1.696   5.434   4.022  0.0871 -0.1976  0.0321
32331ION     NA48805  15.262   0.624  10.780 -0.3324 -0.1105  0.2906
32332ION     NA48806  11.100   0.707  14.409  0.1455  0.0698 -0.1726
32333ION     NA48807   3.788  10.880  10.988 -0.0886 -0.2928  0.0188
32334ION     NA48808   7.191   4.345   9.631 -0.1459  0.0254  0.0784
32335ION     NA48809   9.305   9.655   5.164 -0.0052 -0.1702 -0.0162
32336ION     NA48810  17.715  15.019  12.452  0.2147 -0.0255 -0.0721
32337ION     NA48811   3.406  11.408   9.494  0.2489 -0.1954  0.0839
32338ION     NA48812   0.988  10.859   9.901 -0.2678 -0.0990  0.0641
32339ION     NA48813  18.200  15.149   5.241 -0.1737 -0.1374 -0.2154
32340ION     NA48814  15.573   5.567   4.013 -0.0613 -0.2738 -0.1176
32341ION     NA48815   9.741  10.664  10.371  0.0572  0.1581  0.2492
32342ION     NA48816  19.125  16.081   0.187 -0.1793  0.1256  0.1120
32343ION     NA48817   9.698   1.691  14.358 -0.3287 -0.2284 -0.1979
32344ION     NA48818   7.665   9.996   4.421  0.3440  0.0039 -0.2554
32345ION     NA48819  15.941  16.299   5.254 -0.2469  0.2015 -0.1589
32346ION     NA48820   0.842   8.278   4.916  0.3173  0.1685  0.1217
32347ION     NA48821  11.711   5.600   2.946 -0.1563  0.0074  0.0955
32348ION     NA48822  10.734  12.057   2.285  0.1837 -0.0519  0.0753
32349ION     NA48823  15.667  10.974   5.592 -0.2785  0.0737 -0.0581
32350ION     NA48824  13.924  15.344   3.454 -0.3049 -0.1120 -0.1585
32351ION     NA48825  13.202   2.246  13.025 -0.1495  0.1320  0.1822
32352ION     NA48826  16.904   0.333   0.752  0.1688  0.2191 -0.2059
32353ION     NA48827   5.561   1.460   4.383  0.1811  0.0006  0.1253
32354ION     NA48828  12.851   4.772   0.826  0.1423 -0.2422  0.0611
32355ION     NA48829   1.078   3.471   1.171 -0.2178 -0.1164 -0.1554
32356ION     NA48830   0.608  14.886   5.478  0.0035 -0.3067  0.0499
32357ION     NA48831   2.837  15.107   5.408 -0.1302 -0.0298 -0.0795
32358ION     NA48832   2.929   2.911  10.602  0.0558  0.1482 -0.1064
32359ION     NA48833  12.482  12.094  14.022 -0.0298  0.0278 -0.2224
32360ION     NA48834  14.793  10.340   5.548  0.1004  0.0278  0.1399
32361ION     NA48835   8.853   4.856  14.218  0.3348  0.2008 -0.1049
32362ION     NA48836   7.744   9.095  13.253  0.1841 -0.1457 -0.0176
32363ION     NA48837  15.983   2.558  12.138  0.1066 -0.1180 -0.0034
32364ION     NA48838  14.394  11.033   0.412  0.0625  0.2214  0.0393
32365ION     NA48839   8.719  15.566   9.797  0.3228  0.0389 -0.1471
32366ION     NA48840  10.814   8.046   5.568  0.0353  0.0193  0.0087
32367ION     NA48841   8.713  15.116  15.134 -0.1966 -0.2773 -0.4578
32368ION     NA48842  18.704  14.104  10.257  0.0471 -0.1877  0.0525
32369ION     NA48843   3.378  11.284   3.022  0.1084  0.1015 -0.1671
32370ION     NA48844   3.347  15.108   9.841 -0.0335  0.1888  0.0018
32371ION     NA48845   4.055  15.125   1.212 -0.0557 -0.0586 -0.2608
32372ION     NA48846   3.322   3.914  10.281 -0.1622 -0.0566  0.0325
32373ION     NA48847  17.292   2.153   2.650 -0.0711 -0.0753 -0.0549
32374ION     NA48848  13.295   6.293   2.379 -0.0267 -0.1621 -0.0851
32375ION     NA48849   1.915  18.580   5.798  0.0182 -0.0921 -0.2784
32376ION     NA48850   2.788  13.587  14.908  0.1914 -0.2568  0.2513
32377ION     NA48851   8.648   9.418  14.403 -0.0414 -0.1529 -0.2180
32378ION     NA48852   5.406  17.859  10.290  0.2422 -0.0067 -0.1635
32379ION     NA48853   4.373   1.745  10.180 -0.0005 -0.1473 -0.1302
32380ION     NA48854   0.101   3.050   2.251  0.0904 -0.2065 -0.2350
32381ION     NA48855   3.882  10.928   4.675  0.0076  0.3963  0.1515
32382ION     NA48856  19.105   5.873  10.287 -0.1119  0.1444 -0.1427
32383ION     NA48857  11.927  12.619   4.703  0.0244 -0.1205  0.3069
32384ION     NA48858  16.790  10.317   9.656 -0.1669 -0.0010 -0.0845
32385ION     NA48859   8.689   8.477   9.747 -0.2321 -0.0372  0.3805
32386ION     NA48860   1.255   6.561   4.691 -0.0929 -0.1581 -0.0048
32387ION     NA48861  19.089   3.260   5.761  0.2124  0.2072  0.0092
32388ION     NA48862  12.775   1.128   2.364 -0.0852  0.3024  0.2209
32389ION     NA48863   9.497   4.049  12.769  0.0259  0.0931 -0.0684
32390ION     NA48864  16.366   5.628  14.096 -0.3172  0.2619  0.4225
32391ION     NA48865  17.162   7.716   5.072  0.2573 -0.0337 -0.2047
32392ION     NA48866  17.528  10.277   4.492  0.0149  0.4850 -0.0161
32393ION     NA48867   1.499  12.344   5.582  0.0791 -0.2491  0.0302
32394ION     NA48868   4.056  12.587  13.442  0.0281 -0.1809 -0.0097
32395ION     NA48869  14.770   4.417   4.752  0.2155 -0.0799 -0.2138
32396ION     NA48870   9.314  17.396  12.876  0.0501  0.0457  0.0694
32397ION     NA48871  14.079   5.529   9.813  0.1086  0.1500 -0.2538
32398ION     NA48872   1.586   6.280   9.856 -0.2150 -0.2195 -0.3700
32399ION     NA48873   1.014   0.552   9.863 -0.0254 -0.0107  0.0266
32400ION     NA48874   4.871   7.651   2.793  0.3261  0.0819 -0.2479
32401ION     NA48875   6.473   3.162   5.711 -0.0174 -0.0093  0.0238
32402ION     NA48876   7.243  13.938   3.481 -0.3593 -0.2889 -0.2027
32403ION     NA48877  12.800   3.914   4.944 -0.0038 -0.2358  0.2484
32404ION     NA48878  18.084   3.003  14.219 -0.2296  0.1320 -0.2538
32405ION     NA48879  16.026  11.918  10.298 -0.0073  0.0567 -0.3517
32406ION     NA48880   1.748   6.711  14.270 -0.3606 -0.0434 -0.0218
32407ION     NA48881   0.718  13.191   9.632 -0.1720 -0.1268 -0.0425
32408ION     NA48882   0.364  16.881   0.212 -0.2320 -0.0785 -0.2056
32409ION     NA48883   3.517  12.968   3.979  0.3550  0.1146  0.1077
32410ION     NA48884   4.393  18.640   5.821  0.1459 -0.3734  0.0589
32411ION     NA48885  16.614  10.868   5.113  0.1612  0.1445  0.1159
32412ION     NA48886  16.819  13.877   9.597  0.0379 -0.0274 -0.1319
32413ION     NA48887   0.645  12.185   1.334 -0.3474  0.0618 -0.1224
32414ION     NA48888   7.880  11.532   9.902 -0.0130 -0.1405  0.1197
32415ION     NA48889  14.107   1.865   5.131 -0.1972  0.0465  0.2532
32416ION     NA48890   0.149  10.912   5.067  0.0720  0.2663 -0.1339
32417ION     NA48891  10.973  12.321   4.197 -0.2265 -0.1584  0.1171
32418ION     NA48892   1.992   4.352   0.862 -0.1217 -0.0307 -0.0505
32419ION     NA48893   9.323  17.742  11.632 -0.2530  0.1194  0.0915
32420ION     NA48894   1.499  13.148   3.464  0.2591 -0.2750  0.1117
32421ION     NA48895   7.872   6.849   9.706  0.1245  0.1078  0.3502
32422ION     NA48896   0.765   1.377  13.200  0.1510 -0.2255 -0.0932
32423ION     NA48897   0.967  12.999  12.213 -0.2562  0.3221 -0.2633
32424ION     NA48898   3.154  10.636   0.529 -0.0718 -0.0095  0.1503
32425ION     NA48899  12.281  16.864  11.628 -0.2800 -0.1960  0.0475
32426ION     NA48900  16.561   4.491   4.961  0.1294 -0.0802  0.0419
32427ION     NA48901   4.967  14.001  12.421  0.2519 -0.2539 -0.1094
32428ION     NA48902   4.685   2.734   5.190 -0.2963 -0.2554 -0.0591
32429ION     NA48903  16.111   7.297   1.947  0.1970  0.1754 -0.0476
32430ION     NA48904   5.396  13.335  11.105  0.0029  0.0776 -0.0442
32431ION     NA48905   8.318  15.012   3.754 -0.0170 -0.0615 -0.2048
32432ION     NA48906  13.581   7.260   2.657  0.2481  0.0125  0.2076
32433ION     NA48907   3.436   2.588   5.606 -0.0103 -0.0180  0.1389
32434ION     NA48908  13.953  17.917   5.252  0.0491  0.0093  0.1484
32435ION     NA48909   6.227  15.233   2.066 -0.0720  0.0475 -0.1847
32436ION     NA48910  15.340   7.681   3.394 -0.0515 -0.1120  0.0335
32437ION     NA48911  11.100   7.706   3.997 -0.1890 -0.2239  0.1441
32438ION     NA48912  18.619   6.137   2.007 -0.0701  0.0311 -0.0716
32439ION     NA48913  17.412  11.782   2.714 -0.2501 -0.0208  0.2671
32440ION     NA48914  11.296  15.441   5.010 -0.0677  0.0954  0.0422
32441ION     NA48915   4.841  13.949   9.449 -0.6143  0.3032 -0.2172
32442ION     NA48916   6.074   4.312  10.114  0.0601 -0.1424  0.2269
32443ION     NA48917   2.983   3.755  11.079 -0.0721 -0.1675 -0.3946
32444ION     NA48918  14.459   8.430   4.273 -0.1208 -0.1937 -0.0346
32445ION     NA48919  12.702  14.766   9.931 -0.1753  0.4367 -0.4391
32446ION     NA48920   0.934   8.752  13.645 -0.1408  0.2758  0.0334
32447ION     NA48921  11.300   1.040   5.566  0.0841  0.3952  0.1912
32448ION     NA48922  12.215  17.361  14.872  0.1020  0.4339 -0.0980
32449ION     NA48923  15.924  14.918  14.675  0.3571 -0.2499  0.0427
32450ION     NA48924  17.789   2.645  10.239 -0.1362 -0.1852 -0.1607
32451ION     NA48925   0.423   5.745   5.324  0.0670  0.0777  0.0772
32452ION     NA48926   6.105   7.943  12.239  0.0378 -0.0051 -0.0008
32453ION     NA48927   0.438  16.230   3.745  0.0593 -0.1599 -0.2777
32454ION     NA48928  18.071  16.048  13.895 -0.0865 -0.0565  0.0710
32455ION     NA48929  17.846   7.725   9.652 -0.0910 -0.0040 -0.2409
32456ION     NA48930   9.309  11.393  10.336  0.5824 -0.2355 -0.2599
32457ION     NA48931   0.310   4.118   1.864  0.4028 -0.0313  0.1642
32458ION     NA48932   1.766  16.671   5.706  0.0425  0.0801  0.0059
32459ION     NA48933  13.153  15.028  12.497  0.2152 -0.0249 -0.1186
32460ION     NA48934   8.202  18.492  10.757 -0.1927 -0.1287 -0.1036
32461ION     NA48935  11.157  17.172   5.627 -0.3652  0.3134 -0.1978
32462ION     NA48936  10.210   5.644   9.708  0.0202  0.3429  0.0146
32463ION     NA48937   1.175  13.848   1.843 -0.0082  0.2388  0.0243
32464ION     NA48938   2.925  17.560   9.985  0.2095  0.2509 -0.2700
32465ION     NA48939  13.349   5.253  10.533 -0.1252  0.1447  0.0607
32466ION     NA48940  15.476   1.183   0.752  0.1137  0.1943 -0.0275
32467ION     NA48941  15.111  17.076   9.769 -0.2108 -0.0124  0.0175
32468ION     NA48942   4.117  10.352   3.613 -0.2555  0.0901 -0.0325
32469ION     NA48943  15.212   9.499  13.498  0.1224 -0.1593  0.0054
32470ION     NA48944   7.880   4.029  13.791  0.1847 -0.1039  0.3321
32471ION     NA48945  14.570  14.447  10.000 -0.0667  0.0072  0.1183
32472ION     NA48946  16.577   1.691   5.569 -0.0907  0.2185 -0.1185
32473ION     NA48947   4.250   4.177   3.891  0.4766 -0.1328  0.0362
32474ION     NA48948  10.398   8.357   0.597 -0.1982  0.2541 -0.2520
32475ION     NA48949   8.114   3.556  11.226  0.1173  0.1864 -0.1697
32476ION     NA48950   7.210   2.115  10.279 -0.1661  0.1426 -0.1380
32477ION     NA48951   2.745   1.827   0.109 -0.0806  0.3774 -0.2855
32478ION     NA48952  13.799   5.607   2.004 -0.0602 -0.2239  0.2057
32479ION     NA48953   9.235  11.858   4.013 -0.0290  0.2879  0.2258
32480ION     NA48954  11.016  16.407  13.958 -0.0762 -0.2129 -0.1942
32481ION     NA48955  15.857  10.727  14.521  0.1759 -0.0011  0.2924
32482ION     NA48956   7.784  15.309   9.535 -0.2228  0.1758  0.1511
32483ION     NA48957  17.220   8.213   0.805 -0.1272  0.4007 -0.0178
32484ION     NA48958  10.712   3.212   0.468  0.1927 -0.1622 -0.0452
32485ION     NA48959   8.496  16.286  12.088 -0.0013  0.0911 -0.0684
32486ION     NA48960   8.014  11.629   0.297  0.0877 -0.0125  0.1545
32487ION     NA48961   8.940  10.303   2.372  0.3584  0.0287  0.0227
32488ION     NA48962   0.400  15.807  12.164 -0.0375 -0.0912 -0.0878
32489ION     NA48963   7.395   8.295  10.597  0.3038  0.0059 -0.2333
32490ION     NA48964  10.210   2.674  13.849 -0.2404  0.1433  0.2015
32491ION     NA48965  15.902  13.132   0.763  0.1481  0.0564 -0.3557
32492ION     NA48966   3.156  14.815   1.689 -0.1200 -0.0654 -0.1574
32493ION     NA48967  18.527  10.433   0.131 -0.2356 -0.2582  0.4935
32494ION     NA48968  12.649   3.318   9.398 -0.0607  0.0293  0.2317
32495ION     NA48969   1.377  10.436   9.343 -0.3183 -0.0028  0.2411
32496ION     NA48970  16.633   3.656   0.289  0.0464  0.1331  0.1116
32497ION     NA48971   1.093   1.015   2.233  0.1839  0.1966  0.2630
32498ION     NA48972  10.652   0.615   5.315  0.0730 -0.2630 -0.1675
32499ION     NA48973  14.213   2.811   1.774 -0.1750 -0.2002 -0.1592
32500ION     NA48974   4.435   4.742  10.183  0.1310 -0.0733  0.0209
32501ION     NA48975  17.053   1.545  14.720  0.1186 -0.3803 -0.0657
32502ION     NA48976   4.260  14.123   5.331  0.2109  0.0456  0.0069
32503ION     NA48977   7.715  18.224   3.987  0.0334  0.2109  0.1305
32504ION     NA48978  12.399   5.712   9.724  0.0051  0.3007 -0.0872
32505ION     NA48979   2.647   3.519  14.122  0.3464 -0.1355  0.1426
32506ION     NA48980  13.745  11.925   5.805  0.0235 -0.1908  0.3610
32507ION     NA48981  13.553   2.401  11.441  0.2342  0.4005 -0.1961
32508ION     NA48982  17.315   4.478   9.833 -0.1457 -0.2078 -0.3190
32509ION     NA48983   7.817  17.775   9.512  0.0409 -0.2213 -0.1665
32510ION     NA48984   6.534  14.429  13.557 -0.0395  0.1754 -0.0775
32511ION     NA48985   3.808  12.884  14.182  0.0768  0.0430  0.0249
32512ION     NA48986   3.654   3.176  13.056  0.2108 -0.2012 -0.3038
32513ION     NA48987   9.933  15.025   5.679 -0.2892 -0.2692 -0.0265
32514ION     NA48988   4.184   2.389   5.977 -0.0090  0.0071 -0.1592
32515ION     NA48989   9.976   8.860   9.940  0.1213 -0.2729  0.4213
32516ION     NA48990  14.314  11.147   5.630  0.0839  0.2531 -0.1017
32517ION     NA48991  13.358   3.960   9.538  0.0054  0.1868  0.1283
32518ION     NA48992   3.517   2.061   4.828 -0.1401 -0.1248  0.0727
32519ION     NA48993   8.630  18.133   5.577 -0.4568  0.1376  0.0951
32520ION     NA48994  13.296   8.087   5.374 -0.2073  0.1466  0.0971
32521ION     NA48995   7.583  16.246   9.582  0.0169 -0.0002 -0.2251
32522ION     NA48996  10.777   7.694   2.138 -0.0501 -0.1701  0.0975
32523ION     NA48997  13.192  18.345   4.823 -0.0728  0.1081 -0.0903
32524ION     NA48998   6.702   7.418   5.518  0.0923  0.1576  0.2608
32525ION     NA48999   8.465   4.141   4.915  0.2261  0.1221 -0.0976
32526ION     NA49000   2.448  15.247   9.895  0.0329  0.1444 -0.2274
32527ION     NA49001   3.835   7.593   9.647 -0.0443 -0.4210 -0.0119
32528ION     NA49002   8.898   5.790  14.000 -0.2567  0.1026  0.1007
32529ION     NA49003  16.519  18.195   9.893 -0.1373 -0.1395 -0.2835
32530ION     NA49004  10.347  13.478  10.088 -0.1395 -0.1129 -0.2609
32531ION     NA49005  17.510  11.768   9.877 -0.0179 -0.1186  0.0219
32532ION     NA49006  10.738  12.987   4.112 -0.1669 -0.0883 -0.0733
32533ION     NA49007   9.016  12.700   5.395  0.2411 -0.3493  0.0534
32534ION     NA49008   2.362  15.745   5.428  0.2553 -0.2342 -0.3960
32535ION     NA49009   3.290   2.076  10.532  0.0927 -0.1711 -0.1559
32536ION     NA49010   8.895  16.597   9.794 -0.0821  0.2688 -0.0239
32537ION     NA49011  11.748   6.951   0.026 -0.0853 -0.3681 -0.0901
32538ION     NA49012  13.191   8.466  14.688  0.0478 -0.0107  0.1206
32539ION     NA49013  11.228   6.299  10.126 -0.0074 -0.4391 -0.1737
32540ION     NA49014  17.217  16.055   4.561 -0.0709 -0.1831  0.0410
32541ION     NA49015   2.010   9.868   0.189 -0.0060  0.3354 -0.2082
32542ION     NA49016  12.649   1.693   3.665  0.0757  0.2986  0.0228
32543ION     NA49017  14.321   2.316   0.927  0.3291  0.0943  0.2839
32544ION     NA49018  19.052   1.495   5.574  0.1737  0.1607 -0.0620
32545ION     NA49019   5.125   1.929  11.424 -0.2572  0.2429  0.1911
32546ION     NA49020  17.358   8.545   9.738  0.0315 -0.2777  0.0644
32547ION     NA49021   2.992   3.698  12.790 -0.1725 -0.3490  0.2348
32548ION     NA49022  13.400   3.011   9.323 -0.1185  0.2765  0.2172
32549ION     NA49023  17.812   4.652  13.133  0.1585  0.0833 -0.1251
32550ION     NA49024  15.066   1.672   5.038 -0.2721  0.0004  0.2177
32551ION     NA49025  11.150   6.950   2.501  0.0403  0.3646 -0.1780
32552ION     NA49026   2.368  15.791   9.952 -0.0462 -0.0923 -0.1320
32553ION     NA49027  15.471   8.960  12.671  0.1296 -0.1036 -0.0424
32554ION     NA49028  12.191   7.460   5.709  0.0956  0.2618  0.2085
32555ION     NA49029   2.534  15.133   0.514 -0.2358  0.0942 -0.2546
32556ION     NA49030  15.437  13.036   5.595  0.0290  0.1967  0.0137
32557ION     NA49031  14.289   3.842   1.563 -0.1517  0.0977 -0.0230
32558ION     NA49032  15.870   8.053   9.907 -0.2787  0.0422  0.0364
32559ION     NA49033  15.627   0.443  12.814  0.2441 -0.2841  0.1085
32560ION     NA49034   7.522   8.189   2.925 -0.2917 -0.1748  0.1144
32561ION     NA49035   7.250   0.257   9.773  0.3481 -0.2760  0.0793
32562ION     NA49036   1.948  13.769   9.647 -0.0229  0.0411 -0.0958
32563ION     NA49037  12.438   5.438  13.426 -0.2280  0.1616  0.0785
32564ION     NA49038  14.706   4.928  15.032  0.0088 -0.1744 -0.0911
32565ION     NA49039   9.187   7.457  14.704  0.0920 -0.1838 -0.2693
32566ION     NA49040  11.115  16.453   0.562  0.1489 -0.1703  0.1681
32567ION     NA49041  15.342   6.529   5.541 -0.0383 -0.0019 -0.2953
32568ION     NA49042   8.764   6.045   3.655 -0.1005 -0.0259  0.0238
32569ION     NA49043   9.240   8.714   4.678 -0.1702 -0.0762  0.2444
32570ION     NA49044   7.019  12.374   5.190 -0.0940  0.0244  0.1962
32571ION     NA49045  17.689   3.021   2.056 -0.2030  0.3115  0.1005
32572ION     NA49046   1.807  16.929  12.484  0.0704  0.3920  0.0322
32573ION     NA49047  18.731  16.362   0.520  0.3409 -0.2210 -0.1072
32574ION     NA49048  17.823  10.950  10.197  0.3986  0.1105 -0.0036
32575ION     NA49049  13.725   1.281  11.112  0.0726  0.1623 -0.2426
32576ION     NA49050   4.299  12.144   1.795 -0.2514 -0.0618  0.1428
32577ION     NA49051   4.620  14.015   3.725  0.0087  0.2085  0.0294
32578ION     NA49052  11.929   7.425  10.236 -0.0815  0.0858 -0.3347
32579ION     NA49053  11.701   3.303  14.809 -0.0532  0.1289  0.2173
32580ION     NA49054  15.167  17.602   5.112 -0.1273  0.2032  0.0089
32581ION     NA49055   5.692   3.664   1.646 -0.0113 -0.3301 -0.1684
32582ION     NA49056   5.250   2.707  12.627  0.1976  0.0140 -0.0946
32583ION     NA49057  10.231  10.133   3.522  0.1875  0.0269 -0.1579
32584ION     NA49058  14.729   4.488  13.128 -0.0175 -0.0665  0.1547
32585ION     NA49059   8.636  11.868  10.235 -0.0145 -0.2372 -0.1046
32586ION     NA49060   7.369  10.809   9.825  0.1533 -0.1500 -0.0427
32587ION     NA49061  17.830   7.508   0.908  0.2285  0.0351  0.0686
32588ION     NA49062  18.571  11.547   9.819 -0.0408 -0.1775  0.0098
32589ION     NA49063  18.176   0.625   1.568  0.0090 -0.0295  0.3388
32590ION     NA49064  17.870   3.126   6.041 -0.3177 -0.0835 -0.1243
32591ION     NA49065  18.074   1.905   3.263  0.3628 -0.2470  0.0755
32592ION     NA49066   0.514  17.921  10.033 -0.5376  0.0425  0.0204
32593ION     NA49067  11.215   5.726   5.718  0.0324  0.0302 -0.1364
32594ION     NA49068  16.871  18.651   3.346  0.0059 -0.2626 -0.2559
32595ION     NA49069   7.611   3.006   5.354  0.2727 -0.1224 -0.0856
32596ION     NA49070   8.402  10.635  14.022  0.3142 -0.2671  0.1722
32597ION     NA49071  16.399  10.488   0.558 -0.1073 -0.1773 -0.2952
32598ION     NA49072   6.842  17.402   3.564  0.0192 -0.0315 -0.1609
32599ION     NA49073   6.722  10.870   4.750 -0.1223  0.2047 -0.0728
32600ION     NA49074  14.026  18.025   9.659  0.1568 -0.0171 -0.1483
32601ION     NA49075  15.544  15.297  10.035  0.3428 -0.0607  0.0972
32602ION     NA49076   6.450   0.985  14.529  0.0499 -0.0188  0.0833
32603ION     NA49077   6.667   2.234   5.673  0.0641  0.3189  0.1478
32604ION     NA49078  16.420   0.518   9.677 -0.1831 -0.3350  0.1183
32605ION     NA49079  12.715  18.471   2.724  0.1782 -0.1935 -0.5161
32606ION     NA49080   7.261   5.732   2.289  0.2365  0.0351  0.1013
32607ION     NA49081  15.493   5.010   1.908  0.3790 -0.1294  0.0697
32608ION     NA49082   5.010   1.942   2.869  0.0244 -0.1715  0.2955
32609ION     NA49083  15.548   8.998   9.912  0.0705 -0.0953 -0.1912
32610ION     NA49084  17.618   0.901   5.300  0.0743  0.0179 -0.0471
32611ION     NA49085   6.052   1.336   5.733  0.2114 -0.0905  0.0777
32612ION     NA49086  19.072   4.193   0.595 -0.2629 -0.0771 -0.0774
32613ION     NA49087  15.046   8.278   9.858  0.1698  0.0929  0.1545
32614ION     NA49088  14.034  17.725   2.062  0.1066  0.2393 -0.0454
32615ION     NA49089   0.285  17.540   3.963 -0.1108 -0.0114  0.1044
32616ION     NA49090   9.547  16.862   5.489 -0.0691  0.1540  0.3483
32617ION     NA49091  11.716   8.252  13.643 -0.0254  0.1218 -0.1467
32618ION     NA49092  16.926  11.933   3.771  0.0872 -0.1358 -0.1131
32619ION     NA49093   8.485  15.078   4.895 -0.1856  0.0842  0.1903
32620ION     NA49094   2.496  12.034   9.845  0.2356 -0.1596  0.0146
32621ION     NA49095   0.330   3.078   5.468 -0.0525  0.2269  0.0394
32622ION     NA49096   7.314   4.956  13.364 -0.0951  0.2893 -0.3578
32623ION     NA49097  18.411   1.517  11.152  0.2764 -0.1248 -0.1724
32624ION     NA49098  11.109   1.633  11.836  0.1920 -0.0656 -0.0988
32625ION     NA49099  10.060   2.309  12.557  0.0348 -0.2828  0.1427
32626ION     NA49100   3.709   1.055   0.829 -0.0474 -0.2598  0.1288
32627ION     NA49101  10.890  10.388   5.500  0.1834 -0.0870  0.4336
32628ION     NA49102  14.906   4.309   9.579 -0.1325  0.2496  0.1810
32629ION     NA49103  10.503   0.204   2.203 -0.1717  0.4823  0.0409
32630ION     NA49104   4.234   4.422  11.465 -0.0258 -0.1729  0.0429
32631ION     NA49105  11.364   2.700   5.083  0.2216  0.0108  0.0580
32632ION     NA49106  19.061  15.956   5.811  0.1555  0.1676 -0.1224
32633ION     NA49107   9.565  17.103   4.112  0.0969 -0.1455 -0.0887
32634ION     NA49108   5.224  18.889  12.748 -0.3181  0.0318 -0.2058
32635ION     NA49109  18.805   6.159   2.980  0.1371 -0.1072 -0.0627
32636ION     NA49110  15.839   0.819   9.847  0.1164  0.1634  0.0478
32637ION     NA49111  15.442  17.857  11.898  0.2531 -0.2600 -0.2086
32638ION     NA49112  15.038  12.741   3.427 -0.2622 -0.0152 -0.0474
32639ION     NA49113   5.368  13.806  13.070  0.1940  0.2018  0.2050
32640ION     NA49114  14.554  14.225   0.836 -0.3296  0.0937 -0.5161
32641ION     NA49115   9.806  12.446  14.890  0.1473 -0.3706 -0.1311
32642ION     NA49116   4.044  12.359   4.387  0.1204  0.1849  0.0201
32643ION     NA49117  10.920   3.096  12.529 -0.1124 -0.1345 -0.1609
32644ION     NA49118   2.831   7.295   5.013 -0.2168  0.1859 -0.1176
32645ION     NA49119   6.983   4.685   5.279 -0.0276 -0.3855  0.1613
32646ION     NA49120  11.851  18.378  12.905  0.0316  0.2714  0.0369
32647ION     NA49121   5.055   4.056   5.776  0.2858 -0.1786  0.0231
32648ION     NA49122  13.965   8.146   2.966  0.0888  0.2155  0.0503
32649ION     NA49123   7.224   7.368  10.035  0.0022  0.2498  0.0851
32650ION     NA49124   1.181  18.023   1.785  0.0367 -0.1481  0.2275
32651ION     NA49125  15.484  10.768   9.700 -0.0180  0.0525  0.2266
32652ION     NA49126   5.561  10.069   5.007  0.2000 -0.0864  0.0631
32653ION     NA49127  14.425  15.362   1.465 -0.2088 -0.2222  0.0262
32654ION     NA49128   4.220  10.150   5.212 -0.2763 -0.0489 -0.0044
32655ION     NA49129  12.661   9.531   5.589 -0.2291  0.0433 -0.0777
32656ION     NA49130   6.352  10.203   1.034 -0.0443  0.1784 -0.1995
32657ION     NA49131  10.944   6.352  14.844  0.1383 -0.2994  0.0351
32658ION     NA49132   8.247  11.723   2.435 -0.2159 -0.1116  0.1019
32659ION     NA49133  18.761  15.688   2.488 -0.3571  0.1098 -0.0195
32660ION     NA49134  18.887   1.239   9.935  0.1939  0.1702  0.1021
32661ION     NA49135  17.361  15.928   2.750  0.1825 -0.0020 -0.2678
32662ION     NA49136  18.135  16.931  10.763 -0.3175 -0.1508  0.0635
32663ION     NA49137   2.317   8.464   5.078  0.0456 -0.0358  0.0822
32664ION     NA49138  15.614   0.828  14.989 -0.2996 -0.0163 -0.0702
32665ION     NA49139  16.634  11.272   2.558  0.0533 -0.0735 -0.1064
32666ION     NA49140   2.307   8.821  14.038  0.1308  0.3080  0.1182
32667ION     NA49141  10.263   5.238   1.667  0.1507 -0.2567 -0.2197
32668ION     NA49142  17.203   2.087   9.856 -0.0515  0.0105 -0.2332
32669ION     NA49143  10.384  13.994  12.965  0.0448  0.1377  0.1457
32670ION     NA49144   1.865   1.603  10.381 -0.0936  0.0204 -0.1904
32671ION     NA49145   8.141  19.071   4.805  0.0240 -0.0831  0.2391
32672ION     NA49146  18.396   7.539  13.495  0.3004  0.1056 -0.1491
32673ION     NA49147   4.929  13.050   9.278 -0.2228 -0.0291  0.0360
32674ION     NA49148   9.898   4.047   5.026 -0.1469  0.1305  0.2003
32675ION     NA49149  18.153   0.505   4.435  0.0604  0.0776 -0.1059
32676ION     NA49150  16.638   7.318   0.963 -0.1918  0.2417  0.0052
32677ION     NA49151  12.253  16.739  13.390  0.2630  0.2379 -0.2163
32678ION     NA49152   6.462   8.423   0.328 -0.2716  0.0151 -0.0592
32679ION     NA49153  13.464  18.801   3.383 -0.0459 -0.1143  0.0390
32680ION     NA49154  13.541  11.429   2.684 -0.3523 -0.1592 -0.2537
32681ION     NA49155  19.124   8.428  14.179 -0.3499  0.1886 -0.1411
32682ION     NA49156  18.119  13.637   9.991  0.2678  0.0134 -0.2388
32683ION     NA49157   1.618   9.277   9.455 -0.1048 -0.1360 -0.1720
32684ION     NA49158   7.743  11.221  14.555  0.2598 -0.0031 -0.2659
32685ION     NA49159  18.793  17.315   2.650 -0.1911 -0.1771 -0.0630
32686ION     NA49160   9.671  17.199   9.962 -0.0430 -0.0888 -0.1330
32687ION     NA49161  10.475  11.848  15.123 -0.1266 -0.1331 -0.1386
32688ION     NA49162   0.573   2.809   0.284 -0.1412  0.0849  0.2713
32689ION     NA49163   6.193  13.738   9.676  0.2110  0.1145 -0.0335
32690ION     NA49164  14.806  14.789   5.487  0.1146  0.0388 -0.0247
32691ION     NA49165  15.145   9.964   5.558 -0.0430 -0.5056 -0.1706
32692ION     NA49166   2.228  14.454   5.799 -0.1841 -0.0518 -0.1161
32693ION     NA49167  18.278   9.306   4.927 -0.0797 -0.0998 -0.1984
32694ION     NA49168   6.401  17.221   5.610 -0.1166 -0.2066 -0.0023
32695ION     NA49169   7.952   0.033   3.999 -0.0517  0.1874 -0.0865
32696ION     NA49170   4.495   8.297   9.483 -0.2645  0.4303  0.2583
32697ION     NA49171  10.439  11.539  10.030  0.0057 -0.2776  0.0718
32698ION     NA49172   5.815   3.959   5.758  0.0941 -0.0803  0.3518
32699ION     NA49173   0.935   7.392   9.432  0.2082  0.1344 -0.2428
32700ION     NA49174  17.230  17.500   1.849  0.3527  0.0471 -0.2309
32701ION     NA49175   7.728   1.961  14.653 -0.0046 -0.0511  0.2000
32702ION     NA49176   1.980   8.683  12.291 -0.1191 -0.0817  0.1096
32703ION     NA49177  15.692   6.031  14.511 -0.0505  0.0442 -0.0853
32704ION     NA49178  16.420  17.035  12.697 -0.2363  0.0386 -0.1437
32705ION     NA49179   8.121   4.089   9.778 -0.2108  0.0697  0.3367
32706ION     NA49180   2.296  17.791  13.921  0.0039 -0.1402  0.3101
32707ION     NA49181  15.465  15.513  13.939 -0.1452  0.0083 -0.1595
32708ION     NA49182   2.815   1.048   6.054 -0.1117  0.1467  0.0519
32709ION     NA49183  15.977  19.003   0.540  0.2285  0.1803  0.3896
32710ION     NA49184  10.802   8.548   5.502  0.0632 -0.1759  0.0790
32711ION     NA49185  17.629  16.449  12.577 -0.0631  0.3397 -0.0464
32712ION     NA49186  18.841   4.890   2.077 -0.2287 -0.0352 -0.2778
32713ION     NA49187   7.122  13.982   9.694  0.2181  0.2029  0.0423
32714ION     NA49188   7.131   1.071   0.519 -0.1818  0.0398 -0.2365
32715ION     NA49189  13.932  15.647  10.200  0.1561 -0.0649  0.1101
32716ION     NA49190   9.494   4.110   0.506 -0.1770 -0.1864 -0.0544
32717ION     NA49191  16.149   9.366  12.466  0.1960  0.1293 -0.3401
32718ION     NA49192   0.297  10.376   9.563 -0.1751  0.1540  0.1812
32719ION     NA49193  14.380  18.525   1.997  0.2889  0.3495 -0.0225
32720ION     NA49194   1.542  15.522  10.004  0.0623  0.0834 -0.2445
32721ION     NA49195   4.627  13.397   2.459 -0.3059 -0.1121  0.1934
32722ION     NA49196   4.016  11.787   4.813  0.1769 -0.0410  0.1485
32723ION     NA49197   1.581   2.198   5.619  0.2485 -0.0640 -0.0353
32724ION     NA49198   4.972   1.886   1.887  0.1109 -0.1052 -0.0104
32725ION     NA49199  16.650  17.994   5.401 -0.0280  0.1296 -0.0586
32726ION     NA49200  14.053  18.518  14.873  0.1800  0.2477 -0.1915
32727ION     NA49201   4.852   1.429  13.961 -0.1132  0.0051 -0.0163
32728ION     NA49202  15.411  10.417   0.798  0.2318 -0.0098  0.2626
32729ION     NA49203  10.938  10.650  10.897 -0.3365  0.0684  0.2217
32730ION     NA49204   6.345   7.672   9.809  0.1681 -0.0912  0.2534
32731ION     NA49205   2.401  13.813   5.497  0.0825 -0.2240 -0.1665
32732ION     NA49206   5.199   0.633  10.244  0.3893 -0.1178 -0.1074
32733ION     NA49207  13.260   2.003   4.748 -0.2914  0.0302  0.5564
32734ION     NA49208   0.470   7.840   1.029 -0.2821 -0.0876 -0.2760
32735ION     NA49209  18.328   5.308   4.871 -0.0424 -0.1836 -0.0427
32736ION     NA49210   5.406  17.714   5.620  0.2905 -0.2111  0.0208
32737ION     NA49211   7.861   0.983   3.474 -0.0367 -0.1566 -0.2903
32738ION     NA49212  17.184   7.005  13.669  0.0095  0.2263 -0.0664
32739ION     NA49213  11.603  19.152   3.814  0.1277 -0.0454  0.1435
32740ION     NA49214   1.533   1.228  14.522 -0.1095  0.1530 -0.1973
32741ION     NA49215   5.065   7.949  12.928  0.1305 -0.2394 -0.0815
32742ION     NA49216  10.779  14.813   5.771 -0.0486  0.1148  0.0443
32743ION     NA49217   7.151  11.965   9.730  0.2119  0.1157 -0.2235
32744ION     NA49218   8.164  18.032   2.635 -0.0377 -0.3722  0.0972
32745ION     NA49219  18.366  12.188  12.777 -0.0076  0.2661  0.1034
32746ION     NA49220   3.887   4.320   5.447  0.0056  0.1566 -0.1407
32747ION     NA49221  15.407   7.379   9.663 -0.1022 -0.0264 -0.4840
32748ION     NA49222   6.582   8.708  12.598  0.1286 -0.1097 -0.0975
32749ION     NA49223  15.891  16.631   1.988  0.0640 -0.0685 -0.0327
32750ION     NA49224  12.409   4.275   9.531 -0.0187 -0.1535 -0.1101
32751ION     NA49225  11.303   9.327   2.415 -0.1441  0.1238 -0.2273
32752ION     NA49226  17.764   5.857   0.509 -0.3649  0.3211  0.0632
32753ION     NA49227  19.015  13.628   5.512  0.0413  0.2198  0.4511
32754ION     NA49228  15.056   2.409   9.706 -0.0807  0.2449 -0.1548
32755ION     NA49229   8.206  14.682   2.635 -0.0384  0.1391  0.0551
32756ION     NA49230  11.934   5.700  10.015  0.3747  0.1271 -0.2842
32757ION     NA49231   9.057  18.351   2.673 -0.0077  0.1497 -0.0679
32758ION     NA49232  13.177   5.258  13.867 -0.1591  0.2456 -0.1867
32759ION     NA49233  13.584  13.756   5.055  0.0638  0.0820 -0.0636
32760ION     NA49234   1.415   6.983   1.217  0.0648  0.0904 -0.4020
32761ION     NA49235   3.984  15.174   2.709 -0.2130 -0.3792 -0.2521
32762ION     NA49236   5.831  12.323   4.567 -0.0702  0.1422 -0.0644
32763ION     NA49237  12.663  14.208  10.010  0.0035 -0.2399 -0.0801
32764ION     NA49238   8.213   9.735   9.747 -0.0705 -0.2162 -0.2862
32765ION     NA49239   2.038   6.319   1.128 -0.0625  0.0633  0.1089
32766ION     NA49240   2.820   6.077  11.645  0.0261  0.3255 -0.2023
32767ION     NA49241  14.162   8.433   9.972  0.1030  0.0043 -0.0819
32768ION     NA49242  11.711  15.425   1.370 -0.0184 -0.3235  0.0438
32769ION     NA49243   6.815   2.728   2.949 -0.1282 -0.2353  0.0078
32770ION     NA49244   7.704  15.914   3.237 -0.0397  0.2356 -0.1229
32771ION     NA49245   6.063  16.636  10.090  0.0010 -0.1629  0.1173
32772ION     NA49246  14.401  14.026  14.549  0.0361 -0.1759  0.0308
32773ION     NA49247   0.349   3.079  10.197 -0.2407 -0.0805  0.2508
32774ION     NA49248  14.128  19.024   9.509 -0.0188 -0.1112 -0.0380
32775ION     NA49249   6.075   4.325  10.955  0.2852 -0.0594  0.1411
32776ION     NA49250   1.204   3.485   9.969  0.2981 -0.6085 -0.2280
32777ION     NA49251   1.903  16.208   4.747 -0.1379  0.1066  0.1492
32778ION     NA49252   5.714   6.742  14.228  0.0373  0.1538  0.0667
32779ION     NA49253  16.406  16.154   5.402 -0.3545  0.3375  0.0306
32780ION     NA49254  17.686  18.161   5.871 -0.2094 -0.0186  0.1686
32781ION     NA49255  16.737   1.383   9.720  0.0273 -0.1252 -0.0684
32782ION     NA49256   9.347   0.188   9.686  0.2282  0.0273  0.1795
32783ION     NA49257   5.955  12.725   3.650 -0.1263 -0.4869 -0.0584
32784ION     NA49258  18.059   4.363   5.346  0.0310  0.4399 -0.3662
32785ION     NA49259   0.375  15.182  14.426 -0.1722 -0.0595  0.0987
32786ION     NA49260  12.453   9.975   9.963 -0.2794  0.3294  0.3131
32787ION     NA49261  18.177  18.729  10.055  0.2211 -0.0991 -0.0328
32788ION     NA49262  16.850   0.851   9.797  0.0252  0.0434 -0.0657
32789ION     NA49263  10.928  10.635   9.905 -0.1001  0.0939 -0.2254
32790ION     NA49264   6.888   2.805   5.769  0.0642  0.2151  0.0946
32791ION     NA49265   0.037   4.683   9.670 -0.0312  0.1874  0.0242
32792ION     NA49266  13.081  14.640   5.286  0.0101  0.1636  0.1033
32793ION     NA49267   4.838  11.822   9.181 -0.4241 -0.0005 -0.0302
32794ION     NA49268  17.700  13.097  12.630 -0.1028 -0.0710  0.0339
32795ION     NA49269   6.123  17.175   1.210  0.0371  0.0755  0.0417
32796ION     NA49270   8.719   1.858   9.591 -0.0641 -0.1506  0.0134
32797ION     NA49271  17.856   8.746   9.441  0.0125  0.3759  0.1108
32798ION     NA49272   8.062  13.534   4.015 -0.1398  0.0577 -0.2843
32799ION     NA49273  14.209   4.581  12.507  0.2187 -0.0380 -0.1896
32800ION     NA49274  13.700   4.344   3.692 -0.0615  0.0567 -0.1154
32801ION     NA49275   1.810  16.343  10.051  0.1317  0.0467  0.0050
32802ION     NA49276   2.147   1.543   4.890 -0.1699 -0.1197 -0.0456
32803ION     NA49277  13.096   3.641   4.037  0.2131  0.1813 -0.3103
32804ION     NA49278   6.244  11.847   9.657  0.1648  0.1107  0.1202
32805ION     NA49279  13.852   4.705   9.840 -0.0639 -0.2093  0.1052
32806ION     NA49280   4.532   0.320   5.521 -0.3276  0.0760  0.0545
32807ION     NA49281   4.188  17.344   5.653 -0.1608  0.1375 -0.4492
32808ION     NA49282  11.210   3.918   4.881  0.1004 -0.0399  0.1467
32809ION     NA49283  18.334   2.631   5.585  0.1740 -0.1477 -0.1252
32810ION     NA49284   2.040   5.478   5.329  0.0294  0.0039 -0.1582
32811ION     NA49285   1.096   2.490  14.798  0.2947 -0.2875  0.2354
32812ION     NA49286   9.102   9.949  12.861 -0.1788  0.3866 -0.1624
32813ION     NA49287  17.869  14.510   9.976  0.0243 -0.2133 -0.0432
32814ION     NA49288   6.907  12.940  14.779 -0.0858  0.0083  0.1268
32815ION     NA49289   6.189  18.244   5.647  0.1679 -0.2449 -0.2701
32816ION     NA49290   5.669   2.704   4.804  0.0412  0.0201 -0.2585
32817ION     NA49291   7.741   1.630   9.786  0.1473  0.1713  0.3849
32818ION     NA49292  10.931   8.415  10.333  0.2659 -0.0648 -0.0919
32819ION     NA49293   8.990   3.629   9.522 -0.1808 -0.1217  0.0055
32820ION     NA49294   4.750   6.977   5.015  0.2944 -0.1724  0.0033
32821ION     NA49295   8.123  11.111   5.408  0.2056 -0.3524  0.0680
32822ION     NA49296   7.292   9.291   5.495  0.0956  0.0855  0.2948
32823ION     NA49297  15.935  12.301   2.821 -0.1679 -0.1103  0.0124
32824ION     NA49298   5.773  15.464  12.745  0.0656 -0.1978  0.0495
32825ION     NA49299  10.145  15.438   5.443  0.1938  0.1337 -0.2836
32826ION     NA49300   1.443   0.355   4.921  0.0860  0.0790 -0.1826
32827ION     NA49301   7.070  18.360   9.976  0.0452  0.0459 -0.1297
32828ION     NA49302   5.510   7.666  12.971  0.0982 -0.0308  0.4036
32829ION     NA49303  12.576  14.628  10.802  0.0983 -0.2316 -0.0755
32830ION     NA49304  13.871  17.940   4.240  0.3491 -0.1938 -0.2127
32831ION     NA49305  17.439  15.707   1.605 -0.0888 -0.0850  0.0882
32832ION     NA49306  15.844  13.672  11.260 -0.1087  0.3643  0.0475
32833ION     NA49307   3.467   9.368  12.499  0.0135 -0.1998  0.0245
32834ION     NA49308  13.054  12.503   0.708  0.1001  0.0108  0.1822
32835ION     NA49309   4.030   1.717  13.609  0.0551  0.2239  0.2803
32836ION     NA49310   4.011   5.547  14.396  0.5749  0.0070  0.0604
32837ION     NA49311   5.731  11.243   2.147  0.1564 -0.1035  0.0443
32838ION     NA49312   2.166   0.027  14.850 -0.0680 -0.2214 -0.0924
32839ION     NA49313  16.253  13.180   3.554  0.4161 -0.0384 -0.3752
32840ION     NA49314   8.365  17.263   9.618  0.1414  0.0750 -0.1673
32841ION     NA49315  18.031   0.450   9.980 -0.0896  0.1770  0.1112
32842ION     NA49316   4.289  13.676  14.567  0.0030 -0.2977 -0.2017
32843ION     NA49317  11.076  10.068   3.152 -0.1591 -0.1001 -0.0201
32844ION     NA49318  11.598   6.034  14.395 -0.2388  0.0750  0.0052
32845ION     NA49319  16.460   5.455   0.969  0.0702 -0.0411 -0.2521
32846ION     NA49320  10.968   1.139   2.589 -0.0774  0.1999  0.2864
32847ION     NA49321   2.012   7.279   2.982  0.0312  0.0686 -0.0798
32848ION     NA49322  12.505  11.700  10.297 -0.0846  0.2380 -0.1120
32849ION     NA49323  14.367   6.987  10.219  0.1368  0.1260 -0.0138
32850ION     NA49324   9.872   9.176   5.606  0.3655  0.0023  0.1885
32851ION     NA49325   3.378   9.634   9.490 -0.2012 -0.0882 -0.1775
32852ION     NA49326  11.145   6.279   5.075  0.0478 -0.2377 -0.2697
32853ION     NA49327   4.319  13.583   5.030 -0.0702 -0.0217 -0.1918
32854ION     NA49328  12.790   9.048   9.937 -0.0470  0.0120 -0.1646
32855ION     NA49329  11.486   4.954  10.293 -0.0845  0.2357  0.0436
32856ION     NA49330  16.825   2.799  14.573 -0.0283 -0.3132 -0.2260
32857ION     NA49331   4.437   1.216   5.943  0.3750  0.2030 -0.2612
32858ION     NA49332  16.388  15.704  13.671  0.1844  0.1036  0.2155
32859ION     NA49333   4.409   3.558  10.319 -0.5262  0.3341 -0.2141
32860ION     NA49334  18.616   7.387   9.673 -0.0261 -0.0034  0.0310
32861ION     NA49335   3.519   3.148  10.537 -0.0845  0.0584 -0.4006
32862ION     NA49336  14.120   2.376   9.304 -0.2183 -0.0683  0.0148
32863ION     NA49337   6.673  16.684  14.885  0.0433  0.2098  0.1385
32864ION     NA49338   1.243   8.406   5.237  0.2491  0.4497  0.1300
32865ION     NA49339  18.751  18.880  13.519  0.2476  0.0362 -0.1221
32866ION     NA49340   8.822  17.959   9.580 -0.0179 -0.0379  0.1822
32867ION     NA49341  12.924  10.143   5.937  0.0088  0.2156  0.0223
32868ION     NA49342   6.228  16.562  13.437  0.1283 -0.2729  0.0213
32869ION     NA49343  12.634   0.312   2.912  0.0789 -0.1845  0.0777
32870ION     NA49344  16.502   5.273   5.281  0.0101  0.0871 -0.2284
32871ION     NA49345  11.508  15.787   9.661  0.0779  0.0922  0.0769
32872ION     NA49346  14.707  11.072  10.162  0.1119  0.0954 -0.0242
32873ION     NA49347   3.344  12.940   9.454 -0.1083 -0.0235  0.0410
32874ION     NA49348   5.244   8.949   9.606  0.2697 -0.1746  0.3651
32875ION     NA49349  12.366   1.385   5.467  0.0324 -0.1181  0.1125
32876ION     NA49350   9.354  17.305   9.603 -0.0820  0.0128  0.2694
32877ION     NA49351   5.897  15.666   3.353 -0.0821  0.3895  0.3496
32878ION     NA49352  15.195   4.676   3.866  0.1802 -0.1310  0.1631
32879ION     NA49353  14.550   2.993   9.243  0.2806  0.0845 -0.3909
32880ION     NA49354   0.927   7.375   5.293 -0.0618  0.0200 -0.0337
32881ION     NA49355   4.204  17.714   3.605 -0.1578  0.0891  0.4110
32882ION     NA49356   7.535  11.310   3.536  0.0792  0.0325  0.1087
32883ION     NA49357  18.047   8.596   1.058  0.1323  0.1262 -0.0457
32884ION     NA49358  11.933  10.081   5.756 -0.2378  0.1575  0.0818
32885ION     NA49359  13.940   3.817   9.640  0.2730 -0.2511  0.0167
32886ION     NA49360  11.736  18.760  14.762 -0.0376  0.0261  0.1042
32887ION     NA49361   3.712  18.114  10.247 -0.0504  0.1019 -0.0630
32888ION     NA49362  12.171  18.917   5.314 -0.0121  0.1245 -0.0940
32889ION     NA49363   2.609  16.706  10.009 -0.0842  0.1987 -0.0651
32890ION     NA49364  15.486   6.518   9.948  0.4308 -0.0986  0.0295
32891ION     NA49365   2.871  19.030  11.514  0.1445 -0.2332  0.2769
32892ION     NA49366  18.811   0.264   3.795  0.0505 -0.1063  0.0822
32893ION     NA49367  15.795   4.004   9.472 -0.2313 -0.0292  0.0638
32894ION     NA49368  19.016  18.740   5.799 -0.1950 -0.0290 -0.2009
32895ION     NA49369  15.890   2.581   0.862  0.1693 -0.1091  0.1256
32896ION     NA49370  12.380  12.816   1.457 -0.0786 -0.0586  0.1646
32897ION     NA49371  13.358  13.152  10.289  0.0891 -0.1281  0.1742
32898ION     NA49372   4.077   9.181   9.880  0.3100 -0.0558 -0.2732
32899ION     NA49373  13.055  19.103   5.388 -0.2717 -0.3305 -0.1632
32900ION     NA49374  17.019   0.311   1.780  0.2117  0.1487  0.1536
32901ION     NA49375   8.567  11.685   5.400 -0.0171 -0.1768  0.0324
32902ION     NA49376  13.358   6.211   9.697 -0.2506 -0.0747 -0.2035
32903ION     NA49377   4.743  10.105   4.413 -0.0608 -0.1169 -0.2288
32904ION     NA49378  18.550   3.623  12.573  0.0042 -0.2427  0.4328
32905ION     NA49379  16.970  19.038  10.101 -0.0782  0.0061 -0.1297
32906ION     NA49380   5.290  16.359   3.116  0.6077 -0.0672 -0.0757
32907ION     NA49381   6.246   6.270  14.902 -0.1460 -0.0751 -0.0460
32908ION     NA49382  18.297  16.445   5.428  0.0024  0.0257 -0.0491
32909ION     NA49383  12.546  14.209   3.067 -0.0047  0.0322 -0.0865
32910ION     NA49384  13.741  17.203   1.660 -0.2384  0.0204 -0.1411
32911ION     NA49385   8.731   0.287  14.205 -0.2912  0.1109  0.2725
32912ION     NA49386  15.270  10.624  12.049  0.1617  0.2345  0.0743
32913ION     NA49387  10.484  10.216  14.742  0.1155 -0.1689 -0.0784
32914ION     NA49388   1.368  12.455   9.934  0.2530 -0.1955 -0.0206
32915ION     NA49389  18.881   3.133  14.574 -0.0011  0.1444  0.0434
32916ION     NA49390  17.251  15.088   5.479 -0.1945  0.0174 -0.0481
32917ION     NA49391   0.420  11.177   1.147  0.4430  0.3891  0.1762
32918ION     NA49392  13.868  16.442   2.880  0.1971 -0.2194  0.0166
32919ION     NA49393  12.074  13.555   5.620 -0.2567  0.3928 -0.2460
32920ION     NA49394   8.055   7.145   5.548  0.0721  0.0486 -0.0868
32921ION     NA49395   7.607   0.717   5.125  0.6089 -0.1018  0.0550
32922ION     NA49396  17.291  12.926   9.854 -0.0541 -0.2832 -0.4134
32923ION     NA49397  14.604  18.614   5.179  0.0795  0.1442  0.3272
32924ION     NA49398   7.429   6.789   2.761  0.1731  0.0655  0.0533
32925ION     NA49399  15.645   0.211   5.263  0.1459 -0.0071  0.2923
32926ION     NA49400  15.407  10.754   2.321  0.0720 -0.2151  0.2683
32927ION     NA49401   5.816   1.560  15.073 -0.0179 -0.0966  0.1139
32928ION     NA49402   2.167   8.581   9.250  0.1196 -0.0517 -0.1418
32929ION     NA49403  16.585   6.405  13.866  0.0325 -0.0927  0.1093
32930ION     NA49404   0.937  17.072   9.969  0.0558 -0.1605  0.1252
32931ION     NA49405   7.128   0.298   3.086 -0.0541  0.1341 -0.1872
32932ION     NA49406  11.401   0.316   5.058 -0.0929 -0.0719  0.2460
32933ION     NA49407   9.167  18.866   5.463 -0.0395 -0.1053  0.0934
32934ION     NA49408  13.636  14.703   9.939  0.2304 -0.0787 -0.0231
32935ION     NA49409   1.245   5.238   3.044  0.1506 -0.2019  0.1999
32936ION     NA49410   7.619   8.436   4.164 -0.1964  0.0616  0.4448
32937ION     NA49411   3.350  16.790  12.043 -0.0062  0.0337  0.3536
32938ION     NA49412  14.124   6.107   5.272 -0.0701  0.0412 -0.0516
32939ION     NA49413  10.558   1.567   5.580  0.2146  0.2460 -0.1786
32940ION     NA49414   5.343   3.677  10.017 -0.1568 -0.6300  0.0858
32941ION     NA49415   0.402  14.874  10.052 -0.1635  0.1846  0.3325
32942ION     NA49416   2.607   8.768   9.217 -0.0281 -0.0302 -0.0699
32943ION     NA49417  18.823  13.409   9.705  0.0509 -0.0926  0.0418
32944ION     NA49418  19.072   5.675   9.375  0.1546 -0.1473 -0.3629
32945ION     NA49419   4.358  16.852   5.132 -0.4320  0.4301  0.0553
32946ION     NA49420   3.550   1.637   5.967 -0.2613  0.0131 -0.1043
32947ION     NA49421   0.920   4.168  12.779 -0.1241  0.1891 -0.1017
32948ION     NA49422   1.693  12.005   2.066  0.3033  0.0945  0.0221
32949ION     NA49423  11.595   4.741   5.024  0.0490  0.1511  0.1964
32950ION     NA49424  16.022   6.831   5.363 -0.2051  0.0846 -0.1369
32951ION     NA49425   1.284  18.190   4.062 -0.0988  0.0440 -0.2484
32952ION     NA49426  11.786  13.754  10.565 -0.1331 -0.4098  0.1367
32953ION     NA49427  10.851  13.828   4.356  0.2185  0.0158  0.1508
32954ION     NA49428  11.241   9.309  10.153  0.3382  0.2574 -0.1134
32955ION     NA49429   2.311  13.831   3.770 -0.2612  0.0545  0.2845
32956ION     NA49430   9.396   5.786   9.817 -0.1566 -0.0444 -0.1780
32957ION     NA49431  13.980   9.088   2.300  0.0620  0.0885 -0.1973
32958ION     NA49432  19.157  17.269  10.105  0.0887 -0.1326 -0.0048
32959ION     NA49433   8.379   8.652   5.031  0.2523 -0.0186 -0.0116
32960ION     NA49434  17.243   6.286   9.874 -0.1245  0.1981  0.0736
32961ION     NA49435  16.668  14.681   9.933  0.1938  0.1831 -0.1382
32962ION     NA49436  10.069  15.955  12.202  0.0248  0.2499  0.0923
32963ION     NA49437   9.573   8.709   3.453  0.0306  0.0062  0.0772
32964ION     NA49438   2.248   5.602   9.787 -0.1510  0.0549  0.0893
32965ION     NA49439  11.224   6.345   1.814 -0.1600 -0.2781  0.0457
32966ION     NA49440   9.518  15.096  10.309  0.0786 -0.2785 -0.0760
32967ION     NA49441  17.152   5.218   2.683  0.0200  0.0926 -0.0479
32968ION     NA49442  11.341  11.542   5.470  0.0114  0.0605  0.1727
32969ION     NA49443  11.882  17.442   4.529  0.1792 -0.2053  0.0063
32970ION     NA49444  15.443  15.136  13.087 -0.0439  0.1602 -0.1230
32971ION     NA49445  11.231  13.477   1.803  0.2381  0.0470 -0.0345
32972ION     NA49446  13.299  12.705   4.510 -0.1051 -0.1511  0.0325
32973ION     NA49447   7.860  12.736  14.721  0.0850  0.1941 -0.1126
32974ION     NA49448   6.180   5.414   5.326 -0.2777 -0.0160  0.1022
32975ION     NA49449   6.073  11.483   1.315  0.0190  0.0977 -0.0031
32976ION     NA49450   0.604  14.601   4.243 -0.0982 -0.0743  0.0526
32977ION     NA49451  15.412   6.334   0.356 -0.0246  0.0490  0.0156
32978ION     NA49452  13.272  10.340   5.625 -0.0025 -0.0649 -0.1257
32979ION     NA49453   5.942  10.060   1.761  0.0572  0.5877  0.0064
32980ION     NA49454   1.557  14.420   9.783  0.4063  0.1287 -0.1064
32981ION     NA49455   2.351   8.976   0.215 -0.1375  0.2869  0.0044
32982ION     NA49456  14.648  13.595   5.568  0.1299  0.0542 -0.1446
32983ION     NA49457   9.782   7.123   5.019  0.1225  0.1258 -0.1999
32984ION     NA49458   8.394   1.030  14.370 -0.0905 -0.0782 -0.2287
32985ION     NA49459  18.143  13.595   5.141 -0.1578 -0.0301  0.0147
32986ION     NA49460  12.239   5.015   3.693 -0.1102  0.1324 -0.0141
32987ION     NA49461  18.695   8.919  11.433  0.2153  0.3918  0.2133
32988ION     NA49462   9.891  18.000   2.556  0.0865  0.2667  0.0286
32989ION     NA49463  16.018   8.217   2.278 -0.1708  0.1704 -0.0861
32990ION     NA49464  18.679  18.379  13.877 -0.0070 -0.2723  0.2377
32991ION     NA49465   4.541   7.896  14.402 -0.0400  0.3492 -0.1282
32992ION     NA49466  12.359   7.372  11.803  0.1703  0.1221 -0.6284
32993ION     NA49467  12.328  14.056   5.037 -0.1068  0.2358  0.2750
32994ION     NA49468  13.778  15.391   5.304 -0.0712 -0.0321 -0.0253
32995ION     NA49469   6.389  15.669   9.709  0.0662 -0.2115 -0.0091
32996ION     NA49470   3.628   4.925   3.532  0.0714 -0.1596  0.0302
32997ION     NA49471   4.923  16.726   5.516 -0.2348 -0.0885  0.0764
32998ION     NA49472   3.209   7.771   5.198  0.1370  0.0608 -0.0349
32999ION     NA49473  18.908   0.118  10.096  0.1320 -0.2150  0.4371
33000ION     NA49474  18.131  17.412   1.792  0.0643  0.0547 -0.3525
33001ION     NA49475   0.329   8.047   9.740  0.1658  0.3042 -0.0392
33002ION     NA49476  10.006   2.342   5.539 -0.1135 -0.0653  0.0362
33003ION     NA49477   8.970   4.052  13.483  0.5015 -0.1229 -0.1093
33004ION     NA49478  17.327   4.022   1.749 -0.0430  0.2394 -0.3298
33005ION     NA49479   9.372   2.145   1.146 -0.2543 -0.1977  0.1829
33006ION     NA49480   1.480  16.320   1.952  0.0605 -0.1634 -0.2858
33007ION     NA49481   5.262   5.267  10.183 -0.1534 -0.2335 -0.1421
33008ION     NA49482   0.530   4.245   5.175 -0.1124 -0.2446  0.0885
33009ION     NA49483  13.279   9.955   1.863  0.0120 -0.2530 -0.4016
33010ION     NA49484  18.583  15.830   9.903 -0.1660  0.0459  0.0470
33011ION     NA49485   4.696   2.621  10.392  0.4468 -0.2340  0.1032
33012ION     NA49486   5.574  11.148   5.299  0.0345 -0.2813  0.2630
33013ION     NA49487  11.751  18.799   3.562 -0.0032  0.0686  0.0884
33014ION     NA49488   2.542   4.563  13.756  0.1490 -0.2138  0.2946
33015ION     NA49489  19.128  14.337  11.640  0.2977  0.4100 -0.0891
33016ION     NA49490   2.200  18.017  10.151 -0.0705 -0.0558 -0.0158
33017ION     NA49491  13.113   3.340   5.282  0.1878 -0.3211 -0.0074
33018ION     NA49492  17.352  13.424   0.938  0.0334  0.0633 -0.4723
33019ION     NA49493   3.920   6.852   0.708 -0.1082 -0.0072  0.3608
33020ION     NA49494  14.995   1.437   9.455 -0.0747 -0.1728 -0.1228
33021ION     NA49495  10.117  16.273  14.917 -0.2306  0.1318  0.2342
33022ION     NA49496  12.933   5.102   5.594 -0.1426  0.2732 -0.0835
33023ION     NA49497   0.388  19.005  13.800 -0.4488 -0.0221 -0.2017
33024ION     NA49498  18.768  11.088   1.838  0.1445 -0.1310  0.1755
33025ION     NA49499  17.296   6.542   0.179  0.0392  0.0766  0.0720
33026ION     NA49500   1.387   2.134  13.726  0.1632 -0.0051  0.0995
33027ION     NA49501   5.547   6.594   0.094 -0.0723  0.0088 -0.3417
33028ION     NA49502   8.648  12.939  13.300  0.3344  0.1243  0.2533
33029ION     NA49503  18.772   6.611   1.137 -0.0268  0.0258  0.5750
33030ION     NA49504   8.824  17.592   0.749 -0.2447 -0.1051 -0.3177
33031ION     NA49505  10.085  15.407   2.447  0.1641  0.0054 -0.0176
33032ION     NA49506   2.927  16.023   0.142 -0.1969 -0.0806  0.5682
33033ION     NA49507  10.724   4.229   9.211  0.0546  0.0430 -0.2371
33034ION     NA49508  17.256  10.629   3.492  0.1223 -0.4490  0.4125
33035ION     NA49509   7.958  13.888  12.247  0.2535 -0.0470 -0.0235
33036ION     NA49510   0.037   4.105   2.831 -0.0015 -0.0140 -0.1309
33037ION     NA49511   4.418  15.178   9.860  0.2661 -0.1376  0.0386
33038ION     NA49512  17.505   8.310   5.412  0.0066 -0.0194 -0.0774
33039ION     NA49513   4.808   6.361  12.447 -0.0238 -0.1194  0.0674
33040ION     NA49514  12.796   5.136  11.365 -0.0691  0.0836  0.0893
33041ION     NA49515  10.164  15.346   4.177  0.0965  0.0747  0.0763
33042ION     NA49516  18.601   8.286   9.589  0.1560  0.2820 -0.1034
33043ION     NA49517  19.021   3.833   9.898  0.0058  0.3620  0.0209
33044ION     NA49518   7.183  14.255   4.407 -0.1098 -0.0402 -0.1516
33045ION     NA49519   1.374  13.760  11.616  0.0378  0.0826  0.1372
33046ION     NA49520   1.022  15.984   4.799  0.0217 -0.1623 -0.1124
33047ION     NA49521   3.318   9.658   4.325  0.1765 -0.0498 -0.2921
33048ION     NA49522  14.124  10.387  10.121 -0.1062 -0.2157 -0.0114
33049ION     NA49523   6.953  11.124   1.967 -0.1105  0.1965 -0.1112
33050ION     NA49524   9.674   6.785  10.139 -0.0016 -0.2189 -0.1417
33051ION     NA49525   2.280  13.984  13.971  0.2735  0.0600 -0.1064
33052ION     NA49526   9.914  12.351   2.315  0.0954  0.2150  0.0870
33053ION     NA49527  13.213  16.483  12.252  0.3894  0.1167 -0.0479
33054ION     NA49528   2.271  12.862   9.497  0.1258  0.1449 -0.0773
33055ION     NA49529  17.790  14.256  14.053 -0.0576  0.3370 -0.0243
33056ION     NA49530  11.916  11.396   2.808 -0.0018 -0.2679  0.0873
33057ION     NA49531   4.426   4.700  13.758  0.1100 -0.1438  0.1540
33058ION     NA49532   9.008  14.606   2.713  0.0838  0.1617 -0.4869
33059ION     NA49533  17.906   7.404   3.317  0.2582 -0.1020  0.0457
33060ION     NA49534  12.028   6.596  10.050 -0.0995  0.1900  0.2931
33061ION     NA49535   6.651  14.661   9.566 -0.2302 -0.2293  0.1851
33062ION     NA49536  11.882  10.039   0.923  0.0871 -0.0275 -0.0048
33063ION     NA49537   9.873   8.218   5.790  0.1965 -0.2806 -0.1526
33064ION     NA49538   7.801   4.973   9.703 -0.1720  0.0684 -0.0786
33065ION     NA49539  14.050   9.446  13.900 -0.0024  0.2449 -0.1246
33066ION     NA49540  15.077   6.975   2.157  0.0695  0.0902  0.0116
33067ION     NA49541   4.263  14.819   9.588 -0.1193  0.2676 -0.3083
33068ION     NA49542   4.230   3.532   3.448  0.1791  0.0735 -0.0012
33069ION     NA49543  10.689   4.734   9.623  0.0784 -0.0788 -0.0557
33070ION     NA49544   4.320   7.272  12.151 -0.1532  0.3549 -0.0653
33071ION     NA49545   2.259   2.744   1.870  0.0078 -0.2940  0.1235
33072ION     NA49546  15.055   5.645   9.972 -0.4790  0.1375  0.0528
33073ION     NA49547   0.555  11.664   9.731 -0.0447 -0.1372 -0.0047
33074ION     NA49548  12.582  16.349   3.034 -0.2249 -0.0477 -0.1070
33075ION     NA49549   1.177   0.047   1.982  0.2957  0.1616 -0.1119
33076ION     NA49550   4.204  17.924   0.206  0.1074 -0.1219  0.0966
33077ION     NA49551   1.577   6.525   0.168  0.2988  0.1991 -0.2010
33078ION     NA49552  16.730  12.317  10.085  0.1833 -0.1320  0.0170
33079ION     NA49553  10.552  11.012   5.493 -0.3574 -0.0050 -0.1495
33080ION     NA49554  16.300   6.081  10.120  0.2645 -0.0171 -0.1350
33081ION     NA49555   7.642  13.946   9.616  0.1140  0.1340  0.1271
33082ION     NA49556  17.233   3.291   5.412 -0.3560  0.2244  0.3186
33083ION     NA49557  10.678  10.521  13.322  0.1355 -0.2452 -0.0811
33084ION     NA49558   8.340  11.845   4.373  0.0076 -0.3434 -0.0934
33085ION     NA49559   2.774  13.005  12.076 -0.0026  0.1592  0.0071
33086ION     NA49560   0.907   6.661   9.741  0.5529  0.2674 -0.1179
33087ION     NA49561   6.511  10.534   9.800  0.4235  0.0752 -0.4108
33088ION     NA49562  10.282  15.873   1.590 -0.2761 -0.1109  0.0496
33089ION     NA49563  17.783   8.217   2.831 -0.1055 -0.2031  0.2357
33090ION     NA49564   2.166   7.396  11.828  0.1597 -0.4224  0.1931
33091ION     NA49565  18.775   9.158   9.406  0.5054  0.0503 -0.0501
33092ION     NA49566   6.946  16.842   9.795  0.0049  0.0381  0.3695
33093ION     NA49567   4.498  11.729  12.551  0.1703 -0.0301 -0.0414
33094ION     NA49568   7.638   6.469  13.080 -0.0258  0.3172  0.4123
33095ION     NA49569   2.597   6.617  15.022  0.2878 -0.1087 -0.0559
33096ION     NA49570   8.760  13.430   5.007  0.0416  0.2467 -0.3741
33097ION     NA49571  10.929  13.365   0.163  0.2208  0.0706  0.2378
33098ION     NA49572  17.040  12.542   5.570 -0.0236  0.2307  0.1075
33099ION     NA49573   0.348   5.873   3.500  0.4044 -0.0755 -0.1374
33100ION     NA49574   6.182  18.603  10.212  0.2642 -0.1854  0.0370
33101ION     NA49575   9.543  14.058  14.856 -0.2585 -0.1735 -0.1601
33102ION     NA49576   7.528   2.027   2.745  0.1727 -0.1960  0.2432
33103ION     NA49577   0.430   4.907  11.650 -0.0821 -0.1864 -0.0516
33104ION     NA49578   6.253   2.408   9.991  0.0614 -0.1498  0.1285
33105ION     NA49579  14.707   8.604   5.519  0.0816 -0.1965  0.1791
33106ION     NA49580   7.789  13.136   9.826 -0.3883 -0.0228 -0.0779
33107ION     NA49581   8.720  15.876   2.758  0.0457 -0.2416  0.0339
33108ION     NA49582  18.775   4.766   5.177 -0.0283 -0.2371 -0.0058
33109ION     NA49583  10.333  15.560   9.899  0.3361 -0.1641 -0.2735
33110ION     NA49584  11.343   5.798  12.017  0.1865  0.3167  0.2652
33111ION     NA49585   2.936  18.355  14.559 -0.2176  0.0881 -0.4001
33112ION     NA49586   9.637  12.851  10.120  0.1354 -0.0638  0.0975
33113ION     NA49587  14.726  16.930   4.947 -0.0232  0.0130  0.2973
33114ION     NA49588  11.244  12.052  10.435  0.0512  0.2691  0.1897
33115ION     NA49589   2.877   7.970   9.615  0.4089  0.3516  0.1916
33116ION     NA49590  11.497   9.933  10.017 -0.1384 -0.0157  0.1089
33117ION     NA49591   9.490   9.487  13.374  0.1515 -0.0654 -0.0907
33118ION     NA49592  11.570   4.158   9.282  0.0342  0.2233  0.0334
33119ION     NA49593  14.790  17.247   2.133 -0.2290 -0.1298 -0.0714
33120ION     NA49594  18.852  12.909   9.892 -0.1449 -0.1299 -0.0842
33121ION     NA49595  16.560   8.888   9.523 -0.1693  0.0739  0.0819
33122ION     NA49596   3.127  15.960  10.085  0.1659 -0.0710  0.2051
33123ION     NA49597   1.195   5.381   9.716 -0.0362  0.0747 -0.1963
33124ION     NA49598   8.082   5.396  13.049  0.2355 -0.1118  0.0272
33125ION     NA49599  18.908   2.131  12.269  0.2352  0.4837  0.0259
33126ION     NA49600   2.507  11.229  12.916  0.4464  0.2088  0.4440
33127ION     NA49601  14.449   2.967   5.145  0.0115 -0.0764  0.0348
33128ION     NA49602   2.960  14.348  12.850  0.1880 -0.1539 -0.3950
33129ION     NA49603   7.750  17.756   5.413 -0.1502  0.0062  0.2295
33130ION     NA49604   9.484  13.255   1.323 -0.0350 -0.4148  0.0918
33131ION     NA49605   3.003  12.667   0.229 -0.1015  0.3460 -0.1048
33132ION     NA49606   7.003  13.213   9.582  0.3886  0.1858  0.3013
  19.16009  19.16009  15.15309
